Title
55513
    1DOPE     N    1   4.539   5.163   8.642 -0.0825 -0.9212 -0.2030
    1DOPE   HN1    2   4.586   5.251   8.611 -1.4507 -0.3050 -0.6309
    1DOPE   HN2    3   4.472   5.178   8.720  0.5096  1.1583 -0.0213
    1DOPE   HN3    4   4.602   5.094   8.686  1.4119 -0.1399 -1.0162
    1DOPE   C12    5   4.464   5.104   8.532 -0.3056  0.5445  0.6045
    1DOPE  H12A    6   4.530   5.051   8.460 -0.3715  1.0800  0.1476
    1DOPE  H12B    7   4.399   5.181   8.486 -0.3446  0.0456 -0.1781
    1DOPE   C11    8   4.367   4.988   8.582 -0.1142 -0.3237  0.5875
    1DOPE  H11A    9   4.296   4.968   8.499  0.5274  0.3177 -0.1283
    1DOPE  H11B   10   4.310   5.036   8.665  0.4155  2.1536 -0.3968
    1DOPE     P   11   4.405   4.735   8.558  0.1102  0.2047  0.2234
    1DOPE   O13   12   4.258   4.728   8.570 -0.4849  0.5694  0.5972
    1DOPE   O14   13   4.479   4.623   8.621 -0.2012 -0.2191 -0.5610
    1DOPE   O11   14   4.441   4.756   8.407 -0.3564 -0.3665 -0.0428
    1DOPE   O12   15   4.442   4.869   8.628 -0.1172  0.0657  0.1109
    1DOPE    C1   16   4.353   4.779   8.303  0.4407 -0.2410 -0.0793
    1DOPE    HA   17   4.382   4.876   8.258 -0.0898  0.2051  0.5360
    1DOPE    HB   18   4.245   4.784   8.328  0.8905  1.7091  1.6340
    1DOPE    C2   19   4.361   4.674   8.185 -0.0160 -0.4609 -0.5209
    1DOPE    HS   20   4.311   4.577   8.204  0.7072 -1.1170 -1.8590
    1DOPE   O21   21   4.498   4.655   8.143  0.0497  0.1456 -0.5884
    1DOPE   C21   22   4.527   4.536   8.101  0.1362 -0.9338 -0.4878
    1DOPE   O22   23   4.456   4.436   8.106  0.3161  0.4504 -0.0668
    1DOPE   C22   24   4.671   4.542   8.050 -0.0256  0.2975  0.1339
    1DOPE   H2R   25   4.721   4.443   8.041  0.6807  0.7065 -0.4715
    1DOPE   H2S   26   4.735   4.604   8.116 -0.4724  0.4566  0.4285
    1DOPE    C3   27   4.287   4.734   8.062 -0.2379 -0.0388  0.3252
    1DOPE    HX   28   4.343   4.821   8.021 -0.9831  0.5638  0.5463
    1DOPE    HY   29   4.190   4.782   8.091  0.2306  1.3622 -0.3431
    1DOPE   O31   30   4.281   4.641   7.947 -0.3780 -0.1003 -0.2228
    1DOPE   C31   31   4.195   4.544   7.938  0.7415  0.1777 -0.4379
    1DOPE   O32   32   4.108   4.516   8.015  0.5888  0.2441  0.1101
    1DOPE   C32   33   4.230   4.460   7.809 -1.0296 -0.7786 -0.4845
    1DOPE   H2X   34   4.306   4.511   7.746 -0.0113 -2.7436 -0.9515
    1DOPE   H2Y   35   4.280   4.372   7.856  0.2327 -0.4727 -1.1904
    1DOPE   C23   36   4.680   4.619   7.916  0.3548 -0.0844 -0.2075
    1DOPE   H3R   37   4.785   4.651   7.902  0.1329  0.1703 -1.5189
    1DOPE   H3S   38   4.615   4.708   7.931 -0.8614 -1.0457  0.4205
    1DOPE   C24   39   4.610   4.543   7.797  0.2106 -0.2848  0.5122
    1DOPE   H4R   40   4.501   4.535   7.815  0.0042  0.3120 -0.4362
    1DOPE   H4S   41   4.644   4.437   7.796  0.3627 -0.2363 -1.0060
    1DOPE   C25   42   4.627   4.612   7.664  0.3516  0.4489  0.2093
    1DOPE   H5R   43   4.731   4.591   7.632  0.6416  0.1454  1.3089
    1DOPE   H5S   44   4.620   4.721   7.685 -0.2595 -0.0441  2.9949
    1DOPE   C26   45   4.534   4.541   7.561  0.0651 -0.2103  0.1329
    1DOPE   H6R   46   4.429   4.577   7.567  0.2404  0.5806 -1.1225
    1DOPE   H6S   47   4.525   4.436   7.593 -1.9396 -1.1057 -2.8640
    1DOPE   C27   48   4.590   4.552   7.417 -0.1380 -0.1841  0.5296
    1DOPE   H7R   49   4.691   4.508   7.406 -0.4783 -1.2178  1.3137
    1DOPE   H7S   50   4.590   4.659   7.387  0.6249 -0.9877 -2.7569
    1DOPE   C28   51   4.507   4.474   7.313 -0.1483 -0.0071  0.2760
    1DOPE   H8R   52   4.504   4.367   7.343 -2.1224 -0.8375 -2.4992
    1DOPE   H8S   53   4.550   4.488   7.212 -1.7332  0.6340 -0.3484
    1DOPE   C29   54   4.367   4.531   7.304  0.4899  0.3163  0.3297
    1DOPE   H9R   55   4.375   4.636   7.272  0.1381  0.1195 -0.4303
    1DOPE  C210   56   4.249   4.464   7.310  0.0838  0.0284  0.1775
    1DOPE  H10R   57   4.153   4.517   7.302  0.5021  0.7992  0.1368
    1DOPE  C211   58   4.245   4.315   7.337  0.0421 -0.2542  0.4307
    1DOPE  H11R   59   4.172   4.284   7.415  0.7338 -2.0847  0.4003
    1DOPE  H11S   60   4.330   4.270   7.394  1.3517 -0.6841 -1.7218
    1DOPE  C212   61   4.240   4.230   7.211 -0.0568  0.2759  0.5856
    1DOPE  H12R   62   4.333   4.235   7.150 -0.3394  0.3351  0.1562
    1DOPE  H12S   63   4.154   4.267   7.153 -0.9579  1.7579  2.7509
    1DOPE  C213   64   4.204   4.083   7.242  0.6848 -0.3038 -0.4236
    1DOPE  H13R   65   4.119   4.068   7.312 -0.7109 -2.2319 -2.3901
    1DOPE  H13S   66   4.288   4.035   7.296  2.7534  1.9116 -1.4504
    1DOPE  C214   67   4.170   4.017   7.115  0.0902  0.1370 -0.2894
    1DOPE  H14R   68   4.243   4.050   7.039 -0.9616  1.2867 -0.8216
    1DOPE  H14S   69   4.068   4.051   7.087 -0.4341  0.5600  1.8765
    1DOPE  C215   70   4.162   3.863   7.130 -0.7927  1.1968  0.5149
    1DOPE  H15R   71   4.107   3.830   7.221  0.8849 -1.2491  0.7329
    1DOPE  H15S   72   4.262   3.824   7.157 -1.4847 -0.6652  0.5216
    1DOPE  C216   73   4.096   3.798   7.012 -0.0533  0.6020 -0.0352
    1DOPE  H16R   74   4.153   3.815   6.918  0.9038 -0.7241  0.2722
    1DOPE  H16S   75   3.997   3.838   6.981  1.1949  1.3574 -3.5763
    1DOPE  C217   76   4.079   3.645   7.020 -0.1588 -0.1652 -0.4982
    1DOPE  H17R   77   4.001   3.620   7.095 -0.7646  2.6636 -0.0711
    1DOPE  H17S   78   4.174   3.603   7.057 -0.6334  0.2676  1.3054
    1DOPE  C218   79   4.029   3.581   6.890  0.0726  0.0744 -0.5919
    1DOPE  H18R   80   4.019   3.472   6.911  1.3950  0.1689  0.6887
    1DOPE  H18S   81   4.095   3.588   6.802 -0.7490  0.1265 -1.2162
    1DOPE  H18T   82   3.927   3.622   6.874  1.3033  3.0784 -1.1936
    1DOPE   C33   83   4.106   4.423   7.735 -0.7437  0.4326 -0.4876
    1DOPE   H3X   84   4.038   4.358   7.794 -0.4597 -0.9880 -1.6729
    1DOPE   H3Y   85   4.139   4.362   7.649  3.8597  1.0454  0.6132
    1DOPE   C34   86   4.026   4.540   7.681  0.3756  0.2770  0.5148
    1DOPE   H4X   87   3.989   4.603   7.765  0.1255 -1.3584  1.6738
    1DOPE   H4Y   88   4.091   4.604   7.617 -1.9157  2.5223  0.2683
    1DOPE   C35   89   3.912   4.499   7.601  0.4602  0.1459 -0.4255
    1DOPE   H5X   90   3.854   4.415   7.645  1.4779 -1.1452 -1.4604
    1DOPE   H5Y   91   3.943   4.468   7.499  0.7204 -0.0005 -0.3017
    1DOPE   C36   92   3.819   4.620   7.572  0.4114 -0.3930 -1.0734
    1DOPE   H6X   93   3.876   4.715   7.579 -2.6529  1.5990 -1.0219
    1DOPE   H6Y   94   3.741   4.628   7.652  0.7114  1.3100 -0.9070
    1DOPE   C37   95   3.748   4.616   7.434 -0.3412 -0.2793 -0.4749
    1DOPE   H7X   96   3.830   4.612   7.359  2.0983  3.5462  1.6426
    1DOPE   H7Y   97   3.685   4.525   7.424 -0.2925 -0.4414  0.5824
    1DOPE   C38   98   3.662   4.738   7.407 -0.1748  0.3048  0.0165
    1DOPE   H8X   99   3.722   4.822   7.448  1.3048 -1.0870  0.8105
    1DOPE   H8Y  100   3.567   4.739   7.464 -0.2060  3.3344  0.0466
    1DOPE   C39  101   3.630   4.758   7.260  0.1562 -0.2138  0.0825
    1DOPE   H9X  102   3.702   4.809   7.195 -0.5096  0.9195  0.2052
    1DOPE  C310  103   3.511   4.712   7.201 -0.4603 -0.3517  0.5967
    1DOPE  H10X  104   3.492   4.744   7.097 -0.5545 -0.4290  0.5899
    1DOPE  C311  105   3.403   4.633   7.265 -0.1628  0.6720  0.2564
    1DOPE  H11X  106   3.427   4.621   7.373 -1.7639  1.6701  0.7694
    1DOPE  H11Y  107   3.305   4.685   7.276 -0.6465  0.5506 -2.6900
    1DOPE  C312  108   3.382   4.501   7.195 -0.2205 -0.1366  0.4591
    1DOPE  H12X  109   3.328   4.430   7.261  1.6296 -0.9793  1.1639
    1DOPE  H12Y  110   3.477   4.446   7.176  0.3603  1.2518 -0.8604
    1DOPE  C313  111   3.306   4.522   7.067  0.4465 -0.3707  0.1657
    1DOPE  H13X  112   3.229   4.596   7.099  0.0785  0.4075 -2.2681
    1DOPE  H13Y  113   3.360   4.588   6.996 -1.5264 -0.6998 -1.7557
    1DOPE  C314  114   3.259   4.388   7.009 -0.0083  0.2458  0.2493
    1DOPE  H14X  115   3.183   4.399   6.930  0.4663 -1.0996 -0.4244
    1DOPE  H14Y  116   3.214   4.318   7.082 -0.2435 -0.4700 -0.5712
    1DOPE  C315  117   3.386   4.316   6.946  0.2575 -0.5108 -0.2682
    1DOPE  H15X  118   3.447   4.265   7.023  2.0818  1.4657 -0.2921
    1DOPE  H15Y  119   3.449   4.395   6.899 -0.4732 -0.9780 -2.1361
    1DOPE  C316  120   3.342   4.208   6.842 -0.5815 -0.6252  0.0057
    1DOPE  H16X  121   3.253   4.148   6.872 -0.1251 -1.2706  0.0807
    1DOPE  H16Y  122   3.424   4.134   6.851 -0.3039 -0.4096 -0.6685
    1DOPE  C317  123   3.333   4.265   6.700  0.1956 -0.5313 -0.5055
    1DOPE  H17X  124   3.234   4.314   6.689 -0.2499 -1.3525 -0.2668
    1DOPE  H17Y  125   3.414   4.341   6.693  0.4342 -0.3374  2.7321
    1DOPE  C318  126   3.368   4.154   6.595  0.1759  0.7756 -0.0233
    1DOPE  H18X  127   3.476   4.127   6.589 -0.0459 -0.5297  1.2214
    1DOPE  H18Y  128   3.307   4.063   6.613 -0.3561  0.5477 -2.6078
    1DOPE  H18Z  129   3.348   4.193   6.493  3.2675  1.6258 -0.4137
    2DOPE     N  130   3.764   5.176   9.185 -0.1455  0.0153  0.4572
    2DOPE   HN1  131   3.814   5.129   9.264  1.7759 -1.1123 -1.3132
    2DOPE   HN2  132   3.661   5.176   9.195 -0.0901 -1.0796  1.2169
    2DOPE   HN3  133   3.790   5.115   9.105 -0.1388 -2.6911  2.3716
    2DOPE   C12  134   3.796   5.323   9.167  0.2681 -0.0600  0.2079
    2DOPE  H12A  135   3.906   5.330   9.183  0.1619  0.6394  0.7024
    2DOPE  H12B  136   3.741   5.385   9.242  0.3444 -0.0124  0.2242
    2DOPE   C11  137   3.752   5.369   9.022  0.0585  0.0030  0.3306
    2DOPE  H11A  138   3.772   5.478   9.013 -1.3245  0.1997 -0.6199
    2DOPE  H11B  139   3.643   5.365   9.002 -0.0064  2.4389 -0.0870
    2DOPE     P  140   3.930   5.339   8.832 -0.4421 -0.4012 -0.4035
    2DOPE   O13  141   3.948   5.244   8.721 -0.6194  0.4747  0.7188
    2DOPE   O14  142   4.055   5.356   8.914 -0.5237  0.1292 -0.6485
    2DOPE   O11  143   3.885   5.478   8.778 -0.6020  0.1557  0.4045
    2DOPE   O12  144   3.811   5.287   8.920  0.6215  0.0578 -0.0405
    2DOPE    C1  145   3.765   5.496   8.697  0.2945  0.8216  0.4148
    2DOPE    HA  146   3.697   5.574   8.740  0.3909  0.6462  0.8891
    2DOPE    HB  147   3.691   5.414   8.705  0.6304  0.1926 -2.0895
    2DOPE    C2  148   3.785   5.516   8.545  0.6650 -0.2983  0.2256
    2DOPE    HS  149   3.686   5.537   8.498  0.3221  0.6849  1.3396
    2DOPE   O21  150   3.856   5.413   8.481  0.7425 -0.0685  0.1513
    2DOPE   C21  151   3.782   5.303   8.465 -1.0142  0.5799  0.6286
    2DOPE   O22  152   3.671   5.286   8.500 -0.1775  0.2255  0.0922
    2DOPE   C22  153   3.864   5.193   8.397  0.4293 -0.2471  0.5607
    2DOPE   H2R  154   3.886   5.117   8.475 -1.8369  0.6526  2.1596
    2DOPE   H2S  155   3.956   5.238   8.353  0.0196 -0.9795 -1.1605
    2DOPE    C3  156   3.863   5.654   8.528 -0.5260  0.7043  0.2082
    2DOPE    HX  157   3.962   5.651   8.577  0.7471 -2.3681 -2.2019
    2DOPE    HY  158   3.800   5.737   8.567  0.0894  1.8104 -1.0950
    2DOPE   O31  159   3.872   5.674   8.385  0.1261  0.4211  0.1592
    2DOPE   C31  160   3.992   5.658   8.321 -0.5450  0.6052 -0.2689
    2DOPE   O32  161   4.102   5.643   8.378  0.0378 -0.5750  0.0738
    2DOPE   C32  162   3.968   5.637   8.174  0.2294  0.0361  0.2591
    2DOPE   H2X  163   3.922   5.539   8.149 -2.4358  1.1955  0.3565
    2DOPE   H2Y  164   3.883   5.701   8.143  0.5006 -0.9634 -2.8188
    2DOPE   C23  165   3.794   5.102   8.290  0.8794 -0.0003 -0.1714
    2DOPE   H3R  166   3.724   5.031   8.340  1.0853 -0.1664 -0.1184
    2DOPE   H3S  167   3.879   5.038   8.257  0.8189 -0.0027 -0.3220
    2DOPE   C24  168   3.737   5.172   8.165 -0.8210 -0.3802  0.0595
    2DOPE   H4R  169   3.651   5.240   8.185 -2.6111 -2.3564 -0.4870
    2DOPE   H4S  170   3.689   5.093   8.103 -0.9177  1.2877 -2.0971
    2DOPE   C25  171   3.850   5.243   8.084  0.5322 -0.1599  0.8944
    2DOPE   H5R  172   3.940   5.181   8.065  0.3598  0.5601 -3.2033
    2DOPE   H5S  173   3.871   5.341   8.132  2.3369 -1.1806  2.2687
    2DOPE   C26  174   3.794   5.279   7.945  0.4316  0.0382  0.3083
    2DOPE   H6R  175   3.711   5.351   7.958  0.5984  0.6208 -1.5767
    2DOPE   H6S  176   3.745   5.192   7.895  0.6498  0.6653 -1.0313
    2DOPE   C27  177   3.902   5.348   7.856  0.7675  0.8846  0.4349
    2DOPE   H7R  178   3.968   5.414   7.916  1.1758  3.3719 -2.5420
    2DOPE   H7S  179   3.848   5.424   7.797  1.9123  1.1161 -0.3646
    2DOPE   C28  180   3.999   5.258   7.778 -0.2304 -0.1499 -0.4727
    2DOPE   H8R  181   4.058   5.209   7.859  0.1219  2.1758  0.7642
    2DOPE   H8S  182   4.053   5.336   7.720 -1.0481  0.0068 -1.0384
    2DOPE   C29  183   3.942   5.164   7.683 -0.1191  0.1905  0.4757
    2DOPE   H9R  184   3.888   5.210   7.600 -1.8820 -3.2447 -0.4978
    2DOPE  C210  185   3.940   5.033   7.680 -0.3308 -0.2524  0.3853
    2DOPE  H10R  186   3.899   4.978   7.594 -1.9343  1.1622  0.1972
    2DOPE  C211  187   3.981   4.944   7.794  0.1601 -0.1367  0.5927
    2DOPE  H11R  188   4.045   5.000   7.865  1.8338 -1.8623  0.5208
    2DOPE  H11S  189   4.033   4.858   7.747 -1.8750 -0.0186 -2.1290
    2DOPE  C212  190   3.858   4.889   7.877  0.1066  0.1538 -0.3374
    2DOPE  H12R  191   3.818   4.825   7.796  1.3219  0.3232 -1.0977
    2DOPE  H12S  192   3.783   4.966   7.904 -0.9857 -0.6449 -1.0586
    2DOPE  C213  193   3.892   4.797   8.003 -0.9197 -0.0639  0.1919
    2DOPE  H13R  194   3.945   4.865   8.073 -1.9585 -0.4438  1.4030
    2DOPE  H13S  195   3.970   4.729   7.963  0.0667  0.5077  1.0782
    2DOPE  C214  196   3.782   4.712   8.060 -0.3433  0.3205 -0.0875
    2DOPE  H14R  197   3.716   4.794   8.098  2.0892  0.9697  3.1330
    2DOPE  H14S  198   3.816   4.651   8.146  3.1591  3.2230  0.8650
    2DOPE  C215  199   3.704   4.635   7.948  0.5451 -0.1727  0.8674
    2DOPE  H15R  200   3.776   4.603   7.870 -1.0440 -1.5883 -0.0683
    2DOPE  H15S  201   3.625   4.702   7.908 -0.1249 -2.2708 -1.5811
    2DOPE  C216  202   3.624   4.517   8.002 -0.2173 -0.1558 -0.3970
    2DOPE  H16R  203   3.552   4.557   8.076  2.6914  1.7508  1.6430
    2DOPE  H16S  204   3.687   4.450   8.066  1.3928  1.4962 -0.1515
    2DOPE  C217  205   3.565   4.431   7.899  0.2948  0.1043  0.0628
    2DOPE  H17R  206   3.516   4.340   7.939  0.4054 -1.5046 -3.2102
    2DOPE  H17S  207   3.653   4.394   7.844  0.7196 -1.8310  1.9063
    2DOPE  C218  208   3.467   4.505   7.800 -0.6557 -0.2270 -0.7466
    2DOPE  H18R  209   3.524   4.587   7.752 -2.7971  0.6866 -1.8843
    2DOPE  H18S  210   3.390   4.550   7.866  1.5406  1.6869  0.6517
    2DOPE  H18T  211   3.415   4.443   7.724 -0.5527  0.9504 -1.8090
    2DOPE   C33  212   4.094   5.668   8.086  0.1459  0.3125 -0.1381
    2DOPE   H3X  213   4.127   5.773   8.102 -1.7723  0.8390  0.5229
    2DOPE   H3Y  214   4.053   5.645   7.986 -1.3765 -1.3433  0.8116
    2DOPE   C34  215   4.208   5.555   8.098  0.0347 -0.4282  0.4504
    2DOPE   H4X  216   4.264   5.558   8.194  1.7643 -1.3283 -0.4899
    2DOPE   H4Y  217   4.158   5.456   8.105  0.2592 -0.4899  1.3357
    2DOPE   C35  218   4.305   5.553   7.990  1.0178 -0.0301 -0.4545
    2DOPE   H5X  219   4.255   5.515   7.899 -2.2257 -1.7224  1.8448
    2DOPE   H5Y  220   4.382   5.476   8.013  0.1889 -0.6332  0.3761
    2DOPE   C36  221   4.382   5.686   7.970  0.3774  0.7231 -0.0215
    2DOPE   H6X  222   4.400   5.740   8.066 -2.7700 -0.8533  1.6262
    2DOPE   H6Y  223   4.325   5.751   7.900 -3.8099 -0.8872  1.5423
    2DOPE   C37  224   4.525   5.665   7.909  0.1085 -0.6319  0.2237
    2DOPE   H7X  225   4.573   5.589   7.975 -0.7374 -2.1152 -0.8181
    2DOPE   H7Y  226   4.507   5.623   7.808  0.4183 -0.0106 -0.0952
    2DOPE   C38  227   4.617   5.793   7.895 -1.4061  0.3174  0.3012
    2DOPE   H8X  228   4.641   5.830   7.997 -1.2142 -0.0322  0.3851
    2DOPE   H8Y  229   4.560   5.868   7.837 -0.7181 -0.3576 -1.3003
    2DOPE   C39  230   4.745   5.755   7.830  0.0120  0.1899  0.0731
    2DOPE   H9X  231   4.814   5.698   7.893  1.3459 -0.2397 -1.7180
    2DOPE  C310  232   4.774   5.767   7.699 -0.2641 -0.1919  0.2074
    2DOPE  H10X  233   4.869   5.736   7.654  0.2808  2.5975 -0.7383
    2DOPE  C311  234   4.685   5.844   7.599 -0.0831 -0.7716 -0.6038
    2DOPE  H11X  235   4.616   5.912   7.653  1.6925  0.7298 -0.1182
    2DOPE  H11Y  236   4.756   5.903   7.536 -0.3038  0.2919  0.1158
    2DOPE  C312  237   4.611   5.747   7.510  0.1299 -0.1274  0.4930
    2DOPE  H12X  238   4.545   5.675   7.564 -1.2918 -1.5380 -2.8122
    2DOPE  H12Y  239   4.691   5.683   7.466  0.3837  0.9078 -0.5913
    2DOPE  C313  240   4.536   5.806   7.397  0.2156  0.1688  0.2500
    2DOPE  H13X  241   4.439   5.851   7.427 -0.8945  1.2803 -4.2734
    2DOPE  H13Y  242   4.599   5.889   7.356  0.6679  0.6314  1.7864
    2DOPE  C314  243   4.513   5.718   7.281  0.0080 -0.1321  0.3199
    2DOPE  H14X  244   4.448   5.631   7.305  1.6533 -0.8353  2.5284
    2DOPE  H14Y  245   4.608   5.669   7.250  0.1962  0.4763 -0.0867
    2DOPE  C315  246   4.462   5.803   7.158 -0.5060 -0.5291  0.0173
    2DOPE  H15X  247   4.547   5.870   7.131  1.6345 -2.8189  0.7013
    2DOPE  H15Y  248   4.382   5.871   7.195  0.6104  1.3758 -0.8988
    2DOPE  C316  249   4.418   5.735   7.033  0.1030  0.6488 -0.2484
    2DOPE  H16X  250   4.480   5.647   7.006 -2.3565 -2.2234  2.5197
    2DOPE  H16Y  251   4.432   5.810   6.953 -1.3113  1.5188  0.2792
    2DOPE  C317  252   4.280   5.671   7.050  0.4976 -0.2157  0.0941
    2DOPE  H17X  253   4.294   5.605   7.139 -0.3261  1.6836  1.7114
    2DOPE  H17Y  254   4.200   5.743   7.080  0.5704 -0.9154  2.1479
    2DOPE  C318  255   4.227   5.579   6.931  0.0160 -0.0778  0.1888
    2DOPE  H18X  256   4.313   5.522   6.890  1.1866  1.1995  0.7768
    2DOPE  H18Y  257   4.145   5.515   6.967  2.5203 -3.8188 -0.2160
    2DOPE  H18Z  258   4.192   5.657   6.860 -1.1022  1.2970  2.1313
    3DOPE     N  259   2.203   5.832   8.969  0.2451 -0.3225 -0.3068
    3DOPE   HN1  260   2.171   5.914   9.025 -0.2134 -1.7100  1.5728
    3DOPE   HN2  261   2.153   5.831   8.878  1.5380  1.1394 -1.0800
    3DOPE   HN3  262   2.167   5.750   9.022 -0.3091  0.1105  0.0058
    3DOPE   C12  263   2.349   5.839   8.945 -0.3999  0.1362  0.2037
    3DOPE  H12A  264   2.368   5.760   8.869 -0.6503 -0.7461  1.0313
    3DOPE  H12B  265   2.407   5.813   9.036 -3.5618 -1.8425  1.8513
    3DOPE   C11  266   2.383   5.975   8.882  0.1063  0.1230  0.0816
    3DOPE  H11A  267   2.335   5.985   8.783  1.4358 -1.5426 -0.7889
    3DOPE  H11B  268   2.491   5.977   8.855 -0.0134  1.7154 -0.3871
    3DOPE     P  269   2.387   6.231   8.949 -0.4321  0.0464  0.3393
    3DOPE   O13  270   2.513   6.263   9.028  0.2791 -0.3679  0.8620
    3DOPE   O14  271   2.267   6.313   8.975  0.3941 -0.6046  0.3813
    3DOPE   O11  272   2.417   6.239   8.792 -0.4463  0.1702 -0.6179
    3DOPE   O12  273   2.352   6.076   8.974 -0.2584 -0.9133 -0.0229
    3DOPE    C1  274   2.550   6.260   8.740  0.5741  0.0438 -0.0572
    3DOPE    HA  275   2.619   6.185   8.785  0.7088  0.1966 -0.0083
    3DOPE    HB  276   2.580   6.366   8.755 -1.3216  0.6811 -0.5490
    3DOPE    C2  277   2.557   6.226   8.583 -0.2912  0.9903 -0.5791
    3DOPE    HS  278   2.656   6.262   8.547 -0.4339  2.2139  0.2049
    3DOPE   O21  279   2.456   6.291   8.505  0.1911 -0.0593 -0.1036
    3DOPE   C21  280   2.461   6.418   8.489 -0.2552 -0.0016 -0.0636
    3DOPE   O22  281   2.544   6.493   8.540  0.7221  0.6197  0.1639
    3DOPE   C22  282   2.342   6.467   8.413  0.0820 -0.2086  0.2089
    3DOPE   H2R  283   2.314   6.573   8.436 -1.0110  0.2229 -2.7366
    3DOPE   H2S  284   2.257   6.401   8.441  1.6953 -1.6327  2.0654
    3DOPE    C3  285   2.550   6.073   8.552  0.3217 -0.1060 -0.1017
    3DOPE    HX  286   2.460   6.032   8.602 -1.0028  2.1609 -0.5007
    3DOPE    HY  287   2.642   6.034   8.601 -0.3526  0.1282  1.3779
    3DOPE   O31  288   2.541   6.036   8.411  0.5828 -0.0306 -0.2938
    3DOPE   C31  289   2.546   5.908   8.374 -0.3231  0.1099 -0.0195
    3DOPE   O32  290   2.544   5.812   8.453  0.1143 -0.1469  0.0418
    3DOPE   C32  291   2.544   5.888   8.223  0.4205 -0.3326 -0.1889
    3DOPE   H2X  292   2.510   5.784   8.201 -0.2109  0.3902 -2.9564
    3DOPE   H2Y  293   2.454   5.940   8.185  1.0228 -0.6727 -2.2207
    3DOPE   C23  294   2.369   6.468   8.260 -0.1451 -0.0491  0.1856
    3DOPE   H3R  295   2.475   6.498   8.242  0.8012 -3.3323 -0.5153
    3DOPE   H3S  296   2.314   6.554   8.217  1.6309  1.6145  1.0762
    3DOPE   C24  297   2.345   6.336   8.191  0.6723  0.2690  0.0946
    3DOPE   H4R  298   2.239   6.314   8.217  0.0899  2.4606 -0.1711
    3DOPE   H4S  299   2.413   6.264   8.241  0.9836  0.2983 -0.2852
    3DOPE   C25  300   2.377   6.325   8.047  0.7287  0.0933  0.4213
    3DOPE   H5R  301   2.485   6.350   8.037  0.7278  0.7874  1.8478
    3DOPE   H5S  302   2.321   6.392   7.979  1.7211 -2.3423 -3.0679
    3DOPE   C26  303   2.350   6.185   7.990 -0.0276  0.1177  0.0721
    3DOPE   H6R  304   2.251   6.155   8.031 -0.5471  0.3986 -0.9505
    3DOPE   H6S  305   2.427   6.116   8.031 -0.3472 -1.5774 -2.0089
    3DOPE   C27  306   2.355   6.183   7.836  0.1032 -0.0517 -0.1989
    3DOPE   H7R  307   2.452   6.217   7.794  0.6238 -0.3691  0.7450
    3DOPE   H7S  308   2.276   6.257   7.808  1.5248  1.3763 -0.5726
    3DOPE   C28  309   2.326   6.036   7.787 -0.6207  0.6460 -0.2257
    3DOPE   H8R  310   2.293   6.038   7.681 -1.7246  1.2671  0.1151
    3DOPE   H8S  311   2.244   5.997   7.851 -1.0429 -0.3214 -1.3129
    3DOPE   C29  312   2.449   5.944   7.801  0.3802 -0.1004 -0.0523
    3DOPE   H9R  313   2.471   5.893   7.896 -1.9042 -1.0678  0.0112
    3DOPE  C210  314   2.535   5.913   7.700  0.4392  0.2903 -0.0940
    3DOPE  H10R  315   2.620   5.845   7.720  0.6422  0.8242  0.9077
    3DOPE  C211  316   2.514   5.961   7.554  0.7451 -0.2972 -0.7207
    3DOPE  H11R  317   2.517   6.070   7.535  0.7336 -0.5599 -2.3728
    3DOPE  H11S  318   2.417   5.934   7.509 -0.4882  1.2344  0.8587
    3DOPE  C212  319   2.617   5.894   7.458 -0.1100 -0.1456 -0.2731
    3DOPE  H12R  320   2.621   5.785   7.478 -1.4736 -0.0744  0.4757
    3DOPE  H12S  321   2.721   5.923   7.484 -0.1109 -2.2983  2.6397
    3DOPE  C213  322   2.599   5.925   7.311 -0.0020 -0.6176 -0.0344
    3DOPE  H13R  323   2.602   6.033   7.286 -0.0664 -0.7039 -0.4251
    3DOPE  H13S  324   2.496   5.898   7.279 -0.4456  2.0950 -1.2226
    3DOPE  C214  325   2.696   5.842   7.227  0.0589 -0.5627 -0.1812
    3DOPE  H14R  326   2.658   5.738   7.231 -0.7483 -0.3164 -1.0356
    3DOPE  H14S  327   2.801   5.843   7.263  1.5153 -1.5265 -3.8561
    3DOPE  C215  328   2.699   5.892   7.078  0.1476 -0.3043  0.4051
    3DOPE  H15R  329   2.713   6.001   7.069 -2.2302 -0.0882 -1.6695
    3DOPE  H15S  330   2.600   5.874   7.032 -0.7155  3.6334  0.3782
    3DOPE  C216  331   2.803   5.813   6.997 -0.0988  0.0146 -0.1821
    3DOPE  H16R  332   2.755   5.715   6.975 -2.0395  0.8509  0.1938
    3DOPE  H16S  333   2.897   5.806   7.057  2.7868  1.7957 -4.0531
    3DOPE  C217  334   2.832   5.875   6.858  0.5623  0.2879  0.4048
    3DOPE  H17R  335   2.896   5.965   6.875  2.4526 -0.6500 -1.3665
    3DOPE  H17S  336   2.743   5.904   6.799 -0.1517 -0.0665  1.2828
    3DOPE  C218  337   2.914   5.775   6.774 -0.0316  0.1217  0.2126
    3DOPE  H18R  338   2.951   5.826   6.683  0.5800 -0.2926  0.2238
    3DOPE  H18S  339   2.853   5.686   6.748  0.0190 -0.2199  1.1945
    3DOPE  H18T  340   3.000   5.742   6.836  2.0160  2.1731 -1.3472
    3DOPE   C33  341   2.678   5.926   8.153  0.5411 -0.2523 -0.3426
    3DOPE   H3X  342   2.707   6.016   8.210  1.2258  0.0318 -1.1296
    3DOPE   H3Y  343   2.641   5.946   8.050 -3.3117 -1.3735  0.6356
    3DOPE   C34  344   2.780   5.818   8.150 -1.0662 -0.1673 -0.7926
    3DOPE   H4X  345   2.789   5.778   8.253 -2.7505 -0.3653 -0.6913
    3DOPE   H4Y  346   2.739   5.731   8.094  1.3642 -2.2830  0.5304
    3DOPE   C35  347   2.918   5.845   8.085  0.1810 -0.3253  0.2911
    3DOPE   H5X  348   2.996   5.769   8.106 -0.2206 -1.0286 -0.6744
    3DOPE   H5Y  349   2.964   5.936   8.128  1.2798 -1.7988  2.3776
    3DOPE   C36  350   2.926   5.874   7.936  0.1220  0.1989  0.1569
    3DOPE   H6X  351   3.033   5.869   7.907  0.3061 -1.1308  0.9940
    3DOPE   H6Y  352   2.891   5.976   7.908 -0.2679  0.8424  2.7120
    3DOPE   C37  353   2.858   5.765   7.855  0.0223  0.7257  0.7969
    3DOPE   H7X  354   2.867   5.661   7.893 -0.4680  0.1671 -0.5604
    3DOPE   H7Y  355   2.751   5.793   7.862  0.3281  1.6637  1.9687
    3DOPE   C38  356   2.900   5.774   7.710  0.2836 -0.0212 -0.0220
    3DOPE   H8X  357   2.906   5.883   7.690 -3.0285  0.5704  1.5193
    3DOPE   H8Y  358   2.813   5.721   7.665 -0.7360  3.6061 -2.7754
    3DOPE   C39  359   3.031   5.704   7.665  0.1856 -0.8628 -0.2357
    3DOPE   H9X  360   3.121   5.731   7.722 -2.5283  4.0130  2.3908
    3DOPE  C310  361   3.042   5.598   7.583 -0.3237 -0.3739 -0.0858
    3DOPE  H10X  362   3.143   5.561   7.563  0.1133  0.0357  1.2886
    3DOPE  C311  363   2.925   5.538   7.509 -0.1090  0.3006 -0.1816
    3DOPE  H11X  364   2.930   5.430   7.536 -2.1716 -0.2954 -1.9147
    3DOPE  H11Y  365   2.824   5.554   7.553  0.4970 -0.4352  1.5837
    3DOPE  C312  366   2.922   5.552   7.356 -0.4354 -0.1103 -0.9026
    3DOPE  H12X  367   3.025   5.546   7.315  0.6683  2.1778  1.2789
    3DOPE  H12Y  368   2.890   5.655   7.330 -2.1007 -0.5366 -0.6416
    3DOPE  C313  369   2.832   5.445   7.287  0.8509  0.1105 -0.1562
    3DOPE  H13X  370   2.870   5.343   7.309  1.7781  0.4010 -0.3415
    3DOPE  H13Y  371   2.731   5.454   7.331  1.0359 -3.9926  1.4967
    3DOPE  C314  372   2.822   5.471   7.137  0.8013 -0.0008 -0.1050
    3DOPE  H14X  373   2.924   5.482   7.093  2.0998  0.7357  2.8841
    3DOPE  H14Y  374   2.777   5.573   7.129  0.2484 -0.3142 -1.3751
    3DOPE  C315  375   2.729   5.372   7.063 -0.5568 -0.2131 -0.6739
    3DOPE  H15X  376   2.626   5.379   7.104 -1.4360  1.1066 -2.9429
    3DOPE  H15Y  377   2.779   5.272   7.065 -0.2809 -0.1309  2.5830
    3DOPE  C316  378   2.725   5.413   6.918  1.1580 -0.5117  0.7562
    3DOPE  H16X  379   2.824   5.398   6.870  0.1416  1.2081 -2.1056
    3DOPE  H16Y  380   2.692   5.519   6.922  1.6409 -0.1958 -1.8032
    3DOPE  C317  381   2.625   5.330   6.834 -0.4838 -0.4646  0.3643
    3DOPE  H17X  382   2.631   5.224   6.867  2.3914 -0.2242  0.7930
    3DOPE  H17Y  383   2.525   5.372   6.857  0.8144  1.9060  2.0093
    3DOPE  C318  384   2.645   5.345   6.685 -0.5215 -0.1483  0.2816
    3DOPE  H18X  385   2.591   5.270   6.624  0.1440 -0.6741  0.3270
    3DOPE  H18Y  386   2.614   5.446   6.650 -0.8274 -0.2588  0.2283
    3DOPE  H18Z  387   2.751   5.331   6.655 -0.5272  1.5973 -0.7038
    4DOPE     N  388   3.769   2.484   8.545  0.4027  0.2311 -0.0509
    4DOPE   HN1  389   3.708   2.525   8.618  2.5724  1.4917  1.1442
    4DOPE   HN2  390   3.842   2.418   8.578  1.3443  1.5399  0.5501
    4DOPE   HN3  391   3.818   2.569   8.509  0.6361  0.0027 -0.2747
    4DOPE   C12  392   3.681   2.410   8.445  0.2995  0.0778 -0.6029
    4DOPE  H12A  393   3.623   2.333   8.500 -0.4777  0.4853 -0.8466
    4DOPE  H12B  394   3.746   2.360   8.370  0.0137  0.1339 -0.8882
    4DOPE   C11  395   3.580   2.499   8.378  0.5568 -0.4222 -0.8357
    4DOPE  H11A  396   3.539   2.429   8.302  1.8831  0.3047 -2.2702
    4DOPE  H11B  397   3.621   2.591   8.333 -0.4715 -0.2922 -1.5449
    4DOPE     P  398   3.452   2.679   8.541 -0.4137 -0.0101 -0.6054
    4DOPE   O13  399   3.563   2.723   8.639  0.4956  0.8714  0.5027
    4DOPE   O14  400   3.318   2.661   8.598  0.8062  0.0270 -0.1161
    4DOPE   O11  401   3.444   2.771   8.414  0.1985  0.3633 -0.3095
    4DOPE   O12  402   3.489   2.539   8.481  0.2738 -0.3583  1.0296
    4DOPE    C1  403   3.347   2.748   8.311 -0.2346  0.1585 -0.0718
    4DOPE    HA  404   3.243   2.748   8.349  0.0859 -1.8969  0.9356
    4DOPE    HB  405   3.363   2.649   8.263 -0.1645 -0.2769  0.8353
    4DOPE    C2  406   3.356   2.854   8.199 -0.3299  0.2808 -0.4256
    4DOPE    HS  407   3.307   2.808   8.110 -0.5989 -1.3616  0.5285
    4DOPE   O21  408   3.501   2.885   8.178 -0.0742 -0.3079 -0.7459
    4DOPE   C21  409   3.559   2.792   8.122 -0.5391 -0.6310  0.5717
    4DOPE   O22  410   3.511   2.691   8.080 -0.2339  0.4945 -0.1880
    4DOPE   C22  411   3.710   2.815   8.117  0.6001 -0.6203  0.5015
    4DOPE   H2R  412   3.760   2.786   8.212 -0.0038  1.0016  1.3564
    4DOPE   H2S  413   3.721   2.924   8.097  1.8424 -1.2224 -2.7276
    4DOPE    C3  414   3.281   2.980   8.237 -0.3617  0.7119  0.6588
    4DOPE    HX  415   3.352   3.051   8.286  0.8394  0.7546 -1.0490
    4DOPE    HY  416   3.207   2.952   8.315 -0.0873 -1.6602  0.1260
    4DOPE   O31  417   3.208   3.022   8.116 -0.2710 -0.5492 -0.5734
    4DOPE   C31  418   3.159   3.147   8.114 -0.5183  0.0552  0.2113
    4DOPE   O32  419   3.164   3.229   8.201 -0.0619  0.2162 -0.1856
    4DOPE   C32  420   3.086   3.180   7.974  0.7917 -0.9706  0.2129
    4DOPE   H2X  421   3.161   3.243   7.922  1.1402 -0.4482  1.3219
    4DOPE   H2Y  422   3.081   3.083   7.921  0.6584 -1.6047  1.3560
    4DOPE   C23  423   3.777   2.743   7.996  0.3049 -0.6233 -0.0500
    4DOPE   H3R  424   3.729   2.769   7.899  2.8144  1.3864 -0.8685
    4DOPE   H3S  425   3.778   2.634   8.012 -0.1782 -0.7888 -1.0510
    4DOPE   C24  426   3.915   2.800   7.982 -0.0200 -0.2607 -0.0118
    4DOPE   H4R  427   3.976   2.770   8.069  0.4070  1.7653  0.4348
    4DOPE   H4S  428   3.915   2.911   7.980 -0.6884 -0.2116  1.6788
    4DOPE   C25  429   3.984   2.757   7.853 -0.6607 -0.1326  0.1741
    4DOPE   H5R  430   3.922   2.782   7.764  0.6166 -2.3356 -1.4565
    4DOPE   H5S  431   3.977   2.646   7.851  0.4352 -0.2169  0.3683
    4DOPE   C26  432   4.129   2.815   7.840  0.1626  0.2311  0.6702
    4DOPE   H6R  433   4.172   2.786   7.938 -0.8506 -1.2445  0.7230
    4DOPE   H6S  434   4.114   2.924   7.823  0.2678  0.0270 -0.9024
    4DOPE   C27  435   4.192   2.751   7.722  0.0631  0.4276  0.6159
    4DOPE   H7R  436   4.172   2.816   7.634 -1.5273 -0.5519  0.2158
    4DOPE   H7S  437   4.141   2.657   7.692  1.1034  0.3154 -0.8971
    4DOPE   C28  438   4.343   2.724   7.752  0.0110 -0.2616 -0.1793
    4DOPE   H8R  439   4.394   2.648   7.688  0.5969 -0.9408  1.0604
    4DOPE   H8S  440   4.345   2.677   7.853  1.2291  1.3313  0.5793
    4DOPE   C29  441   4.437   2.841   7.765  0.5002  0.3851  0.1689
    4DOPE   H9R  442   4.456   2.879   7.866  0.7635 -1.1816  0.7330
    4DOPE  C210  443   4.472   2.918   7.662 -0.0992  0.1810  0.5487
    4DOPE  H10R  444   4.539   3.002   7.685  0.9717 -0.0668 -1.4239
    4DOPE  C211  445   4.436   2.907   7.514  0.2346  0.6497  0.1638
    4DOPE  H11R  446   4.423   3.010   7.474 -0.5203  1.3176  1.9979
    4DOPE  H11S  447   4.337   2.859   7.498  1.3847 -2.0127  0.5521
    4DOPE  C212  448   4.536   2.823   7.435  0.8272 -0.5216 -0.2934
    4DOPE  H12R  449   4.506   2.807   7.330 -0.8337 -0.5318  0.1554
    4DOPE  H12S  450   4.556   2.717   7.460  0.0817 -0.3606  1.1342
    4DOPE  C213  451   4.676   2.884   7.432  0.2116 -0.0283 -0.9526
    4DOPE  H13R  452   4.744   2.819   7.373  0.7868 -3.1757  2.7886
    4DOPE  H13S  453   4.710   2.881   7.538 -0.8333  0.7517 -0.5697
    4DOPE  C214  454   4.680   3.029   7.367 -0.3245  0.2083 -0.2586
    4DOPE  H14R  455   4.633   3.101   7.437 -2.6851  0.1033 -1.6289
    4DOPE  H14S  456   4.625   3.024   7.271 -2.0334  1.3972  0.5926
    4DOPE  C215  457   4.828   3.079   7.367 -0.0974  0.1035 -1.0275
    4DOPE  H15R  458   4.877   3.054   7.463  1.4375  0.1007 -1.7847
    4DOPE  H15S  459   4.831   3.190   7.365 -2.2717  0.2304 -0.3856
    4DOPE  C216  460   4.915   3.016   7.260 -0.1813 -1.1637  0.5128
    4DOPE  H16R  461   4.874   3.044   7.161  0.3377 -1.3110  0.2524
    4DOPE  H16S  462   4.910   2.905   7.251  0.7668 -1.1667 -0.1853
    4DOPE  C217  463   5.060   3.070   7.258  0.7721 -0.3774  0.2897
    4DOPE  H17R  464   5.085   3.083   7.365 -1.0494 -1.5541  0.9247
    4DOPE  H17S  465   5.062   3.172   7.216  0.1020 -0.9037 -1.0912
    4DOPE  C218  466   5.156   2.988   7.178 -0.6835 -0.3445 -0.2026
    4DOPE  H18R  467   5.155   2.881   7.208  0.5581  0.0976  1.5973
    4DOPE  H18S  468   5.259   3.029   7.188 -0.6328 -0.3331 -0.7613
    4DOPE  H18T  469   5.126   2.990   7.071 -0.0576 -0.0108 -0.3772
    4DOPE   C33  470   2.963   3.252   7.990 -0.1933  0.0220  0.7744
    4DOPE   H3X  471   2.978   3.348   8.044  0.8733  0.4254 -0.1848
    4DOPE   H3Y  472   2.898   3.203   8.066 -0.7099  2.0394  1.7060
    4DOPE   C34  473   2.892   3.270   7.859  0.0508  0.1731 -0.1873
    4DOPE   H4X  474   2.936   3.346   7.789 -2.4027  0.6269 -1.3516
    4DOPE   H4Y  475   2.897   3.172   7.807  0.6904 -1.8914  3.4434
    4DOPE   C35  476   2.743   3.301   7.877  0.2758 -0.0953 -0.2086
    4DOPE   H5X  477   2.735   3.404   7.917 -0.1542  0.1721 -0.9633
    4DOPE   H5Y  478   2.708   3.231   7.956 -2.1140 -0.1504 -1.2333
    4DOPE   C36  479   2.653   3.286   7.751 -0.4019  0.4960 -0.5628
    4DOPE   H6X  480   2.551   3.307   7.789 -0.7748 -2.2322  0.2213
    4DOPE   H6Y  481   2.652   3.179   7.718  2.4431  0.1964  0.0568
    4DOPE   C37  482   2.687   3.378   7.645  0.7940  0.3777 -0.0793
    4DOPE   H7X  483   2.684   3.480   7.689  1.5907  0.2962  0.1911
    4DOPE   H7Y  484   2.796   3.381   7.621  1.2948  0.1884  1.9753
    4DOPE   C38  485   2.598   3.349   7.518 -0.5571  0.4591 -0.6221
    4DOPE   H8X  486   2.492   3.337   7.552 -0.4477  2.0900  0.4004
    4DOPE   H8Y  487   2.632   3.250   7.480  0.3927  1.0266 -1.2914
    4DOPE   C39  488   2.604   3.462   7.421  0.1347  0.0513 -0.1070
    4DOPE   H9X  489   2.543   3.550   7.445 -2.5893 -0.9200 -2.8417
    4DOPE  C310  490   2.679   3.461   7.310  0.0822 -0.7325  0.5607
    4DOPE  H10X  491   2.680   3.559   7.259 -2.0460 -0.4318  1.0224
    4DOPE  C311  492   2.778   3.357   7.263  0.2686  0.3062 -0.8779
    4DOPE  H11X  493   2.726   3.259   7.267 -0.4963  0.7230 -0.3878
    4DOPE  H11Y  494   2.806   3.377   7.157 -0.2744 -0.9579 -1.2794
    4DOPE  C312  495   2.900   3.344   7.352 -0.7639  0.0040  0.0373
    4DOPE  H12X  496   2.951   3.266   7.291 -2.1528  0.2910 -1.5389
    4DOPE  H12Y  497   2.885   3.299   7.453 -2.1787 -1.2120 -0.6809
    4DOPE  C313  498   2.980   3.471   7.366 -1.1855  1.0982 -0.4054
    4DOPE  H13X  499   3.005   3.511   7.266 -0.6400 -0.5503 -0.9583
    4DOPE  H13Y  500   2.915   3.543   7.420 -1.3981  0.3151  0.4069
    4DOPE  C314  501   3.110   3.442   7.438 -0.7631 -0.4572 -0.0315
    4DOPE  H14X  502   3.164   3.361   7.384 -0.0500 -0.5783  0.8570
    4DOPE  H14Y  503   3.098   3.400   7.540  1.1485  2.6973  1.6421
    4DOPE  C315  504   3.192   3.567   7.460  0.1622  0.1190 -0.0907
    4DOPE  H15X  505   3.120   3.651   7.475 -0.6511 -0.1018 -2.4415
    4DOPE  H15Y  506   3.248   3.593   7.368  0.2842 -0.5821 -0.2150
    4DOPE  C316  507   3.287   3.560   7.580 -0.4043 -0.4429 -0.6869
    4DOPE  H16X  508   3.352   3.647   7.601  0.6174 -1.1936 -0.6316
    4DOPE  H16Y  509   3.351   3.473   7.554 -1.1329 -0.7297 -1.5757
    4DOPE  C317  510   3.224   3.526   7.718 -0.9037 -0.3951 -1.0968
    4DOPE  H17X  511   3.186   3.423   7.704 -2.1005 -0.2604  0.8257
    4DOPE  H17Y  512   3.305   3.533   7.793  0.0337  0.8652 -2.1695
    4DOPE  C318  513   3.099   3.603   7.754 -0.3286 -0.2850 -0.1406
    4DOPE  H18X  514   3.016   3.578   7.684 -0.2452 -0.0340 -0.3301
    4DOPE  H18Y  515   3.061   3.577   7.855  0.0369 -0.0356  0.0597
    4DOPE  H18Z  516   3.121   3.712   7.745 -2.7272  0.1784 -1.5571
    5DOPE     N  517   1.220   4.948   8.870  0.0568  0.4500 -0.4717
    5DOPE   HN1  518   1.171   5.037   8.893  0.2658  0.0579  1.7420
    5DOPE   HN2  519   1.184   4.911   8.781 -1.1778 -0.7153  0.4734
    5DOPE   HN3  520   1.184   4.887   8.947 -0.5660  0.1640 -0.9807
    5DOPE   C12  521   1.369   4.962   8.868  0.1106  0.5349  1.2746
    5DOPE  H12A  522   1.393   5.010   8.771  0.7433 -0.0557  1.1300
    5DOPE  H12B  523   1.402   4.856   8.869 -0.6975  0.2660  0.4255
    5DOPE   C11  524   1.417   5.033   8.992 -0.7123 -0.1064 -0.2284
    5DOPE  H11A  525   1.526   5.048   8.979 -0.6395 -0.9413 -0.6838
    5DOPE  H11B  526   1.406   4.956   9.072 -0.1431 -1.1436 -1.1104
    5DOPE     P  527   1.397   5.300   8.996  0.0488  0.0469  0.1204
    5DOPE   O13  528   1.539   5.298   9.039  0.4516 -0.7815 -0.2451
    5DOPE   O14  529   1.311   5.399   9.067 -0.4362 -0.2291  0.1298
    5DOPE   O11  530   1.378   5.327   8.840  0.2209  0.6408 -0.8095
    5DOPE   O12  531   1.339   5.153   9.024  0.0683  0.1058  0.3580
    5DOPE    C1  532   1.247   5.344   8.782 -0.5304 -0.5132 -0.4296
    5DOPE    HA  533   1.174   5.398   8.846 -0.0849 -0.3463 -0.0607
    5DOPE    HB  534   1.210   5.241   8.766  2.4644 -1.9535  1.1127
    5DOPE    C2  535   1.257   5.423   8.646  1.6293  0.3566  0.4401
    5DOPE    HS  536   1.151   5.445   8.622  1.0445 -1.0664  1.6002
    5DOPE   O21  537   1.312   5.352   8.534  0.0737  0.3519  0.2986
    5DOPE   C21  538   1.228   5.252   8.490 -0.2821  0.1707 -0.5962
    5DOPE   O22  539   1.128   5.210   8.547 -0.0674  0.5521 -0.3071
    5DOPE   C22  540   1.268   5.205   8.350  0.2286  0.1712  0.4716
    5DOPE   H2R  541   1.337   5.275   8.298 -0.9718  1.7280  0.8944
    5DOPE   H2S  542   1.180   5.186   8.286  1.3339  0.4188 -1.1890
    5DOPE    C3  543   1.316   5.562   8.651  0.3649  0.0595  0.2670
    5DOPE    HX  544   1.414   5.559   8.703  1.0117 -1.1129 -0.9427
    5DOPE    HY  545   1.242   5.621   8.708 -0.6886 -1.2567  0.3191
    5DOPE   O31  546   1.323   5.613   8.518 -0.4350  0.0405 -0.2269
    5DOPE   C31  547   1.337   5.747   8.506  0.5213  0.3866 -0.0342
    5DOPE   O32  548   1.337   5.826   8.604 -0.0381 -0.2001  0.0758
    5DOPE   C32  549   1.335   5.798   8.358  0.0692 -0.0231 -0.4283
    5DOPE   H2X  550   1.248   5.868   8.364 -0.8527 -1.2570  1.8115
    5DOPE   H2Y  551   1.425   5.862   8.348 -0.3039  0.7209  0.8020
    5DOPE   C23  552   1.346   5.070   8.348 -0.1757 -0.8622  0.1313
    5DOPE   H3R  553   1.299   5.003   8.423  0.9977 -1.6195  0.2154
    5DOPE   H3S  554   1.450   5.094   8.379 -1.0495  0.9804  1.8788
    5DOPE   C24  555   1.359   5.004   8.211  0.3469 -0.0122  0.3855
    5DOPE   H4R  556   1.258   4.970   8.179 -1.0153  1.4782  2.7561
    5DOPE   H4S  557   1.427   4.917   8.217  0.4281  0.0543  0.4262
    5DOPE   C25  558   1.389   5.105   8.105 -0.1406 -0.6912  0.3677
    5DOPE   H5R  559   1.444   5.190   8.149  0.7602  0.5272 -2.8184
    5DOPE   H5S  560   1.294   5.154   8.074  0.8705  0.3678 -1.2342
    5DOPE   C26  561   1.451   5.036   7.982 -0.1687 -0.2162 -0.1010
    5DOPE   H6R  562   1.463   5.113   7.902  0.8047  1.2646  1.3966
    5DOPE   H6S  563   1.381   4.960   7.940 -1.2886 -0.0618  1.4165
    5DOPE   C27  564   1.581   4.962   8.006 -0.6651 -0.1014 -0.4264
    5DOPE   H7R  565   1.567   4.874   8.073 -2.2303 -0.5934 -1.3367
    5DOPE   H7S  566   1.661   5.022   8.054  0.7794 -0.9071 -1.7674
    5DOPE   C28  567   1.637   4.900   7.878 -0.3958 -0.3208 -0.2789
    5DOPE   H8R  568   1.576   4.812   7.848  0.8470 -2.6405  3.2756
    5DOPE   H8S  569   1.735   4.853   7.901 -0.8141 -0.1649  1.9868
    5DOPE   C29  570   1.649   4.989   7.756  0.0309  0.4973  0.0389
    5DOPE   H9R  571   1.700   5.085   7.774 -1.8396  1.4481  0.4590
    5DOPE  C210  572   1.618   4.970   7.625 -0.4133  0.1595 -0.1421
    5DOPE  H10R  573   1.643   5.050   7.554 -2.6471  1.2533  0.2217
    5DOPE  C211  574   1.575   4.841   7.563 -0.1722  0.2057 -0.0900
    5DOPE  H11R  575   1.465   4.836   7.570 -0.4428  2.6397 -1.4755
    5DOPE  H11S  576   1.607   4.753   7.623 -0.5051 -0.5652 -1.0110
    5DOPE  C212  577   1.617   4.823   7.411  0.1529 -0.1294 -0.1334
    5DOPE  H12R  578   1.575   4.728   7.374 -0.0268 -0.0329 -0.1751
    5DOPE  H12S  579   1.727   4.841   7.410 -0.1241  1.9871  0.9871
    5DOPE  C213  580   1.549   4.936   7.330  1.3290 -0.6783 -0.6585
    5DOPE  H13R  581   1.604   5.026   7.363 -0.1940 -0.3431  1.1295
    5DOPE  H13S  582   1.445   4.947   7.367  1.2034 -1.0385 -0.9011
    5DOPE  C214  583   1.556   4.919   7.186  0.7757  0.1638 -0.1087
    5DOPE  H14R  584   1.664   4.924   7.161  0.9533  1.7646  0.8538
    5DOPE  H14S  585   1.510   5.009   7.141  0.3543  0.6780  1.2804
    5DOPE  C215  586   1.490   4.794   7.124 -0.3292  0.0921  0.0347
    5DOPE  H15R  587   1.400   4.756   7.178  0.3733 -0.0163  1.1409
    5DOPE  H15S  588   1.569   4.716   7.123 -0.9466 -0.5729  1.0885
    5DOPE  C216  589   1.449   4.823   6.977 -0.0832  0.2027  0.0418
    5DOPE  H16R  590   1.545   4.820   6.921 -0.5472  2.1071 -0.9426
    5DOPE  H16S  591   1.399   4.922   6.973  1.1411  0.8988  1.1433
    5DOPE  C217  592   1.349   4.716   6.934  0.7147 -0.8635  0.5360
    5DOPE  H17R  593   1.273   4.717   7.015 -0.2123 -0.1866 -0.3180
    5DOPE  H17S  594   1.401   4.618   6.934 -0.2065 -1.3780  1.7563
    5DOPE  C218  595   1.292   4.752   6.792 -0.3228 -0.1833  0.3901
    5DOPE  H18R  596   1.252   4.856   6.785  1.5135  0.4729 -2.1597
    5DOPE  H18S  597   1.204   4.687   6.770 -1.2364  0.4646  1.9406
    5DOPE  H18T  598   1.358   4.743   6.703 -1.0535 -0.7297 -0.1149
    5DOPE   C33  599   1.350   5.695   8.251  0.4498  0.3000  0.3101
    5DOPE   H3X  600   1.425   5.614   8.270  0.7210  0.3224 -0.6252
    5DOPE   H3Y  601   1.398   5.750   8.168  1.2254  1.2197  1.3391
    5DOPE   C34  602   1.220   5.627   8.207  0.3071  0.7027  0.3768
    5DOPE   H4X  603   1.169   5.588   8.298 -0.5907 -0.6496 -0.6668
    5DOPE   H4Y  604   1.158   5.709   8.166  0.9248  0.6800 -0.6254
    5DOPE   C35  605   1.237   5.527   8.091 -0.6164  0.3929  0.2957
    5DOPE   H5X  606   1.138   5.492   8.056 -0.7288 -1.2418  2.1164
    5DOPE   H5Y  607   1.296   5.440   8.127  0.2326  1.0445  0.5314
    5DOPE   C36  608   1.322   5.580   7.968 -0.0324 -0.4506 -0.2449
    5DOPE   H6X  609   1.430   5.576   7.995  0.0494  0.3963 -0.4083
    5DOPE   H6Y  610   1.296   5.687   7.951  1.3360  0.1409  1.1882
    5DOPE   C37  611   1.301   5.510   7.831  0.2109 -0.1431 -0.3776
    5DOPE   H7X  612   1.200   5.536   7.792 -1.0246 -0.7785  2.1941
    5DOPE   H7Y  613   1.372   5.568   7.769 -0.2661  0.4279 -0.3983
    5DOPE   C38  614   1.319   5.357   7.827 -0.0519  0.7985 -0.1162
    5DOPE   H8X  615   1.225   5.312   7.866  0.1621  2.7954  3.0760
    5DOPE   H8Y  616   1.408   5.320   7.882 -1.6378 -0.6587  1.5903
    5DOPE   C39  617   1.347   5.316   7.680  0.8334 -0.5845 -0.7944
    5DOPE   H9X  618   1.449   5.330   7.641  0.5575 -1.2358 -1.7870
    5DOPE  C310  619   1.255   5.261   7.601  0.2303 -0.4967  0.2420
    5DOPE  H10X  620   1.287   5.246   7.497 -1.7679  0.3698 -0.5320
    5DOPE  C311  621   1.111   5.240   7.629 -0.8283 -0.2065  0.1565
    5DOPE  H11X  622   1.088   5.132   7.618 -0.6888 -0.2117 -0.0887
    5DOPE  H11Y  623   1.090   5.258   7.737  2.0156 -0.1205  0.7772
    5DOPE  C312  624   1.013   5.315   7.528 -0.7710  0.1782 -0.0077
    5DOPE  H12X  625   1.059   5.415   7.514 -0.6283  0.1576  0.3118
    5DOPE  H12Y  626   0.910   5.329   7.567 -0.1896  1.2406  1.2165
    5DOPE  C313  627   1.005   5.258   7.387 -0.1693 -0.6271 -0.0685
    5DOPE  H13X  628   0.945   5.324   7.321  1.5087 -0.7902 -1.8211
    5DOPE  H13Y  629   1.108   5.269   7.349 -0.0606 -0.4895  0.2637
    5DOPE  C314  630   0.982   5.109   7.371  0.0183 -0.3762 -0.1102
    5DOPE  H14X  631   0.890   5.073   7.420 -0.3325  0.6418  0.0162
    5DOPE  H14Y  632   1.073   5.054   7.403  0.0200 -0.9320 -1.0223
    5DOPE  C315  633   0.968   5.073   7.228  0.4188 -0.5055 -0.5701
    5DOPE  H15X  634   1.042   5.128   7.166 -0.9307  0.4302 -1.4037
    5DOPE  H15Y  635   0.870   5.103   7.185  0.4246  0.4320  0.0413
    5DOPE  C316  636   0.971   4.919   7.212 -0.1026  0.0486 -0.0515
    5DOPE  H16X  637   0.869   4.882   7.234 -0.1061 -1.4087 -2.2006
    5DOPE  H16Y  638   1.043   4.873   7.283 -0.3645  0.4741  0.5040
    5DOPE  C317  639   0.995   4.874   7.067  0.7930  0.2592  0.0970
    5DOPE  H17X  640   1.089   4.922   7.031  1.9459 -1.2779  0.9392
    5DOPE  H17Y  641   1.021   4.766   7.061  1.7106  0.5261 -1.0741
    5DOPE  C318  642   0.873   4.881   6.975 -0.4197 -0.1386  0.2619
    5DOPE  H18X  643   0.891   4.839   6.873 -2.9734  0.3888 -0.4684
    5DOPE  H18Y  644   0.787   4.830   7.023 -1.2661 -2.2465 -3.0874
    5DOPE  H18Z  645   0.857   4.990   6.963  0.9459  0.1088  0.5640
    6DOPE     N  646   1.557   6.107   8.569 -0.4517  0.2201 -0.3446
    6DOPE   HN1  647   1.615   6.039   8.516  1.3288  1.5087 -0.1490
    6DOPE   HN2  648   1.618   6.191   8.572  0.3805 -0.3060 -1.7010
    6DOPE   HN3  649   1.540   6.084   8.669 -0.1163  2.5086  0.3000
    6DOPE   C12  650   1.422   6.137   8.512  0.1543 -0.6454  0.2900
    6DOPE  H12A  651   1.353   6.052   8.528 -1.6441  0.1368 -2.6009
    6DOPE  H12B  652   1.438   6.155   8.404 -0.9825  0.1315  0.2219
    6DOPE   C11  653   1.361   6.265   8.575 -0.3751  0.3673 -0.0060
    6DOPE  H11A  654   1.339   6.240   8.681 -0.3922  1.6021  0.2946
    6DOPE  H11B  655   1.265   6.291   8.525 -0.4108 -1.2531 -0.8503
    6DOPE     P  656   1.413   6.513   8.622 -0.0820 -0.1785  0.1001
    6DOPE   O13  657   1.496   6.564   8.731  0.0762 -0.1336 -0.2697
    6DOPE   O14  658   1.266   6.508   8.645 -0.1914  0.0386 -0.0662
    6DOPE   O11  659   1.439   6.597   8.487  0.4002 -0.7223 -0.1195
    6DOPE   O12  660   1.458   6.372   8.568  0.0269  0.2786 -0.0792
    6DOPE    C1  661   1.343   6.672   8.421  0.7546 -0.1247 -0.1210
    6DOPE    HA  662   1.383   6.776   8.413  0.3321  0.1761  1.3993
    6DOPE    HB  663   1.240   6.681   8.462  0.7044  0.8522 -0.4294
    6DOPE    C2  664   1.324   6.623   8.275 -0.9638  0.1541 -0.1105
    6DOPE    HS  665   1.249   6.685   8.221  0.4303  0.7368 -1.4789
    6DOPE   O21  666   1.295   6.483   8.276  0.1494  0.1067  0.3332
    6DOPE   C21  667   1.169   6.455   8.268  0.1328 -0.0497  0.5758
    6DOPE   O22  668   1.071   6.535   8.253 -0.7554  0.3512 -0.2104
    6DOPE   C22  669   1.152   6.307   8.234 -0.0927  0.2997  0.3932
    6DOPE   H2R  670   1.042   6.294   8.233 -0.3868  2.2537 -1.8642
    6DOPE   H2S  671   1.178   6.246   8.323 -1.3306 -1.1786 -0.2259
    6DOPE    C3  672   1.453   6.648   8.199  0.2830 -0.3391  0.0218
    6DOPE    HX  673   1.540   6.597   8.245  0.7598  1.3410  1.0666
    6DOPE    HY  674   1.463   6.758   8.213 -2.1039 -0.3119  2.3639
    6DOPE   O31  675   1.438   6.640   8.061 -0.2662  0.2460 -0.1656
    6DOPE   C31  676   1.482   6.532   8.002  0.8144  0.1266  0.9990
    6DOPE   O32  677   1.532   6.436   8.056  0.0321 -0.4404  0.0227
    6DOPE   C32  678   1.436   6.539   7.852 -0.1770 -0.2484  0.2786
    6DOPE   H2X  679   1.327   6.554   7.837  0.2486  2.2104 -0.8825
    6DOPE   H2Y  680   1.485   6.635   7.822  2.5141 -0.4741  3.3539
    6DOPE   C23  681   1.218   6.256   8.106 -0.5509 -0.5205  0.5459
    6DOPE   H3R  682   1.295   6.180   8.128 -0.4337 -1.1666 -1.8279
    6DOPE   H3S  683   1.258   6.351   8.063 -0.2378 -0.0823  1.7561
    6DOPE   C24  684   1.114   6.195   8.019  0.4800  0.4359  0.6116
    6DOPE   H4R  685   1.157   6.200   7.917  3.3074 -0.7401  1.6216
    6DOPE   H4S  686   1.025   6.260   8.008 -1.7382 -2.7184 -1.5355
    6DOPE   C25  687   1.075   6.055   8.049  0.3524 -0.2347  0.1506
    6DOPE   H5R  688   0.989   6.057   8.120 -1.2051 -1.6512 -1.5835
    6DOPE   H5S  689   1.151   5.983   8.084  0.5404 -0.3552 -0.5036
    6DOPE   C26  690   1.019   5.976   7.922 -0.6079 -1.1247 -0.4571
    6DOPE   H6R  691   0.987   5.879   7.965 -1.7457 -0.5299  0.0996
    6DOPE   H6S  692   1.113   5.958   7.866 -0.3139 -0.2434 -0.2691
    6DOPE   C27  693   0.895   6.040   7.859  0.4135  0.2303  0.3548
    6DOPE   H7R  694   0.924   6.141   7.824 -0.3531  0.4918  0.4433
    6DOPE   H7S  695   0.804   6.045   7.923 -0.4917  0.8566 -0.9275
    6DOPE   C28  696   0.846   5.959   7.731 -0.4383 -0.1578  0.0481
    6DOPE   H8R  697   0.768   6.025   7.688  0.3591  0.3221 -0.6789
    6DOPE   H8S  698   0.794   5.868   7.768  0.1765 -0.0773  1.1967
    6DOPE   C29  699   0.949   5.930   7.622  0.0437 -0.6388 -1.0306
    6DOPE   H9R  700   1.052   5.967   7.626  0.4228 -1.5485 -1.9832
    6DOPE  C210  701   0.924   5.865   7.515  0.2632  0.3057  0.3809
    6DOPE  H10R  702   1.012   5.836   7.456  1.0978  0.6569  1.4084
    6DOPE  C211  703   0.792   5.815   7.465 -0.5230  0.0154 -0.1601
    6DOPE  H11R  704   0.703   5.863   7.510  0.2748  0.0449  1.4462
    6DOPE  H11S  705   0.779   5.706   7.483  0.3534 -0.2679 -1.1352
    6DOPE  C212  706   0.785   5.840   7.314  0.4657 -0.8601 -0.1530
    6DOPE  H12R  707   0.807   5.948   7.308 -3.7317  0.1450 -0.7755
    6DOPE  H12S  708   0.678   5.833   7.284 -0.1110 -0.0175  1.5684
    6DOPE  C213  709   0.885   5.762   7.224 -0.8846  0.3933  0.5102
    6DOPE  H13R  710   0.883   5.652   7.241  0.7656  0.3351  0.4904
    6DOPE  H13S  711   0.989   5.799   7.238  0.2048 -2.5331  0.7281
    6DOPE  C214  712   0.869   5.786   7.074  0.6651 -0.1072  0.0834
    6DOPE  H14R  713   0.878   5.895   7.055 -2.1565  0.4517  1.4012
    6DOPE  H14S  714   0.760   5.776   7.054  0.6218  0.5755 -0.0605
    6DOPE  C215  715   0.946   5.695   6.978 -0.3269 -0.3775  0.2584
    6DOPE  H15R  716   0.914   5.589   6.973  0.0870 -0.6068  1.8577
    6DOPE  H15S  717   1.051   5.687   7.012  0.0088  0.5422 -0.5236
    6DOPE  C216  718   0.938   5.742   6.831  0.2494 -0.3316 -0.1845
    6DOPE  H16R  719   0.948   5.853   6.833 -1.9415 -0.0234 -2.3932
    6DOPE  H16S  720   0.837   5.714   6.796  0.9082  0.8386 -3.3538
    6DOPE  C217  721   1.036   5.685   6.731 -0.2733  0.6955  0.6858
    6DOPE  H17R  722   1.012   5.579   6.710  0.5939  0.4099  1.1099
    6DOPE  H17S  723   1.138   5.687   6.774 -0.8002 -0.5522  2.0824
    6DOPE  C218  724   1.040   5.755   6.590 -0.6359  0.1335  0.4899
    6DOPE  H18R  725   1.065   5.860   6.613 -1.0469  0.6452 -1.2177
    6DOPE  H18S  726   0.949   5.754   6.526  0.1938 -2.6169 -0.8328
    6DOPE  H18T  727   1.126   5.715   6.532  1.1233  2.9113  1.0169
    6DOPE   C33  728   1.495   6.433   7.760  0.4748  1.7353 -0.2178
    6DOPE   H3X  729   1.453   6.331   7.778  1.5019  1.3725  0.2158
    6DOPE   H3Y  730   1.601   6.415   7.786  0.7163  3.2632 -0.0971
    6DOPE   C34  731   1.497   6.471   7.610 -0.3586  0.1016 -0.0605
    6DOPE   H4X  732   1.402   6.517   7.576  0.0200  0.2669 -0.9298
    6DOPE   H4Y  733   1.578   6.547   7.604 -0.4546  0.1119 -1.5825
    6DOPE   C35  734   1.526   6.344   7.531 -0.6998  0.8821  0.6511
    6DOPE   H5X  735   1.435   6.281   7.520 -0.2771  0.4391 -0.4116
    6DOPE   H5Y  736   1.607   6.291   7.585 -1.5473  1.5958  2.7486
    6DOPE   C36  737   1.570   6.371   7.384  0.0581  0.5441 -0.8565
    6DOPE   H6X  738   1.662   6.433   7.375 -1.0417  2.3476 -0.2919
    6DOPE   H6Y  739   1.493   6.418   7.319  0.4290  1.9375 -0.3128
    6DOPE   C37  740   1.588   6.229   7.312 -0.6660 -0.2103  0.2750
    6DOPE   H7X  741   1.648   6.153   7.366 -0.1566  0.2956  0.4281
    6DOPE   H7Y  742   1.487   6.183   7.302  0.1962 -2.1506  0.0261
    6DOPE   C38  743   1.632   6.237   7.164 -0.4413 -0.7750  0.4241
    6DOPE   H8X  744   1.578   6.323   7.119 -0.9090 -0.7267  1.0763
    6DOPE   H8Y  745   1.591   6.150   7.109 -0.1458 -0.3281 -0.5288
    6DOPE   C39  746   1.775   6.255   7.139 -0.2654 -0.8500  0.8199
    6DOPE   H9X  747   1.826   6.332   7.199  1.6207 -0.7883 -0.7664
    6DOPE  C310  748   1.851   6.188   7.052  0.4045 -0.1347 -0.4729
    6DOPE  H10X  749   1.958   6.209   7.045 -0.0260  2.7215  0.4293
    6DOPE  C311  750   1.800   6.081   6.959 -0.4051  0.6010  0.1886
    6DOPE  H11X  751   1.832   5.983   7.003  1.5408  0.5102 -1.3054
    6DOPE  H11Y  752   1.689   6.080   6.957 -0.4795 -1.5103  1.4872
    6DOPE  C312  753   1.858   6.116   6.822  0.1758 -0.1284  0.4343
    6DOPE  H12X  754   1.837   6.223   6.801 -2.7163 -0.8398 -0.8365
    6DOPE  H12Y  755   1.816   6.060   6.736  2.6395  1.5683 -2.0545
    6DOPE  C313  756   2.015   6.085   6.794 -0.6499  0.1049 -0.3576
    6DOPE  H13X  757   2.048   6.135   6.700  1.6379  0.4474  0.5576
    6DOPE  H13Y  758   2.068   6.124   6.883  0.3084 -1.3619 -0.2433
    6DOPE  C314  759   2.034   5.931   6.770 -0.1184 -0.4060  0.0347
    6DOPE  H14X  760   1.986   5.876   6.687 -1.0394 -0.6214  0.6981
    6DOPE  H14Y  761   2.013   5.868   6.859 -1.8019  0.9642  0.6674
    6DOPE  C315  762   2.187   5.911   6.735 -0.5534  0.4253  0.4682
    6DOPE  H15X  763   2.246   5.936   6.826  0.7711 -0.3883 -0.1494
    6DOPE  H15Y  764   2.207   5.980   6.650 -0.3267  0.3549  0.4636
    6DOPE  C316  765   2.210   5.767   6.682 -0.0392 -0.3961 -0.5957
    6DOPE  H16X  766   2.163   5.749   6.583 -0.8970  1.8005 -0.6594
    6DOPE  H16Y  767   2.181   5.699   6.764  0.8276 -0.7419 -0.5693
    6DOPE  C317  768   2.362   5.727   6.662 -0.0104 -0.2844  0.0817
    6DOPE  H17X  769   2.403   5.729   6.766  0.0376 -3.4507  0.2165
    6DOPE  H17Y  770   2.376   5.618   6.649 -0.7012 -0.3914  0.1942
    6DOPE  C318  771   2.437   5.816   6.559 -0.2723 -0.2617 -0.3384
    6DOPE  H18X  772   2.537   5.769   6.551 -1.4301 -2.6949 -1.5179
    6DOPE  H18Y  773   2.396   5.805   6.456  2.0187 -1.6451 -1.1593
    6DOPE  H18Z  774   2.435   5.923   6.590  1.3983 -0.0956 -0.6912
    7DOPE     N  775   4.135   7.339   8.469 -0.1539 -0.2399  0.7261
    7DOPE   HN1  776   4.079   7.374   8.550  0.2194 -0.5420  1.1184
    7DOPE   HN2  777   4.126   7.415   8.398 -1.3937 -0.4803  0.6052
    7DOPE   HN3  778   4.081   7.257   8.437  0.4096 -0.3836  0.1233
    7DOPE   C12  779   4.284   7.310   8.498 -0.0436  0.6283  0.1932
    7DOPE  H12A  780   4.319   7.408   8.537  0.6835 -0.0125  1.2074
    7DOPE  H12B  781   4.339   7.289   8.404 -5.0960  0.9629 -3.1752
    7DOPE   C11  782   4.295   7.186   8.596 -0.2084  0.0774  0.2911
    7DOPE  H11A  783   4.405   7.171   8.596  0.2915  2.2260  4.7097
    7DOPE  H11B  784   4.242   7.102   8.545 -0.8152  1.3448 -1.2765
    7DOPE     P  785   4.204   7.113   8.826  0.1344  0.2677 -0.1358
    7DOPE   O13  786   4.112   7.166   8.927  0.1352  1.1233 -0.3752
    7DOPE   O14  787   4.334   7.070   8.878 -0.4468  0.2886 -0.2727
    7DOPE   O11  788   4.129   7.005   8.751  0.1031  0.4366 -0.2209
    7DOPE   O12  789   4.235   7.222   8.717 -0.1243 -0.0244 -0.1286
    7DOPE    C1  790   4.128   6.871   8.781  0.4099  0.0560 -0.0174
    7DOPE    HA  791   4.043   6.824   8.727 -0.0150  0.9004 -0.0916
    7DOPE    HB  792   4.099   6.859   8.888 -3.1665 -2.4985 -1.0942
    7DOPE    C2  793   4.250   6.788   8.740  0.4060 -1.3097 -0.5323
    7DOPE    HS  794   4.338   6.833   8.791  0.8811  0.0864 -2.4725
    7DOPE   O21  795   4.247   6.801   8.595 -0.1758 -0.2117  0.5692
    7DOPE   C21  796   4.355   6.859   8.534  0.0617 -0.0746  0.1478
    7DOPE   O22  797   4.455   6.890   8.594  0.8165 -0.2471 -0.3781
    7DOPE   C22  798   4.329   6.874   8.387 -0.4402  0.0473 -0.2465
    7DOPE   H2R  799   4.239   6.938   8.373 -0.2851  0.1812 -0.6358
    7DOPE   H2S  800   4.307   6.772   8.350 -0.0827 -0.8928  1.9546
    7DOPE    C3  801   4.231   6.639   8.777 -0.5577  0.3854 -0.6383
    7DOPE    HX  802   4.127   6.607   8.754 -0.4383 -1.0807  0.6844
    7DOPE    HY  803   4.248   6.622   8.885  2.5750  0.1023 -1.0635
    7DOPE   O31  804   4.324   6.550   8.704  0.0915 -0.0153  0.4437
    7DOPE   C31  805   4.448   6.561   8.743 -0.6452 -0.1132  0.1823
    7DOPE   O32  806   4.491   6.641   8.830  0.6183  0.0757  0.4587
    7DOPE   C32  807   4.545   6.471   8.661  0.2954 -0.2026 -0.6699
    7DOPE   H2X  808   4.637   6.459   8.723  0.0039 -1.8550 -0.4989
    7DOPE   H2Y  809   4.495   6.372   8.656  0.1053 -0.2202  0.9741
    7DOPE   C23  810   4.445   6.942   8.304  0.1465 -0.3481 -0.6301
    7DOPE   H3R  811   4.527   6.870   8.283  0.6721 -0.5161  1.7187
    7DOPE   H3S  812   4.488   7.022   8.367  1.9190 -1.7112 -0.0466
    7DOPE   C24  813   4.386   7.014   8.182 -0.1514  0.4210 -1.0291
    7DOPE   H4R  814   4.334   7.108   8.209  0.3660  0.7338 -1.1020
    7DOPE   H4S  815   4.309   6.950   8.135  1.7280 -1.8363 -1.2416
    7DOPE   C25  816   4.497   7.049   8.088  0.1072  0.2467 -0.3960
    7DOPE   H5R  817   4.538   6.965   8.027  0.2352 -2.1206  2.6702
    7DOPE   H5S  818   4.586   7.075   8.148  0.9408 -2.8954 -0.0696
    7DOPE   C26  819   4.461   7.165   7.991  0.0896 -0.7663  0.1246
    7DOPE   H6R  820   4.555   7.201   7.945  0.4634 -1.5029  0.3046
    7DOPE   H6S  821   4.415   7.250   8.047  0.6881 -0.2029 -0.2287
    7DOPE   C27  822   4.360   7.121   7.885 -0.1881 -0.4343 -0.3434
    7DOPE   H7R  823   4.264   7.106   7.938  0.0556  0.8451  0.5087
    7DOPE   H7S  824   4.384   7.027   7.830 -1.1580 -0.9077  0.0214
    7DOPE   C28  825   4.334   7.221   7.772  0.9192 -0.1882  0.5559
    7DOPE   H8R  826   4.427   7.268   7.735 -0.4548  0.4640 -2.3738
    7DOPE   H8S  827   4.288   7.314   7.813  1.4871 -0.3762  1.6422
    7DOPE   C29  828   4.247   7.166   7.662 -0.4479 -0.6398  0.4120
    7DOPE   H9R  829   4.141   7.147   7.683 -0.8022 -0.2454 -0.9435
    7DOPE  C210  830   4.286   7.152   7.534  1.0365 -0.3421  0.4971
    7DOPE  H10R  831   4.202   7.139   7.464  0.1396  1.2919  1.2021
    7DOPE  C211  832   4.417   7.174   7.473  0.0259 -0.0808 -0.6000
    7DOPE  H11R  833   4.494   7.212   7.544 -1.1456  0.6972  0.2821
    7DOPE  H11S  834   4.420   7.256   7.397  0.5232  2.7286  2.2495
    7DOPE  C212  835   4.466   7.046   7.409  0.3520  0.0971 -0.8483
    7DOPE  H12R  836   4.392   7.015   7.332  0.9310  0.8039 -1.7127
    7DOPE  H12S  837   4.483   6.977   7.494 -0.2913  1.6171  0.5891
    7DOPE  C213  838   4.610   7.051   7.338 -0.0682  0.2292  0.0740
    7DOPE  H13R  839   4.681   7.095   7.411  1.1156  0.3816 -1.1278
    7DOPE  H13S  840   4.589   7.110   7.246 -1.9718  0.2870  0.5015
    7DOPE  C214  841   4.666   6.915   7.308  0.5059 -0.2407 -0.5678
    7DOPE  H14R  842   4.591   6.857   7.250  0.1238 -0.3207 -0.0033
    7DOPE  H14S  843   4.664   6.871   7.410  0.6984 -0.3913 -0.6273
    7DOPE  C215  844   4.810   6.914   7.266  1.2185  0.5417 -0.2831
    7DOPE  H15R  845   4.850   6.810   7.270  0.3334  0.1748 -0.6815
    7DOPE  H15S  846   4.877   6.977   7.327  0.7772 -0.0760  0.8710
    7DOPE  C216  847   4.830   6.951   7.123 -0.1808 -0.2694 -0.1372
    7DOPE  H16R  848   4.778   7.048   7.108 -1.6387 -1.3198 -2.4843
    7DOPE  H16S  849   4.770   6.873   7.071  3.0779 -1.8746 -1.8162
    7DOPE  C217  850   4.973   6.949   7.050  0.3066  0.2140  0.1983
    7DOPE  H17R  851   5.025   6.862   7.094  1.4329  0.7415 -0.0525
    7DOPE  H17S  852   5.038   7.039   7.060  0.4942  0.0751  0.2205
    7DOPE  C218  853   4.973   6.921   6.900  0.1328  0.3417 -0.6706
    7DOPE  H18R  854   4.901   6.840   6.877 -1.5780  1.4073  0.7182
    7DOPE  H18S  855   5.073   6.896   6.857  0.5723 -0.4363  0.7300
    7DOPE  H18T  856   4.945   7.011   6.841 -0.1237  0.9623  0.3834
    7DOPE   C33  857   4.566   6.540   8.525  0.9886 -0.4128  0.2014
    7DOPE   H3X  858   4.668   6.509   8.494  1.5770  1.8124 -0.2631
    7DOPE   H3Y  859   4.578   6.650   8.540 -0.3566 -0.5343  2.7115
    7DOPE   C34  860   4.466   6.492   8.410  0.1751 -0.2371 -0.1586
    7DOPE   H4X  861   4.441   6.384   8.400  1.9656 -0.9131  1.7985
    7DOPE   H4Y  862   4.363   6.531   8.426  0.0997 -0.4674 -0.0732
    7DOPE   C35  863   4.511   6.535   8.266  0.3412 -0.7742  0.1650
    7DOPE   H5X  864   4.583   6.462   8.223 -1.4372 -1.9330 -0.9916
    7DOPE   H5Y  865   4.562   6.634   8.273  0.7371 -0.9238 -0.5387
    7DOPE   C36  866   4.394   6.537   8.160 -0.4206  0.1435 -0.0426
    7DOPE   H6X  867   4.326   6.619   8.192 -0.3219 -0.1976  1.0916
    7DOPE   H6Y  868   4.338   6.442   8.173  0.6561 -0.7717 -1.6818
    7DOPE   C37  869   4.432   6.545   8.014  0.2218 -0.2054 -0.3032
    7DOPE   H7X  870   4.513   6.471   7.997  0.5041  0.2386 -0.9469
    7DOPE   H7Y  871   4.349   6.501   7.953  1.3879 -1.6613 -0.9195
    7DOPE   C38  872   4.472   6.684   7.969 -0.1452 -0.5028 -0.1431
    7DOPE   H8X  873   4.545   6.725   8.042  0.6157 -1.0415 -0.5763
    7DOPE   H8Y  874   4.386   6.753   7.970  0.8544  0.9154 -3.0205
    7DOPE   C39  875   4.534   6.674   7.827  0.4654 -0.2757 -0.2967
    7DOPE   H9X  876   4.634   6.629   7.826  0.2000 -0.8950 -1.8080
    7DOPE  C310  877   4.462   6.697   7.714  0.1697  0.0930 -0.4151
    7DOPE  H10X  878   4.522   6.681   7.623  0.9991  0.2445  0.0925
    7DOPE  C311  879   4.326   6.752   7.701  0.5281 -0.0994  0.2094
    7DOPE  H11X  880   4.266   6.746   7.794  1.3746 -0.5572  0.7324
    7DOPE  H11Y  881   4.334   6.860   7.672  0.1656 -0.7465 -2.6589
    7DOPE  C312  882   4.234   6.685   7.593  0.2335  0.6412 -0.6504
    7DOPE  H12X  883   4.140   6.740   7.610  0.9272  2.4116 -2.1590
    7DOPE  H12Y  884   4.227   6.576   7.611 -0.4548  0.5679 -1.3212
    7DOPE  C313  885   4.282   6.714   7.445 -0.0849  0.3539  0.0940
    7DOPE  H13X  886   4.302   6.823   7.431  2.7313 -0.0334  0.6408
    7DOPE  H13Y  887   4.384   6.672   7.446 -0.5507 -0.7914  1.3791
    7DOPE  C314  888   4.199   6.637   7.337  0.6469  0.1246 -0.0203
    7DOPE  H14X  889   4.094   6.672   7.347  0.0728 -1.2916 -0.9266
    7DOPE  H14Y  890   4.203   6.527   7.350  1.6617  0.1868  0.3230
    7DOPE  C315  891   4.230   6.672   7.193  0.1992 -0.3724  0.6157
    7DOPE  H15X  892   4.193   6.588   7.131 -0.7838  1.0641 -0.8184
    7DOPE  H15Y  893   4.339   6.682   7.172  0.9350  0.7595  4.3021
    7DOPE  C316  894   4.168   6.804   7.145  1.0009 -0.0215  0.1091
    7DOPE  H16X  895   4.196   6.876   7.226  1.3037  0.1461 -0.1425
    7DOPE  H16Y  896   4.058   6.789   7.151  1.0504 -0.4816 -0.1000
    7DOPE  C317  897   4.217   6.852   7.008  0.3038  0.9877  0.5012
    7DOPE  H17X  898   4.216   6.765   6.939 -0.2161  0.8953  0.6237
    7DOPE  H17Y  899   4.155   6.929   6.957  1.1941 -0.3847 -2.9287
    7DOPE  C318  900   4.360   6.903   7.017 -0.1826 -0.1445  1.0112
    7DOPE  H18X  901   4.352   6.997   7.076 -2.8117 -0.3107  1.0684
    7DOPE  H18Y  902   4.440   6.843   7.064 -0.6815  0.9233  3.3841
    7DOPE  H18Z  903   4.403   6.908   6.915 -0.5790  2.1874  0.8945
    8DOPE     N  904   4.181   0.307   9.010 -0.1869  0.2139 -0.0805
    8DOPE   HN1  905   4.253   0.278   9.080 -0.0893 -1.1920 -0.7289
    8DOPE   HN2  906   4.234   0.357   8.937 -0.3512  3.0361  1.5689
    8DOPE   HN3  907   4.123   0.385   9.048  0.1914  0.1551  0.6416
    8DOPE   C12  908   4.120   0.183   8.944 -0.1641  0.6521  0.1628
    8DOPE  H12A  909   4.054   0.141   9.022  0.4711 -0.5807  0.0594
    8DOPE  H12B  910   4.210   0.121   8.921  2.0145  3.0061  1.6916
    8DOPE   C11  911   4.030   0.216   8.824 -0.1793 -0.2932  0.6390
    8DOPE  H11A  912   3.940   0.269   8.860 -0.2633 -0.0948  0.1437
    8DOPE  H11B  913   4.007   0.119   8.776  0.1893  0.4179 -1.0712
    8DOPE     P  914   4.047   0.309   8.587 -0.1504  0.0622  0.3342
    8DOPE   O13  915   4.082   0.439   8.523 -0.3922 -0.0395 -0.1675
    8DOPE   O14  916   3.904   0.272   8.595  0.0672 -0.2322 -0.2985
    8DOPE   O11  917   4.127   0.191   8.513  0.0630 -0.0998 -0.2680
    8DOPE   O12  918   4.106   0.303   8.735 -0.1721  0.2872 -0.1369
    8DOPE    C1  919   4.240   0.127   8.566 -0.1318 -0.0713 -0.4723
    8DOPE    HA  920   4.212   0.026   8.603  0.4803 -1.4404 -3.4690
    8DOPE    HB  921   4.282   0.173   8.658  3.7755 -1.5801 -1.2921
    8DOPE    C2  922   4.357   0.118   8.462 -0.2599  0.5847  0.5763
    8DOPE    HS  923   4.388   0.225   8.460  0.1462  0.4772  0.9295
    8DOPE   O21  924   4.300   0.067   8.338 -0.8868 -0.1934 -0.0207
    8DOPE   C21  925   4.346   0.122   8.224  0.7348  0.5557 -0.2437
    8DOPE   O22  926   4.436   0.209   8.217 -0.5469  0.2437 -0.1071
    8DOPE   C22  927   4.276   0.044   8.110 -0.3926  0.4444 -0.1382
    8DOPE   H2R  928   4.172   0.078   8.089 -0.1635  1.8493  0.8388
    8DOPE   H2S  929   4.267  -0.062   8.143 -1.2726  0.9599  1.4188
    8DOPE    C3  930   4.479   0.032   8.507  0.0222  0.7222 -0.6255
    8DOPE    HX  931   4.442  -0.064   8.547 -0.2825  1.3552  0.6641
    8DOPE    HY  932   4.526   0.091   8.588 -2.1848  1.0414  0.5126
    8DOPE   O31  933   4.585   0.025   8.408  0.4753 -0.0230  0.2615
    8DOPE   C31  934   4.580  -0.082   8.330  0.1517 -0.8223 -0.2634
    8DOPE   O32  935   4.501  -0.173   8.348 -0.3144 -0.0208  0.5039
    8DOPE   C32  936   4.673  -0.070   8.211  0.1462  0.1997 -0.5564
    8DOPE   H2X  937   4.620  -0.018   8.129 -0.4056 -0.7387 -0.8062
    8DOPE   H2Y  938   4.763  -0.010   8.237 -0.3821  1.2531 -1.0894
    8DOPE   C23  939   4.360   0.051   7.978 -0.1076  0.6335  0.4197
    8DOPE   H3R  940   4.464   0.022   8.005  0.5457  2.0400 -0.4366
    8DOPE   H3S  941   4.362   0.157   7.945  1.6015  0.8241  1.0104
    8DOPE   C24  942   4.311  -0.045   7.870 -0.2856  0.5145  0.0074
    8DOPE   H4R  943   4.204  -0.027   7.845 -0.9749 -2.4820  0.4993
    8DOPE   H4S  944   4.322  -0.147   7.911  0.4127  0.9167  0.8623
    8DOPE   C25  945   4.373  -0.032   7.727  0.0609 -0.1157 -0.5259
    8DOPE   H5R  946   4.477  -0.070   7.722 -0.0111 -0.3174 -0.4960
    8DOPE   H5S  947   4.387   0.075   7.698 -0.3168 -0.4065 -1.8513
    8DOPE   C26  948   4.302  -0.108   7.624 -0.7603 -0.4627  0.5078
    8DOPE   H6R  949   4.194  -0.085   7.624 -0.9037 -1.1020 -0.0662
    8DOPE   H6S  950   4.310  -0.219   7.637 -2.9441 -0.4905  2.2109
    8DOPE   C27  951   4.361  -0.057   7.490  0.4348  0.1714 -0.0496
    8DOPE   H7R  952   4.470  -0.082   7.484  0.4114  0.3354 -1.8473
    8DOPE   H7S  953   4.334   0.051   7.488  0.0610  0.0692 -1.3876
    8DOPE   C28  954   4.288  -0.137   7.380  0.0034 -0.3268  0.1396
    8DOPE   H8R  955   4.181  -0.112   7.389 -0.5270 -2.3979  0.0633
    8DOPE   H8S  956   4.292  -0.247   7.390 -1.1800 -0.3139  0.8505
    8DOPE   C29  957   4.327  -0.089   7.243 -0.4624  0.6528 -0.6573
    8DOPE   H9R  958   4.327   0.020   7.237 -1.6742  0.7415  0.5069
    8DOPE  C210  959   4.343  -0.177   7.139  0.6198  0.3782  0.7252
    8DOPE  H10R  960   4.385  -0.139   7.045 -0.4596 -0.7352 -0.2427
    8DOPE  C211  961   4.309  -0.327   7.149 -0.5631 -0.1047 -0.1026
    8DOPE  H11R  962   4.227  -0.358   7.217 -2.3367  0.6007 -1.8136
    8DOPE  H11S  963   4.403  -0.376   7.181 -1.7105 -1.2117  1.7782
    8DOPE  C212  964   4.270  -0.388   7.014  1.4229  0.1415  0.0254
    8DOPE  H12R  965   4.268  -0.499   7.019  1.0964  0.0980 -0.8606
    8DOPE  H12S  966   4.344  -0.376   6.931 -0.6620 -1.3130 -2.1873
    8DOPE  C213  967   4.135  -0.332   6.965  0.4654  0.5826 -0.2472
    8DOPE  H13R  968   4.118  -0.367   6.861  1.1412  0.6859 -0.3949
    8DOPE  H13S  969   4.146  -0.222   6.953 -0.9428  0.7270 -0.4620
    8DOPE  C214  970   4.013  -0.352   7.058  0.5258 -0.0841 -0.2363
    8DOPE  H14R  971   4.021  -0.281   7.143  0.9444  0.5198 -0.7686
    8DOPE  H14S  972   4.004  -0.456   7.096  0.5982 -0.1138 -0.3011
    8DOPE  C215  973   3.886  -0.321   6.981 -0.1616  0.2177  0.2002
    8DOPE  H15R  974   3.864  -0.399   6.906 -0.5134 -0.2550  0.7815
    8DOPE  H15S  975   3.913  -0.232   6.921 -1.6284  2.0499  2.1046
    8DOPE  C216  976   3.762  -0.314   7.066 -0.3423 -0.3774  0.5845
    8DOPE  H16R  977   3.773  -0.229   7.138 -2.1281  1.6923 -1.4241
    8DOPE  H16S  978   3.755  -0.404   7.132  0.5551  0.0138  1.2380
    8DOPE  C217  979   3.628  -0.286   6.990  0.8598  0.7368  0.5215
    8DOPE  H17R  980   3.622  -0.355   6.903 -0.2729  0.3501  0.8797
    8DOPE  H17S  981   3.632  -0.188   6.939  1.2543 -0.0954 -1.1142
    8DOPE  C218  982   3.507  -0.313   7.075  0.1258  0.0417 -0.9471
    8DOPE  H18R  983   3.506  -0.231   7.150  0.5377 -1.5789  0.9071
    8DOPE  H18S  984   3.518  -0.405   7.137 -1.0197  0.8233  0.4603
    8DOPE  H18T  985   3.410  -0.310   7.021  0.8658  3.0717 -2.3305
    8DOPE   C33  986   4.712  -0.214   8.163  0.0378  0.3433  0.4281
    8DOPE   H3X  987   4.620  -0.277   8.159  0.1748  0.0565  1.4653
    8DOPE   H3Y  988   4.777  -0.256   8.243  0.6392  0.8297  0.1956
    8DOPE   C34  989   4.792  -0.212   8.031 -0.1502 -0.7434  0.1682
    8DOPE   H4X  990   4.866  -0.130   8.031 -0.2490 -0.6463  0.6469
    8DOPE   H4Y  991   4.863  -0.298   8.033  0.8317  0.0666  0.6930
    8DOPE   C35  992   4.699  -0.204   7.908  0.2312 -0.7579  0.4446
    8DOPE   H5X  993   4.641  -0.111   7.892  1.2930 -0.2775 -0.8877
    8DOPE   H5Y  994   4.621  -0.283   7.916 -0.7779  0.0077 -1.2427
    8DOPE   C36  995   4.765  -0.236   7.775 -0.1462 -0.0898 -0.0633
    8DOPE   H6X  996   4.819  -0.332   7.785  0.0067  0.1523  1.6139
    8DOPE   H6Y  997   4.844  -0.160   7.756 -0.4327 -0.3885 -3.0746
    8DOPE   C37  998   4.672  -0.243   7.657  0.5230  0.2431  0.3712
    8DOPE   H7X  999   4.574  -0.285   7.686 -0.5226  2.6804  0.5530
    8DOPE   H7Y 1000   4.648  -0.143   7.615 -0.4826 -0.2116 -0.1681
    8DOPE   C38 1001   4.732  -0.311   7.532  0.4501  0.3094 -0.6216
    8DOPE   H8X 1002   4.665  -0.312   7.444 -1.6469  0.7001  0.8891
    8DOPE   H8Y 1003   4.745  -0.418   7.558  3.0337  0.2560 -1.7673
    8DOPE   C39 1004   4.864  -0.245   7.499  0.4397  0.9711  0.1545
    8DOPE   H9X 1005   4.949  -0.281   7.560 -0.8011  0.7805  1.8514
    8DOPE  C310 1006   4.893  -0.173   7.387 -0.0699  0.3348  0.5567
    8DOPE  H10X 1007   4.997  -0.142   7.374  0.3796 -1.8366 -1.9563
    8DOPE  C311 1008   4.800  -0.118   7.278  0.1681 -0.1027  0.0987
    8DOPE  H11X 1009   4.700  -0.106   7.325  0.8699  2.1314  1.1893
    8DOPE  H11Y 1010   4.841  -0.026   7.231 -2.3538  0.1430 -1.8096
    8DOPE  C312 1011   4.770  -0.232   7.179 -0.2184  0.4145  0.2576
    8DOPE  H12X 1012   4.721  -0.316   7.232  1.8497  0.3146  2.1625
    8DOPE  H12Y 1013   4.867  -0.270   7.140  0.6851  1.5292  1.3614
    8DOPE  C313 1014   4.691  -0.185   7.059 -0.2373 -0.5222  0.6469
    8DOPE  H13X 1015   4.608  -0.120   7.094 -0.0715  0.2371 -0.3388
    8DOPE  H13Y 1016   4.758  -0.126   6.994 -0.8152  0.8933  1.2892
    8DOPE  C314 1017   4.633  -0.308   6.985 -0.3695 -0.5948  0.2414
    8DOPE  H14X 1018   4.542  -0.280   6.927 -1.5135  0.4614  2.4275
    8DOPE  H14Y 1019   4.591  -0.383   7.055 -0.1268 -0.2554  0.7504
    8DOPE  C315 1020   4.752  -0.368   6.906 -0.2577 -0.1136 -0.3521
    8DOPE  H15X 1021   4.834  -0.401   6.973 -2.2049 -2.2659  1.1430
    8DOPE  H15Y 1022   4.800  -0.293   6.839  4.4417  0.1867  2.8701
    8DOPE  C316 1023   4.711  -0.497   6.833  0.2488 -0.1726  0.1464
    8DOPE  H16X 1024   4.655  -0.567   6.899  0.0405 -0.8344 -0.7010
    8DOPE  H16Y 1025   4.808  -0.545   6.807  0.9523  1.4883 -0.4398
    8DOPE  C317 1026   4.626  -0.476   6.705 -0.0717 -0.0433 -0.0216
    8DOPE  H17X 1027   4.550  -0.396   6.726  0.7188  0.5089  0.8245
    8DOPE  H17Y 1028   4.686  -0.445   6.617 -1.6738 -0.3754 -1.2738
    8DOPE  C318 1029   4.543  -0.599   6.679  0.4472 -0.0931  0.3747
    8DOPE  H18X 1030   4.471  -0.574   6.599  1.6792  0.4918 -0.5787
    8DOPE  H18Y 1031   4.484  -0.639   6.764 -0.2961  0.9123  0.3508
    8DOPE  H18Z 1032   4.610  -0.676   6.636  0.9225  0.1508  0.6723
    9DOPE     N 1033   0.771   5.662   9.326  0.1358  0.2797  0.1433
    9DOPE   HN1 1034   0.689   5.678   9.387 -1.1257 -0.1670 -1.3697
    9DOPE   HN2 1035   0.820   5.573   9.351 -1.5858 -0.3896  1.3296
    9DOPE   HN3 1036   0.826   5.750   9.330  1.8546 -0.6601 -1.1193
    9DOPE   C12 1037   0.719   5.626   9.189 -0.1630 -0.1776  0.2135
    9DOPE  H12A 1038   0.672   5.525   9.190  0.0141 -0.2664 -0.1883
    9DOPE  H12B 1039   0.804   5.618   9.117 -0.2266 -0.2367  0.1444
    9DOPE   C11 1040   0.607   5.721   9.149 -0.2702 -0.4352 -0.5311
    9DOPE  H11A 1041   0.636   5.827   9.167 -0.0514 -0.2897 -1.6851
    9DOPE  H11B 1042   0.519   5.705   9.214  0.3041  1.1625  0.7377
    9DOPE     P 1043   0.467   5.625   8.957 -0.3264  0.4342 -0.1585
    9DOPE   O13 1044   0.353   5.650   9.047  0.4619  0.5051 -0.3450
    9DOPE   O14 1045   0.515   5.485   8.940 -0.2689 -0.8379  0.2442
    9DOPE   O11 1046   0.432   5.693   8.821 -0.3939 -0.5985  0.2204
    9DOPE   O12 1047   0.588   5.718   9.007  0.1575 -0.6825  0.1773
    9DOPE    C1 1048   0.417   5.609   8.700 -0.8104  0.3877  0.0502
    9DOPE    HA 1049   0.341   5.530   8.714 -1.1734  0.8981  1.0799
    9DOPE    HB 1050   0.509   5.548   8.691 -0.7489  0.4182  0.4496
    9DOPE    C2 1051   0.394   5.693   8.575 -0.1076  0.4867  0.9209
    9DOPE    HS 1052   0.312   5.762   8.604 -1.1131 -0.7468  1.1128
    9DOPE   O21 1053   0.373   5.617   8.456 -0.4167 -0.2479 -0.2188
    9DOPE   C21 1054   0.309   5.683   8.363  0.2133  0.4641  0.2935
    9DOPE   O22 1055   0.251   5.785   8.365  0.4874  0.1312 -0.2376
    9DOPE   C22 1056   0.303   5.597   8.233 -0.1485 -0.1440  0.4448
    9DOPE   H2R 1057   0.241   5.508   8.259 -0.3766 -0.0007  0.3922
    9DOPE   H2S 1058   0.409   5.569   8.214 -0.4674 -1.1171  0.0706
    9DOPE    C3 1059   0.526   5.778   8.562  0.5703 -0.4980 -0.1932
    9DOPE    HX 1060   0.616   5.713   8.571  0.2843 -0.7303  1.1992
    9DOPE    HY 1061   0.538   5.850   8.646 -0.2447  1.3065 -1.5549
    9DOPE   O31 1062   0.538   5.842   8.432 -0.2446 -0.4273  0.3605
    9DOPE   C31 1063   0.497   5.976   8.435 -0.5110 -0.2562  0.4283
    9DOPE   O32 1064   0.460   6.036   8.533 -0.3715  0.8548 -0.2205
    9DOPE   C32 1065   0.541   6.042   8.303 -0.3709  0.2680 -0.3229
    9DOPE   H2X 1066   0.649   6.057   8.321  0.1385 -1.5320 -1.5635
    9DOPE   H2Y 1067   0.532   5.965   8.223  2.2265 -0.7874  0.3073
    9DOPE   C23 1068   0.233   5.671   8.115 -0.3249  0.1476  0.4303
    9DOPE   H3R 1069   0.289   5.760   8.080 -0.6547  1.0398  2.0747
    9DOPE   H3S 1070   0.125   5.685   8.137 -0.9216 -1.9823 -0.8815
    9DOPE   C24 1071   0.245   5.568   7.996  0.2457 -0.3318  0.5007
    9DOPE   H4R 1072   0.197   5.474   8.031  0.2430 -0.3091  0.5571
    9DOPE   H4S 1073   0.349   5.542   7.968 -0.0773  0.3182 -1.4384
    9DOPE   C25 1074   0.182   5.622   7.865  0.5677  0.6095 -0.4076
    9DOPE   H5R 1075   0.076   5.640   7.891  0.5570  0.1331 -0.1008
    9DOPE   H5S 1076   0.181   5.545   7.784  1.7211  1.5989 -1.4081
    9DOPE   C26 1077   0.251   5.739   7.805 -0.6119  0.3414 -0.1520
    9DOPE   H6R 1078   0.358   5.720   7.782 -0.3946  3.0414 -1.8497
    9DOPE   H6S 1079   0.248   5.825   7.875  0.5161  0.3172 -0.0613
    9DOPE   C27 1080   0.181   5.778   7.670  0.0549  0.5178 -0.4365
    9DOPE   H7R 1081   0.076   5.804   7.692 -0.4208 -1.0007 -0.7949
    9DOPE   H7S 1082   0.183   5.689   7.604  0.7878  0.1286  0.1009
    9DOPE   C28 1083   0.256   5.892   7.600  0.4030  0.6984 -0.4281
    9DOPE   H8R 1084   0.274   5.972   7.675 -0.5644 -1.3084  2.1040
    9DOPE   H8S 1085   0.185   5.942   7.531 -2.3748  0.1998  1.8477
    9DOPE   C29 1086   0.384   5.842   7.528 -0.3274  0.5572  0.3264
    9DOPE   H9R 1087   0.475   5.835   7.590  1.3901 -0.0284 -2.1066
    9DOPE  C210 1088   0.386   5.810   7.397  0.4312  0.3168  0.0282
    9DOPE  H10R 1089   0.467   5.757   7.346  0.8080  0.8777  0.0457
    9DOPE  C211 1090   0.261   5.816   7.315 -0.0235 -0.1934  0.8362
    9DOPE  H11R 1091   0.168   5.803   7.375 -0.7463 -0.1953 -0.2575
    9DOPE  H11S 1092   0.271   5.733   7.242  2.4622  1.8961 -1.4283
    9DOPE  C212 1093   0.251   5.952   7.243 -0.5623  0.3758 -0.8412
    9DOPE  H12R 1094   0.346   5.998   7.209 -1.3052  1.5610 -1.3420
    9DOPE  H12S 1095   0.200   6.031   7.302  0.2771 -0.7071  1.4772
    9DOPE  C213 1096   0.169   5.942   7.109 -0.6762  0.5264 -0.1314
    9DOPE  H13R 1097   0.066   5.902   7.115  0.7541 -3.6606 -0.2985
    9DOPE  H13S 1098   0.221   5.872   7.040 -2.3317 -0.5655 -0.3247
    9DOPE  C214 1099   0.159   6.077   7.038  0.3150 -0.4389 -0.4399
    9DOPE  H14R 1100   0.266   6.096   7.016  0.2220  0.0999 -0.4430
    9DOPE  H14S 1101   0.128   6.154   7.112  2.3819 -0.1767  0.2235
    9DOPE  C215 1102   0.080   6.079   6.905 -0.1436 -0.0786 -0.6753
    9DOPE  H15R 1103   0.114   5.988   6.850 -1.1446  0.2807 -1.9419
    9DOPE  H15S 1104   0.117   6.168   6.850 -2.6561  0.9081 -0.9161
    9DOPE  C216 1105  -0.065   6.085   6.927 -0.4842 -0.3902  0.4052
    9DOPE  H16R 1106  -0.083   6.023   7.018 -0.9582  0.1713  0.6993
    9DOPE  H16S 1107  -0.115   6.049   6.835 -0.2123  0.3276 -0.0269
    9DOPE  C217 1108  -0.117   6.225   6.973  0.3130 -0.3709 -0.2907
    9DOPE  H17R 1109  -0.073   6.311   6.917 -3.6484  3.2996  1.6017
    9DOPE  H17S 1110  -0.104   6.224   7.083  0.2411  0.5632 -0.2608
    9DOPE  C218 1111  -0.266   6.241   6.944 -0.1641  0.3049  0.1554
    9DOPE  H18R 1112  -0.309   6.333   6.989 -2.8121 -1.3246  1.1736
    9DOPE  H18S 1113  -0.319   6.161   7.000 -0.2513  1.2427  1.4477
    9DOPE  H18T 1114  -0.295   6.226   6.838  0.8705 -0.8270  0.0032
    9DOPE   C33 1115   0.481   6.178   8.278  0.2802  0.2603 -1.4146
    9DOPE   H3X 1116   0.546   6.234   8.208  3.9934 -0.2860  1.3127
    9DOPE   H3Y 1117   0.470   6.233   8.374  0.6900 -0.4858 -0.9244
    9DOPE   C34 1118   0.340   6.162   8.220 -0.2756 -0.6023 -0.4845
    9DOPE   H4X 1119   0.266   6.109   8.285  0.3628  0.8989  1.5813
    9DOPE   H4Y 1120   0.301   6.265   8.230  0.4695 -0.4802  2.0571
    9DOPE   C35 1121   0.348   6.101   8.077 -0.2780  0.0081 -0.8360
    9DOPE   H5X 1122   0.368   5.992   8.072  4.1188  0.5522  0.9180
    9DOPE   H5Y 1123   0.433   6.151   8.027 -0.8702  0.8409 -1.0468
    9DOPE   C36 1124   0.237   6.136   7.985 -0.5173 -0.4776 -0.5134
    9DOPE   H6X 1125   0.262   6.086   7.889  1.7394 -0.2296 -0.1112
    9DOPE   H6Y 1126   0.238   6.242   7.952 -2.3522 -0.6387 -1.1744
    9DOPE   C37 1127   0.096   6.100   8.042  0.0832 -0.0948 -0.0311
    9DOPE   H7X 1128   0.097   5.997   8.084 -0.1468 -0.2446 -0.3864
    9DOPE   H7Y 1129   0.067   6.164   8.128 -0.1451  0.6572 -0.6607
    9DOPE   C38 1130  -0.007   6.106   7.934  0.3502  0.3281 -0.5598
    9DOPE   H8X 1131   0.041   6.059   7.846 -0.5874 -1.1734 -0.2976
    9DOPE   H8Y 1132  -0.022   6.214   7.911  0.7096  0.4986 -0.0255
    9DOPE   C39 1133  -0.134   6.035   7.968 -0.3627 -0.4660  0.4578
    9DOPE   H9X 1134  -0.126   5.934   8.010  0.8471 -0.1954  0.9257
    9DOPE  C310 1135  -0.255   6.090   7.949 -0.5772 -0.1629 -0.1640
    9DOPE  H10X 1136  -0.338   6.021   7.968 -0.4689 -0.2947 -0.1671
    9DOPE  C311 1137  -0.286   6.229   7.895 -0.1605  0.0881  0.4716
    9DOPE  H11X 1138  -0.207   6.308   7.890 -0.0602  0.0388  1.1616
    9DOPE  H11Y 1139  -0.305   6.217   7.787  2.0996 -0.9883  0.1255
    9DOPE  C312 1140  -0.410   6.285   7.954 -0.2800  0.6925 -0.6327
    9DOPE  H12X 1141  -0.403   6.278   8.064  2.7354 -2.1517 -0.8826
    9DOPE  H12Y 1142  -0.499   6.225   7.925  0.0071 -0.6909  1.1867
    9DOPE  C313 1143  -0.445   6.433   7.924 -0.3635  0.1635  0.1203
    9DOPE  H13X 1144  -0.546   6.464   7.958 -1.0340 -0.0447 -1.6093
    9DOPE  H13Y 1145  -0.368   6.497   7.973  0.4765 -0.4543 -0.3678
    9DOPE  C314 1146  -0.421   6.475   7.776  0.1565 -0.1414  0.3343
    9DOPE  H14X 1147  -0.320   6.442   7.746 -0.2571 -1.8680  0.7411
    9DOPE  H14Y 1148  -0.419   6.584   7.755 -1.6267 -0.4142 -1.5570
    9DOPE  C315 1149  -0.506   6.406   7.667 -0.4959  0.2077 -0.6648
    9DOPE  H15X 1150  -0.616   6.411   7.681 -0.6736 -1.4936 -1.3146
    9DOPE  H15Y 1151  -0.487   6.297   7.675  0.6803  0.1456 -3.2339
    9DOPE  C316 1152  -0.470   6.450   7.525  0.7196 -0.6648  0.2635
    9DOPE  H16X 1153  -0.361   6.474   7.518  0.2411  1.2952 -1.8211
    9DOPE  H16Y 1154  -0.504   6.556   7.517  0.3269 -0.9300 -2.6029
    9DOPE  C317 1155  -0.527   6.351   7.425 -0.3268  0.2500  0.4333
    9DOPE  H17X 1156  -0.462   6.263   7.440  0.8075  0.9117 -0.4296
    9DOPE  H17Y 1157  -0.628   6.322   7.459  0.1766 -2.8176 -0.4643
    9DOPE  C318 1158  -0.529   6.381   7.280  0.0813  0.2142  0.0092
    9DOPE  H18X 1159  -0.574   6.483   7.273  0.8244  0.4711 -1.2710
    9DOPE  H18Y 1160  -0.432   6.383   7.227 -0.4153  1.7549 -0.8957
    9DOPE  H18Z 1161  -0.604   6.318   7.230  0.8817 -0.1118 -0.7956
   10DOPE     N 1162   1.717   7.028   8.454 -0.2551  0.7281  0.2788
   10DOPE   HN1 1163   1.746   6.974   8.370  0.0090  0.5609  0.4783
   10DOPE   HN2 1164   1.798   7.064   8.507  1.2408  0.0429 -1.4138
   10DOPE   HN3 1165   1.667   6.966   8.522  0.7277  0.4027  0.7160
   10DOPE   C12 1166   1.634   7.140   8.405 -0.3456  0.5110 -0.7959
   10DOPE  H12A 1167   1.699   7.207   8.347 -0.5031  1.8767  0.5486
   10DOPE  H12B 1168   1.593   7.192   8.494 -0.8952 -0.2013 -0.6154
   10DOPE   C11 1169   1.530   7.072   8.310 -0.0927  0.2280  0.1021
   10DOPE  H11A 1170   1.479   7.000   8.377  0.2270  1.9902  2.3610
   10DOPE  H11B 1171   1.576   7.015   8.226  0.6929  1.9610 -0.6952
   10DOPE     P 1172   1.330   7.243   8.324  0.0566  0.1511 -0.3820
   10DOPE   O13 1173   1.397   7.329   8.431  0.4674  0.0924  0.5987
   10DOPE   O14 1174   1.229   7.145   8.370  0.7143 -0.5323  0.0316
   10DOPE   O11 1175   1.271   7.334   8.219 -0.4074 -0.2156  0.1131
   10DOPE   O12 1176   1.443   7.171   8.247 -0.0980  0.3672 -0.6447
   10DOPE    C1 1177   1.159   7.305   8.138 -0.7169  0.4305 -0.4979
   10DOPE    HA 1178   1.067   7.359   8.168  0.1319  0.1442  3.1224
   10DOPE    HB 1179   1.121   7.202   8.150  2.3220 -0.9528 -1.6963
   10DOPE    C2 1180   1.188   7.332   7.984 -0.3123  0.2130 -0.9452
   10DOPE    HS 1181   1.112   7.287   7.916 -0.5543  0.0431 -0.5647
   10DOPE   O21 1182   1.318   7.274   7.953  0.0097 -0.5299  0.6490
   10DOPE   C21 1183   1.308   7.141   7.930  0.5134  0.5952 -1.2739
   10DOPE   O22 1184   1.200   7.080   7.935  0.4082  0.3408  0.1404
   10DOPE   C22 1185   1.446   7.085   7.880  0.2986  1.0573 -0.1733
   10DOPE   H2R 1186   1.520   7.138   7.943  1.1865 -0.1533 -0.1485
   10DOPE   H2S 1187   1.454   7.123   7.776 -0.4963 -0.3640 -0.7982
   10DOPE    C3 1188   1.186   7.481   7.968 -0.2335 -0.0047  0.4514
   10DOPE    HX 1189   1.274   7.525   8.019  0.4876 -0.4289 -0.4104
   10DOPE    HY 1190   1.105   7.522   8.033 -0.3809 -0.3012  0.4552
   10DOPE   O31 1191   1.183   7.525   7.826  0.0279 -0.0751  0.0888
   10DOPE   C31 1192   1.115   7.636   7.810  0.5697 -0.0017  0.7513
   10DOPE   O32 1193   1.075   7.706   7.901 -0.6799 -0.3677 -0.3736
   10DOPE   C32 1194   1.101   7.670   7.660 -0.0176  0.3408 -0.2558
   10DOPE   H2X 1195   1.204   7.689   7.621 -0.5023 -0.1137 -1.8364
   10DOPE   H2Y 1196   1.079   7.574   7.608  1.1426  0.3521 -0.8111
   10DOPE   C23 1197   1.456   6.929   7.899 -0.1959 -0.4782  0.3997
   10DOPE   H3R 1198   1.425   6.869   7.810 -1.9556  0.8676  0.0481
   10DOPE   H3S 1199   1.393   6.887   7.980  0.4925 -0.8658  0.7412
   10DOPE   C24 1200   1.596   6.897   7.931  0.0192 -0.5963 -0.2253
   10DOPE   H4R 1201   1.597   6.790   7.961  0.9540 -1.1802 -2.1338
   10DOPE   H4S 1202   1.635   6.958   8.014  1.8955  1.4396 -2.4449
   10DOPE   C25 1203   1.689   6.920   7.810  0.3534  0.5670 -0.5923
   10DOPE   H5R 1204   1.689   7.028   7.783 -1.2474  1.7073  3.3261
   10DOPE   H5S 1205   1.644   6.875   7.719  2.9156 -1.9626 -0.7436
   10DOPE   C26 1206   1.822   6.848   7.813 -1.0772  0.5858  0.5931
   10DOPE   H6R 1207   1.810   6.737   7.815 -1.0248  0.4610 -2.3377
   10DOPE   H6S 1208   1.885   6.879   7.900  1.5661  0.2697 -1.0749
   10DOPE   C27 1209   1.924   6.870   7.702 -0.3336  0.6212  0.9195
   10DOPE   H7R 1210   1.998   6.787   7.702  1.3989  2.0999  0.3929
   10DOPE   H7S 1211   1.996   6.950   7.728 -0.8988  0.6350  2.5754
   10DOPE   C28 1212   1.868   6.876   7.558 -0.0811 -0.2699  0.3724
   10DOPE   H8R 1213   1.807   6.969   7.553  0.4791  0.0552 -1.0764
   10DOPE   H8S 1214   1.784   6.804   7.553 -1.5541  1.2688  1.7512
   10DOPE   C29 1215   1.964   6.868   7.444  0.0055  0.0260 -0.0785
   10DOPE   H9R 1216   2.060   6.919   7.461 -0.8529  2.0997 -1.0864
   10DOPE  C210 1217   1.942   6.798   7.335 -0.0347 -0.6759 -0.0656
   10DOPE  H10R 1218   2.016   6.811   7.254  0.5357  0.6500  0.6328
   10DOPE  C211 1219   1.827   6.703   7.297  0.0852 -0.6513  1.2119
   10DOPE  H11R 1220   1.771   6.671   7.387 -0.1992  0.0334  1.2813
   10DOPE  H11S 1221   1.865   6.608   7.253  0.5494 -0.2782  0.7932
   10DOPE  C212 1222   1.720   6.761   7.201  0.4424  0.2594 -0.3261
   10DOPE  H12R 1223   1.710   6.872   7.202 -1.4342  0.1464  1.8764
   10DOPE  H12S 1224   1.622   6.721   7.237 -0.9751  2.4530 -1.5288
   10DOPE  C213 1225   1.740   6.701   7.062 -0.2404 -0.3079 -0.8954
   10DOPE  H13R 1226   1.722   6.591   7.063  1.0964 -0.5577  0.9242
   10DOPE  H13S 1227   1.844   6.723   7.029  0.0668  0.6084  0.5496
   10DOPE  C214 1228   1.645   6.762   6.963  0.1937 -0.2805 -0.0049
   10DOPE  H14R 1229   1.673   6.715   6.866 -2.0779 -0.3981 -0.6658
   10DOPE  H14S 1230   1.669   6.870   6.948  0.2874 -0.3535 -0.3871
   10DOPE  C215 1231   1.497   6.743   6.979 -0.0141 -0.1660  0.1416
   10DOPE  H15R 1232   1.433   6.773   6.894 -2.9414  1.1140  2.5938
   10DOPE  H15S 1233   1.453   6.785   7.072 -1.9462 -1.2998 -0.1975
   10DOPE  C216 1234   1.465   6.586   6.993 -0.0286  0.2560 -0.0392
   10DOPE  H16R 1235   1.477   6.557   7.099  1.4093  0.2079 -0.1962
   10DOPE  H16S 1236   1.548   6.534   6.940 -0.1831  1.2755 -1.3175
   10DOPE  C217 1237   1.335   6.535   6.935  0.3815  0.9688 -0.5784
   10DOPE  H17R 1238   1.323   6.426   6.954  0.5367  0.6974 -1.8996
   10DOPE  H17S 1239   1.327   6.543   6.824 -0.0131  0.8606 -0.5593
   10DOPE  C218 1240   1.210   6.612   6.986 -0.6794  0.0626 -0.0489
   10DOPE  H18R 1241   1.112   6.564   6.963 -0.7142 -0.3812  0.9438
   10DOPE  H18S 1242   1.198   6.715   6.948 -0.9854 -0.1882 -0.6392
   10DOPE  H18T 1243   1.205   6.603   7.097 -1.7207 -1.4832 -0.1937
   10DOPE   C33 1244   0.984   7.763   7.640 -0.4992  0.0663 -0.0251
   10DOPE   H3X 1245   1.015   7.851   7.700  1.2595 -1.5195  1.5565
   10DOPE   H3Y 1246   0.889   7.723   7.681  0.3636 -2.7237 -0.5671
   10DOPE   C34 1247   0.961   7.789   7.487 -0.2629 -0.3897 -0.1759
   10DOPE   H4X 1248   0.878   7.861   7.473  1.2283  1.1059 -1.9163
   10DOPE   H4Y 1249   1.052   7.834   7.441 -0.5145 -0.5416 -0.8356
   10DOPE   C35 1250   0.931   7.658   7.413  0.1594  0.2149  0.4006
   10DOPE   H5X 1251   0.873   7.594   7.482  1.2141 -2.0558 -0.7088
   10DOPE   H5Y 1252   1.026   7.602   7.396 -0.4610 -0.7092 -0.1161
   10DOPE   C36 1253   0.857   7.674   7.280  0.8774  0.2008 -0.0359
   10DOPE   H6X 1254   0.915   7.733   7.206 -0.5495 -1.1955 -2.3880
   10DOPE   H6Y 1255   0.764   7.733   7.294 -0.3916 -1.2134 -1.9764
   10DOPE   C37 1256   0.818   7.537   7.211 -0.0778  0.2236  0.6817
   10DOPE   H7X 1257   0.911   7.479   7.192 -0.3861 -0.2513  0.6065
   10DOPE   H7Y 1258   0.752   7.485   7.284 -0.9756 -0.4073 -0.5456
   10DOPE   C38 1259   0.729   7.545   7.087  0.1087  0.0803 -1.0838
   10DOPE   H8X 1260   0.651   7.623   7.103 -0.1317  0.0429 -2.0387
   10DOPE   H8Y 1261   0.675   7.448   7.076  1.4768 -0.6442 -1.6565
   10DOPE   C39 1262   0.816   7.578   6.966 -0.1390  0.7413 -0.3299
   10DOPE   H9X 1263   0.867   7.675   6.977 -0.5333  0.7735  1.5839
   10DOPE  C310 1264   0.831   7.502   6.857 -0.3493 -0.4711 -0.8424
   10DOPE  H10X 1265   0.875   7.554   6.770 -1.0688 -0.1140 -0.9989
   10DOPE  C311 1266   0.763   7.370   6.827 -0.4139  0.4296  0.0477
   10DOPE  H11X 1267   0.837   7.300   6.871  2.7374  2.4980 -1.5620
   10DOPE  H11Y 1268   0.665   7.353   6.875 -0.5448 -0.8397 -0.6147
   10DOPE  C312 1269   0.752   7.327   6.680  0.4330  0.1509  0.3495
   10DOPE  H12X 1270   0.851   7.308   6.633  2.5255  2.3320  3.4713
   10DOPE  H12Y 1271   0.703   7.411   6.625  1.1806  1.2035  1.2475
   10DOPE  C313 1272   0.658   7.204   6.666  0.0220  0.1061 -0.2194
   10DOPE  H13X 1273   0.550   7.218   6.685 -0.0027 -2.3570  1.9879
   10DOPE  H13Y 1274   0.658   7.182   6.558 -0.3611  3.3937 -1.0105
   10DOPE  C314 1275   0.707   7.086   6.755  0.9658 -0.0478  0.5232
   10DOPE  H14X 1276   0.678   7.098   6.862 -0.9471 -1.4311  0.2168
   10DOPE  H14Y 1277   0.818   7.091   6.754  1.0405 -1.4494 -0.5905
   10DOPE  C315 1278   0.649   6.951   6.708 -0.6302  0.3045 -0.4625
   10DOPE  H15X 1279   0.700   6.921   6.613 -0.9840 -1.8064 -0.0253
   10DOPE  H15Y 1280   0.543   6.975   6.686 -0.9039 -0.3208  0.1570
   10DOPE  C316 1281   0.652   6.842   6.818 -0.0426 -0.3500  0.0767
   10DOPE  H16X 1282   0.613   6.885   6.913 -0.8278  0.1634 -0.4604
   10DOPE  H16Y 1283   0.756   6.821   6.849  1.5716  2.7957 -2.5041
   10DOPE  C317 1284   0.572   6.714   6.781  0.1203 -0.7213  0.1768
   10DOPE  H17X 1285   0.466   6.747   6.789  0.2420  0.0058 -0.8757
   10DOPE  H17Y 1286   0.609   6.681   6.682  2.5856 -0.9641  1.1051
   10DOPE  C318 1287   0.590   6.600   6.888  0.5265  0.1137  0.1796
   10DOPE  H18X 1288   0.513   6.522   6.869  0.1402  0.4023  0.5554
   10DOPE  H18Y 1289   0.694   6.560   6.885  0.2661 -0.6364  0.7850
   10DOPE  H18Z 1290   0.553   6.639   6.985 -1.2943 -0.1891 -0.3641
   11DOPE     N 1291   7.435   4.077   8.660 -0.0648 -0.1927  0.1345
   11DOPE   HN1 1292   7.411   4.026   8.748 -0.0590 -1.4835 -0.5833
   11DOPE   HN2 1293   7.425   4.010   8.582  3.8771  0.2118 -0.9182
   11DOPE   HN3 1294   7.532   4.114   8.661 -0.7215  1.6650 -0.6091
   11DOPE   C12 1295   7.341   4.194   8.638  0.0156  0.2245 -0.4692
   11DOPE  H12A 1296   7.239   4.153   8.624 -0.2100 -0.0067  1.5986
   11DOPE  H12B 1297   7.384   4.249   8.551  3.2937  0.7593  1.3546
   11DOPE   C11 1298   7.347   4.296   8.760  0.1588 -0.7450  1.1004
   11DOPE  H11A 1299   7.457   4.314   8.762  0.0650  0.2972 -0.6774
   11DOPE  H11B 1300   7.318   4.245   8.854  0.5651 -0.3521  1.4424
   11DOPE     P 1301   7.285   4.545   8.819 -0.0430 -0.1586  0.1260
   11DOPE   O13 1302   7.421   4.557   8.875 -0.0268 -0.0325 -0.0429
   11DOPE   O14 1303   7.173   4.526   8.912 -0.2382 -0.2901  0.3145
   11DOPE   O11 1304   7.256   4.668   8.722 -0.3197 -0.6563  0.0351
   11DOPE   O12 1305   7.288   4.423   8.723 -0.4617 -0.2278  0.2850
   11DOPE    C1 1306   7.166   4.656   8.613  0.7225 -0.0433  0.4820
   11DOPE    HA 1307   7.116   4.754   8.601 -0.0009 -0.3654  0.7922
   11DOPE    HB 1308   7.081   4.586   8.626 -1.0724  1.5458 -1.8744
   11DOPE    C2 1309   7.240   4.622   8.482 -0.0386 -0.3014 -0.0506
   11DOPE    HS 1310   7.286   4.522   8.495  0.2129 -0.2445 -0.4514
   11DOPE   O21 1311   7.331   4.731   8.454 -0.2649 -0.1363  0.0384
   11DOPE   C21 1312   7.442   4.692   8.388 -0.2776 -0.2700  0.0226
   11DOPE   O22 1313   7.465   4.577   8.358  0.0955  0.2116  0.2343
   11DOPE   C22 1314   7.532   4.809   8.357 -0.0737 -0.2411 -0.2456
   11DOPE   H2R 1315   7.637   4.780   8.378 -0.1613 -0.9636 -0.7806
   11DOPE   H2S 1316   7.504   4.894   8.423 -0.7743 -0.7354  0.1020
   11DOPE    C3 1317   7.138   4.608   8.365 -0.1497  0.7508 -0.4931
   11DOPE    HX 1318   7.067   4.693   8.371 -0.5215  0.3923  0.3329
   11DOPE    HY 1319   7.067   4.524   8.378 -3.0700  3.0678 -0.4410
   11DOPE   O31 1320   7.193   4.603   8.229  0.5148 -0.9672 -0.0494
   11DOPE   C31 1321   7.212   4.486   8.179  0.4163  0.0560 -0.4547
   11DOPE   O32 1322   7.194   4.378   8.235  0.0155 -0.3915  0.4671
   11DOPE   C32 1323   7.289   4.497   8.051 -0.2531 -0.5110  0.2069
   11DOPE   H2X 1324   7.269   4.599   8.012 -2.0592 -0.5410  0.9391
   11DOPE   H2Y 1325   7.396   4.492   8.082 -1.1113 -2.7109  3.2738
   11DOPE   C23 1326   7.527   4.839   8.207  1.0207  0.4140  0.5166
   11DOPE   H3R 1327   7.543   4.948   8.194 -0.7076  0.7320  0.7233
   11DOPE   H3S 1328   7.433   4.813   8.155  0.4988  2.4156  0.3577
   11DOPE   C24 1329   7.628   4.760   8.130 -0.2900  0.2479  0.6147
   11DOPE   H4R 1330   7.613   4.653   8.153  0.8681  0.3987  2.2603
   11DOPE   H4S 1331   7.728   4.781   8.174 -0.0769 -1.5513  1.0399
   11DOPE   C25 1332   7.634   4.785   7.987 -0.5163 -0.5731  0.5420
   11DOPE   H5R 1333   7.669   4.889   7.967  0.1239 -0.7540  0.7014
   11DOPE   H5S 1334   7.529   4.786   7.951 -0.6464  0.3539  0.9006
   11DOPE   C26 1335   7.718   4.684   7.912  0.3906  0.2923  0.3943
   11DOPE   H6R 1336   7.669   4.584   7.913 -1.9642  1.2999 -1.6712
   11DOPE   H6S 1337   7.821   4.673   7.953 -0.3613  0.6322  2.4882
   11DOPE   C27 1338   7.739   4.708   7.761  0.4425  0.5462  0.2710
   11DOPE   H7R 1339   7.817   4.637   7.725  2.1781  1.9104  1.1798
   11DOPE   H7S 1340   7.779   4.811   7.752  3.8826 -0.6660 -0.0084
   11DOPE   C28 1341   7.616   4.691   7.676  0.0120  0.5630 -0.1236
   11DOPE   H8R 1342   7.526   4.733   7.725 -0.3635 -1.0930  0.6786
   11DOPE   H8S 1343   7.594   4.582   7.681  0.6518  0.4588  0.8832
   11DOPE   C29 1344   7.631   4.739   7.537 -0.5779 -0.2615 -0.1725
   11DOPE   H9R 1345   7.727   4.711   7.490  1.3507  2.5047  1.7841
   11DOPE  C210 1346   7.540   4.815   7.467 -0.0168  0.1829 -0.8380
   11DOPE  H10R 1347   7.554   4.856   7.366 -2.1099  0.1527 -1.1731
   11DOPE  C211 1348   7.410   4.855   7.525  0.4362  0.7333  0.4431
   11DOPE  H11R 1349   7.383   4.952   7.478  0.9482 -0.4039 -2.4431
   11DOPE  H11S 1350   7.411   4.887   7.632  2.9363 -0.7385  0.9422
   11DOPE  C212 1351   7.292   4.755   7.507 -0.0835  0.0958 -0.1177
   11DOPE  H12R 1352   7.209   4.802   7.564 -1.3273 -0.5970 -1.3193
   11DOPE  H12S 1353   7.331   4.668   7.563 -0.4192  1.3686  2.2302
   11DOPE  C213 1354   7.258   4.731   7.358  0.1928  0.0001  0.2899
   11DOPE  H13R 1355   7.339   4.745   7.284  0.4068  0.0852  0.5402
   11DOPE  H13S 1356   7.179   4.803   7.327  1.0609 -0.0056 -2.1510
   11DOPE  C214 1357   7.214   4.584   7.333 -0.7737  0.0512 -0.3954
   11DOPE  H14R 1358   7.163   4.538   7.420  3.0657 -2.8311  0.6153
   11DOPE  H14S 1359   7.307   4.524   7.320 -1.2526 -0.7036 -0.4256
   11DOPE  C215 1360   7.143   4.559   7.201 -0.1962 -0.3438  0.0607
   11DOPE  H15R 1361   7.195   4.613   7.118  0.0264  0.8935  0.9752
   11DOPE  H15S 1362   7.043   4.604   7.213  0.0012 -0.1734  1.1164
   11DOPE  C216 1363   7.138   4.409   7.160 -0.0063  0.2312 -0.5050
   11DOPE  H16R 1364   7.101   4.361   7.253 -2.5262  1.1762 -0.9467
   11DOPE  H16S 1365   7.239   4.370   7.137 -0.8881 -1.5042 -1.6885
   11DOPE  C217 1366   7.051   4.378   7.046 -0.4519  0.6689  0.2239
   11DOPE  H17R 1367   7.110   4.419   6.960  0.8970  1.2643  1.3808
   11DOPE  H17S 1368   6.961   4.443   7.052 -1.1156 -0.0969 -0.9611
   11DOPE  C218 1369   7.004   4.233   7.025 -0.6441 -1.0406 -0.1862
   11DOPE  H18R 1370   6.974   4.188   7.122 -0.3538  0.5433  0.6719
   11DOPE  H18S 1371   7.079   4.168   6.975  0.0815 -0.4785  0.1609
   11DOPE  H18T 1372   6.913   4.248   6.962 -0.1388  2.8159 -0.2599
   11DOPE   C33 1373   7.244   4.398   7.942  0.1779 -0.1014 -0.0457
   11DOPE   H3X 1374   7.142   4.429   7.913  0.8432  1.2854 -1.0257
   11DOPE   H3Y 1375   7.227   4.299   7.989 -0.0429 -0.7415 -1.4449
   11DOPE   C34 1376   7.347   4.394   7.826 -0.1073 -0.1246  0.4420
   11DOPE   H4X 1377   7.374   4.497   7.795 -0.3650 -0.7552 -2.1126
   11DOPE   H4Y 1378   7.441   4.343   7.854 -1.0466 -2.5814 -0.5199
   11DOPE   C35 1379   7.284   4.315   7.709  0.2521 -0.7544 -0.1328
   11DOPE   H5X 1380   7.185   4.356   7.681  0.9220  3.0109  2.3347
   11DOPE   H5Y 1381   7.263   4.212   7.746  1.2518 -0.6693  0.7036
   11DOPE   C36 1382   7.374   4.317   7.585  0.0394 -0.1421 -0.2954
   11DOPE   H6X 1383   7.473   4.270   7.600  0.4170  0.0697 -1.8589
   11DOPE   H6Y 1384   7.384   4.419   7.542  0.8843  0.0743  0.3893
   11DOPE   C37 1385   7.299   4.238   7.465 -0.6464 -0.1767 -0.2727
   11DOPE   H7X 1386   7.203   4.289   7.441  0.5578  1.7100 -1.2952
   11DOPE   H7Y 1387   7.365   4.256   7.378 -0.3001  2.5487  0.4744
   11DOPE   C38 1388   7.269   4.091   7.508  0.2860  0.4579 -0.4877
   11DOPE   H8X 1389   7.168   4.089   7.555 -0.5661 -1.3118 -2.2463
   11DOPE   H8Y 1390   7.347   4.069   7.584 -1.3522 -0.6321  0.9642
   11DOPE   C39 1391   7.265   3.991   7.394  0.2246 -0.4124 -0.8135
   11DOPE   H9X 1392   7.179   3.995   7.325  0.0964 -0.8919 -0.6805
   11DOPE  C310 1393   7.346   3.891   7.366 -0.5906 -0.2863 -0.1602
   11DOPE  H10X 1394   7.327   3.836   7.273  0.3980 -0.0598 -0.5182
   11DOPE  C311 1395   7.465   3.851   7.441 -0.5939 -0.5775  0.1321
   11DOPE  H11X 1396   7.495   3.928   7.516  2.6305 -0.1225 -1.4596
   11DOPE  H11Y 1397   7.450   3.761   7.505  1.2833  1.3440  3.6129
   11DOPE  C312 1398   7.586   3.839   7.343  0.7089  0.0168 -0.0277
   11DOPE  H12X 1399   7.545   3.796   7.249 -0.6859  0.1281  0.5147
   11DOPE  H12Y 1400   7.661   3.767   7.383 -0.3212 -1.7784 -1.1982
   11DOPE  C313 1401   7.645   3.972   7.311  0.2900  0.0074  0.2497
   11DOPE  H13X 1402   7.577   4.032   7.247  0.4575 -0.2185 -0.1473
   11DOPE  H13Y 1403   7.662   4.031   7.403 -2.0358 -0.2718  0.9314
   11DOPE  C314 1404   7.782   3.961   7.242  0.0769  0.7783  0.1163
   11DOPE  H14X 1405   7.858   3.929   7.316 -0.8482 -0.1785  0.6770
   11DOPE  H14Y 1406   7.813   4.060   7.204  1.6736  0.0065 -0.7080
   11DOPE  C315 1407   7.796   3.855   7.128  0.2944  0.1939 -1.1164
   11DOPE  H15X 1408   7.740   3.897   7.042  0.9703  0.8925 -1.2192
   11DOPE  H15Y 1409   7.747   3.762   7.163 -1.5190  1.6601  0.4641
   11DOPE  C316 1410   7.938   3.816   7.094 -0.0946 -0.2029 -0.1254
   11DOPE  H16X 1411   7.987   3.747   7.166  1.9646  1.0666 -0.2458
   11DOPE  H16Y 1412   7.992   3.912   7.089  1.8375 -1.1193  1.8297
   11DOPE  C317 1413   7.940   3.751   6.955 -0.5714  0.1897 -0.2828
   11DOPE  H17X 1414   7.855   3.680   6.951  0.2305 -0.8406  0.1756
   11DOPE  H17Y 1415   7.921   3.833   6.882 -2.2803 -1.1247 -1.3798
   11DOPE  C318 1416   8.067   3.659   6.920  0.2231 -0.4825 -0.3437
   11DOPE  H18X 1417   8.047   3.618   6.818 -2.4671  1.2520 -0.6208
   11DOPE  H18Y 1418   8.160   3.720   6.928  0.6894 -0.9106 -2.0858
   11DOPE  H18Z 1419   8.059   3.573   6.989  0.6460 -0.6699 -0.5273
   12DOPE     N 1420   2.504   7.357   8.449  0.1055 -0.0977  0.0701
   12DOPE   HN1 1421   2.403   7.330   8.454 -0.2269 -0.7686 -5.1240
   12DOPE   HN2 1422   2.543   7.321   8.360 -2.6810 -2.0168 -0.5119
   12DOPE   HN3 1423   2.564   7.326   8.528  1.5603 -0.4473 -1.1363
   12DOPE   C12 1424   2.504   7.506   8.461  0.1197  0.1415  0.5856
   12DOPE  H12A 1425   2.473   7.533   8.564  2.2572  0.5446  1.1882
   12DOPE  H12B 1426   2.417   7.547   8.406 -1.5241  0.1676  3.0746
   12DOPE   C11 1427   2.636   7.575   8.408  0.3272 -0.4610  0.6260
   12DOPE  H11A 1428   2.614   7.681   8.385 -1.5298 -0.7076  1.0830
   12DOPE  H11B 1429   2.659   7.525   8.312  0.7018  1.1897 -0.1599
   12DOPE     P 1430   2.846   7.669   8.529 -0.4492 -0.0246 -0.3120
   12DOPE   O13 1431   2.881   7.671   8.673  0.1411 -0.7300 -0.1500
   12DOPE   O14 1432   2.788   7.794   8.482 -0.3803 -0.4892  0.3951
   12DOPE   O11 1433   2.977   7.644   8.447  0.1503  0.1476  0.2442
   12DOPE   O12 1434   2.750   7.553   8.499  0.9879 -0.8769 -0.2959
   12DOPE    C1 1435   3.025   7.514   8.400 -0.0880  0.5766 -0.9023
   12DOPE    HA 1436   2.992   7.428   8.462  2.8462 -0.7135 -0.9821
   12DOPE    HB 1437   3.136   7.513   8.397 -0.1078 -1.0866 -2.3882
   12DOPE    C2 1438   2.990   7.497   8.252  0.1499 -0.7670 -0.3966
   12DOPE    HS 1439   2.879   7.495   8.249 -0.0269  1.2141  1.7531
   12DOPE   O21 1440   3.041   7.368   8.222 -0.0226  0.1039  0.0799
   12DOPE   C21 1441   2.953   7.270   8.246  0.6206  0.6515  0.4629
   12DOPE   O22 1442   2.828   7.284   8.253 -0.3993  0.1304 -0.1412
   12DOPE   C22 1443   3.016   7.142   8.229 -0.1738  0.7506 -0.2944
   12DOPE   H2R 1444   3.006   7.083   8.323 -1.1264 -0.2127 -0.9820
   12DOPE   H2S 1445   3.124   7.145   8.204 -0.0361 -0.5942  0.0749
   12DOPE    C3 1446   3.035   7.600   8.149 -0.3155 -0.1831 -0.7078
   12DOPE    HX 1447   3.131   7.642   8.186 -0.4598 -0.7265  0.3059
   12DOPE    HY 1448   2.960   7.683   8.150  1.2962  1.3537  1.3021
   12DOPE   O31 1449   3.050   7.532   8.019 -0.0185 -0.1531 -0.3909
   12DOPE   C31 1450   3.058   7.620   7.925 -0.8227 -0.1245  0.1491
   12DOPE   O32 1451   3.070   7.738   7.938  0.4133 -0.5672  0.2460
   12DOPE   C32 1452   3.063   7.565   7.789  0.1316 -0.0964 -0.1526
   12DOPE   H2X 1453   3.164   7.591   7.749  0.0617  1.6437  0.7365
   12DOPE   H2Y 1454   3.046   7.455   7.794  2.3202 -0.5237 -0.7852
   12DOPE   C23 1455   2.951   7.062   8.106 -0.3845 -0.2381 -0.6723
   12DOPE   H3R 1456   2.847   7.038   8.137  0.1394  0.2381  1.5791
   12DOPE   H3S 1457   3.000   6.963   8.090  0.4384  0.1671 -0.6961
   12DOPE   C24 1458   2.955   7.146   7.972 -0.1306 -0.0086 -0.2014
   12DOPE   H4R 1459   3.060   7.133   7.938 -0.9286 -1.1461 -2.4189
   12DOPE   H4S 1460   2.932   7.254   7.981 -3.0546 -0.6415  1.3701
   12DOPE   C25 1461   2.856   7.096   7.870  0.2988 -0.3800  0.2416
   12DOPE   H5R 1462   2.839   6.986   7.874 -2.5361 -0.1990 -2.5813
   12DOPE   H5S 1463   2.895   7.119   7.769 -0.4860 -0.0482  0.0017
   12DOPE   C26 1464   2.710   7.161   7.879 -0.1737  0.6283 -0.2933
   12DOPE   H6R 1465   2.719   7.267   7.848 -2.5530  1.1458  0.5386
   12DOPE   H6S 1466   2.669   7.161   7.983 -1.8463  2.9711 -0.8679
   12DOPE   C27 1467   2.612   7.088   7.787 -0.2784  0.1861 -0.1631
   12DOPE   H7R 1468   2.617   6.978   7.796 -1.7432 -0.0396 -1.5021
   12DOPE   H7S 1469   2.642   7.117   7.684 -1.2296 -0.2946 -0.5896
   12DOPE   C28 1470   2.460   7.111   7.826  0.6753  0.1665  0.1713
   12DOPE   H8R 1471   2.458   7.051   7.920  0.3429 -1.8633 -1.0644
   12DOPE   H8S 1472   2.394   7.056   7.755 -1.1718 -0.5588  2.2866
   12DOPE   C29 1473   2.427   7.253   7.843  0.7709 -0.1856 -0.9416
   12DOPE   H9R 1474   2.477   7.302   7.928  0.6241  0.6058 -1.3010
   12DOPE  C210 1475   2.330   7.324   7.769  0.0219  1.0777  0.4366
   12DOPE  H10R 1476   2.306   7.426   7.804  2.4914  2.2373 -0.9358
   12DOPE  C211 1477   2.242   7.269   7.660  0.4252  0.0291  0.1768
   12DOPE  H11R 1478   2.136   7.253   7.689  0.0199 -0.5318 -1.5064
   12DOPE  H11S 1479   2.286   7.173   7.624  3.6478  2.0333 -1.7207
   12DOPE  C212 1480   2.252   7.363   7.534  0.2743  0.1235 -0.0611
   12DOPE  H12R 1481   2.355   7.400   7.518  0.4171 -0.2991 -0.1223
   12DOPE  H12S 1482   2.190   7.454   7.550  0.5680  0.5223 -1.1172
   12DOPE  C213 1483   2.199   7.297   7.402  0.4606 -0.8634 -0.3739
   12DOPE  H13R 1484   2.262   7.207   7.385  2.4900  0.1855  1.1543
   12DOPE  H13S 1485   2.235   7.370   7.326 -1.2113 -0.8933 -1.2421
   12DOPE  C214 1486   2.045   7.262   7.376 -0.0813  0.1217  0.3716
   12DOPE  H14R 1487   2.010   7.199   7.461  2.3046  1.6785  2.6444
   12DOPE  H14S 1488   2.044   7.206   7.280  0.0399  1.6587 -0.5518
   12DOPE  C215 1489   1.951   7.386   7.354  0.4714  0.3292 -0.1600
   12DOPE  H15R 1490   2.012   7.465   7.305  1.5269  1.6518  3.0333
   12DOPE  H15S 1491   1.922   7.424   7.454  0.1729 -0.1656 -0.0533
   12DOPE  C216 1492   1.827   7.330   7.293 -0.3853  0.2170  0.5786
   12DOPE  H16R 1493   1.734   7.380   7.330 -0.5451  0.8150 -0.6004
   12DOPE  H16S 1494   1.812   7.229   7.337 -0.8509 -0.2589 -0.6539
   12DOPE  C217 1495   1.833   7.322   7.138 -0.2930 -1.2864  0.4476
   12DOPE  H17R 1496   1.910   7.249   7.104  1.1514  0.1784  0.4462
   12DOPE  H17S 1497   1.854   7.426   7.103 -3.0385 -0.4111  1.1468
   12DOPE  C218 1498   1.708   7.264   7.074  0.7752 -0.7787  0.1424
   12DOPE  H18R 1499   1.624   7.334   7.092  2.4860  1.8503 -1.3423
   12DOPE  H18S 1500   1.680   7.168   7.121  0.8968 -1.4734 -1.1657
   12DOPE  H18T 1501   1.705   7.239   6.965 -0.8110 -0.0049 -0.0203
   12DOPE   C33 1502   2.951   7.615   7.695 -0.5085 -0.1881 -0.1604
   12DOPE   H3X 1503   2.964   7.722   7.670  1.3890  0.3973  2.8248
   12DOPE   H3Y 1504   2.853   7.605   7.747 -0.1043 -1.7957  0.3374
   12DOPE   C34 1505   2.947   7.531   7.568  0.8223 -0.3016 -0.4929
   12DOPE   H4X 1506   3.043   7.534   7.511  1.8477  0.3169  1.1733
   12DOPE   H4Y 1507   2.940   7.426   7.601 -1.1581 -0.1206 -0.2465
   12DOPE   C35 1508   2.830   7.591   7.491  0.1227  0.9183 -0.2641
   12DOPE   H5X 1509   2.850   7.685   7.435 -0.8749  0.3030 -1.7221
   12DOPE   H5Y 1510   2.745   7.605   7.561  0.1309 -0.0058 -0.0561
   12DOPE   C36 1511   2.775   7.493   7.380  0.1198 -0.3887 -1.1148
   12DOPE   H6X 1512   2.743   7.394   7.420 -2.8661  0.5160 -0.9894
   12DOPE   H6Y 1513   2.860   7.474   7.312  0.5141 -0.4206 -0.6157
   12DOPE   C37 1514   2.659   7.547   7.295 -0.6741 -0.4962  0.7090
   12DOPE   H7X 1515   2.564   7.566   7.350 -0.9370 -1.3786  0.5829
   12DOPE   H7Y 1516   2.685   7.646   7.252 -0.0067 -0.7990  0.4047
   12DOPE   C38 1517   2.617   7.463   7.173 -0.3844 -0.3333 -0.1420
   12DOPE   H8X 1518   2.706   7.465   7.106 -0.5500  0.3220 -0.3532
   12DOPE   H8Y 1519   2.544   7.533   7.126 -0.3153  0.2158  0.5538
   12DOPE   C39 1520   2.553   7.333   7.189  0.4634  0.7136  0.7371
   12DOPE   H9X 1521   2.491   7.323   7.280 -0.4297  0.9908  0.1671
   12DOPE  C310 1522   2.558   7.237   7.092 -0.2173  0.2504 -0.1864
   12DOPE  H10X 1523   2.509   7.139   7.094  1.6570 -0.7860 -1.4910
   12DOPE  C311 1524   2.633   7.248   6.957 -0.2583  0.3434 -0.4098
   12DOPE  H11X 1525   2.706   7.331   6.957  0.0171  0.1370  1.0433
   12DOPE  H11Y 1526   2.692   7.154   6.948 -1.3268 -0.3225 -0.7727
   12DOPE  C312 1527   2.537   7.263   6.839 -0.4302  0.3109  0.1628
   12DOPE  H12X 1528   2.458   7.341   6.847  1.0417  1.7642  0.9847
   12DOPE  H12Y 1529   2.485   7.165   6.839  0.2585 -0.0593  0.5001
   12DOPE  C313 1530   2.607   7.300   6.705  0.0868  0.3219  0.2270
   12DOPE  H13X 1531   2.687   7.235   6.665  0.4768  1.2893 -0.6033
   12DOPE  H13Y 1532   2.517   7.294   6.641 -0.1310  1.2053  0.4309
   12DOPE  C314 1533   2.653   7.445   6.697  0.1312 -0.2689  1.3783
   12DOPE  H14X 1534   2.737   7.437   6.769  1.5271  0.3026 -0.1470
   12DOPE  H14Y 1535   2.579   7.519   6.735  1.5648  2.1138 -0.2377
   12DOPE  C315 1536   2.706   7.503   6.560  0.2896  0.0591  0.3980
   12DOPE  H15X 1537   2.733   7.610   6.579  1.0223  0.0048 -0.2771
   12DOPE  H15Y 1538   2.622   7.499   6.488  1.6501 -0.8368 -1.2152
   12DOPE  C316 1539   2.828   7.433   6.506 -0.2982  0.0262 -0.1845
   12DOPE  H16X 1540   2.814   7.324   6.492 -0.9070 -0.2581  2.1835
   12DOPE  H16Y 1541   2.908   7.443   6.582  1.2415  2.7457 -2.0329
   12DOPE  C317 1542   2.892   7.491   6.379  0.4378 -0.3728  0.2288
   12DOPE  H17X 1543   2.818   7.465   6.300 -0.2906 -0.4354  0.9147
   12DOPE  H17Y 1544   2.901   7.601   6.385  2.5795 -0.4968  0.0125
   12DOPE  C318 1545   3.025   7.427   6.339 -0.3147 -0.2442  0.4623
   12DOPE  H18X 1546   3.102   7.447   6.416 -2.0206 -1.5752  2.6138
   12DOPE  H18Y 1547   3.011   7.318   6.328 -0.0085 -0.3876  1.4202
   12DOPE  H18Z 1548   3.053   7.467   6.239 -0.5325 -3.6192 -1.0710
   13DOPE     N 1549   1.681   2.575   9.164  0.1359  0.1655  0.1248
   13DOPE   HN1 1550   1.705   2.619   9.255  0.1867  0.7669 -0.1705
   13DOPE   HN2 1551   1.765   2.557   9.106  0.5436  2.0738  0.0360
   13DOPE   HN3 1552   1.631   2.650   9.112 -2.2206  1.0262  3.2698
   13DOPE   C12 1553   1.586   2.456   9.181  0.7970  0.3032  0.2154
   13DOPE  H12A 1554   1.506   2.486   9.253 -0.3275  2.0807 -1.6658
   13DOPE  H12B 1555   1.643   2.366   9.212  0.0089  0.2959  1.7578
   13DOPE   C11 1556   1.516   2.424   9.051  0.5329 -0.6017 -0.4600
   13DOPE  H11A 1557   1.447   2.340   9.075 -1.8603  1.3004 -0.3513
   13DOPE  H11B 1558   1.577   2.381   8.968 -0.0275  0.6680 -1.5592
   13DOPE     P 1559   1.298   2.566   8.999  0.3733  0.5330  0.4005
   13DOPE   O13 1560   1.283   2.710   9.022  0.2607 -0.3922  0.3523
   13DOPE   O14 1561   1.225   2.468   9.086  0.4793  0.1489  0.7668
   13DOPE   O11 1562   1.257   2.541   8.850  0.2663  0.3570 -0.1753
   13DOPE   O12 1563   1.445   2.536   9.003 -0.0916 -0.5865 -0.7588
   13DOPE    C1 1564   1.344   2.468   8.762  0.2009 -0.5464  0.1046
   13DOPE    HA 1565   1.282   2.432   8.676 -2.5519  0.7435  1.4456
   13DOPE    HB 1566   1.403   2.390   8.815  0.3637 -0.1186  0.5561
   13DOPE    C2 1567   1.442   2.572   8.686 -0.0371  0.4790 -0.9579
   13DOPE    HS 1568   1.520   2.609   8.756 -0.7313 -0.5071  0.3977
   13DOPE   O21 1569   1.362   2.680   8.629 -0.0997  0.4576 -0.0078
   13DOPE   C21 1570   1.415   2.795   8.621  0.2065  0.2097  1.1006
   13DOPE   O22 1571   1.524   2.828   8.660  0.3247 -0.5074 -0.1534
   13DOPE   C22 1572   1.321   2.892   8.551 -0.2060 -0.6551 -0.1119
   13DOPE   H2R 1573   1.305   2.967   8.631 -0.3925 -0.1720 -0.5993
   13DOPE   H2S 1574   1.222   2.851   8.525  0.4205 -1.7912 -0.7649
   13DOPE    C3 1575   1.515   2.501   8.568 -0.3779 -0.3156  0.0746
   13DOPE    HX 1576   1.436   2.450   8.508  0.9499  0.3616 -2.3651
   13DOPE    HY 1577   1.576   2.417   8.606 -2.2032 -1.0167  1.6747
   13DOPE   O31 1578   1.591   2.583   8.478 -0.1736  0.2746 -0.1388
   13DOPE   C31 1579   1.712   2.618   8.510 -0.4710 -0.1704 -0.0775
   13DOPE   O32 1580   1.767   2.588   8.615 -0.1062  0.2024 -0.5222
   13DOPE   C32 1581   1.774   2.697   8.388 -0.5516 -0.0844 -0.1826
   13DOPE   H2X 1582   1.703   2.668   8.307 -2.2937  0.8039  0.9508
   13DOPE   H2Y 1583   1.755   2.806   8.402 -1.4107  0.2429 -3.2308
   13DOPE   C23 1584   1.393   2.966   8.436  1.0159 -0.0827 -0.2986
   13DOPE   H3R 1585   1.483   3.020   8.472  0.2636  0.4820  0.7790
   13DOPE   H3S 1586   1.319   3.042   8.404  0.6652  0.4701  1.6844
   13DOPE   C24 1587   1.444   2.869   8.324 -0.5257 -0.2527 -0.0186
   13DOPE   H4R 1588   1.535   2.819   8.362 -0.1581  1.6172  1.7820
   13DOPE   H4S 1589   1.463   2.938   8.239  1.1193  0.7258  1.1016
   13DOPE   C25 1590   1.345   2.768   8.271 -0.5979 -0.6089  0.1539
   13DOPE   H5R 1591   1.249   2.814   8.238 -0.6985  0.2486  1.5943
   13DOPE   H5S 1592   1.321   2.692   8.349 -1.2765 -2.0293 -1.3659
   13DOPE   C26 1593   1.395   2.689   8.148  0.4653 -0.5639  0.5067
   13DOPE   H6R 1594   1.316   2.629   8.099  0.1508  0.4772 -0.2862
   13DOPE   H6S 1595   1.474   2.614   8.172 -0.7907 -1.5009  1.8638
   13DOPE   C27 1596   1.448   2.787   8.039  0.1916 -0.8678  0.4411
   13DOPE   H7R 1597   1.540   2.835   8.080 -0.0184 -0.9035  0.9659
   13DOPE   H7S 1598   1.381   2.873   8.020 -1.5122 -2.1552  0.4561
   13DOPE   C28 1599   1.471   2.712   7.913  0.1846 -0.2578  0.3217
   13DOPE   H8R 1600   1.375   2.663   7.888  0.7270 -1.1175 -0.1318
   13DOPE   H8S 1601   1.530   2.624   7.948 -0.0814 -0.1242  1.1365
   13DOPE   C29 1602   1.541   2.780   7.804 -0.5918 -0.2513  0.2284
   13DOPE   H9R 1603   1.651   2.783   7.806 -0.6102  0.7261  2.0097
   13DOPE  C210 1604   1.487   2.829   7.688 -0.9152  0.4574  0.1451
   13DOPE  H10R 1605   1.553   2.879   7.616 -1.1428  1.4127  0.5792
   13DOPE  C211 1606   1.347   2.805   7.639 -0.2450 -0.0523  0.2808
   13DOPE  H11R 1607   1.270   2.820   7.717  0.2129 -0.3597  0.8026
   13DOPE  H11S 1608   1.324   2.699   7.615 -1.5427 -0.0341  1.3737
   13DOPE  C212 1609   1.301   2.890   7.519 -0.6733 -0.0379 -0.0559
   13DOPE  H12R 1610   1.374   2.875   7.436 -0.6071  1.8041 -0.3688
   13DOPE  H12S 1611   1.310   3.000   7.534  1.9840 -0.1526 -0.2251
   13DOPE  C213 1612   1.160   2.859   7.475  0.4926 -0.2217  0.3534
   13DOPE  H13R 1613   1.124   2.931   7.398 -0.4673  1.4152  2.2222
   13DOPE  H13S 1614   1.090   2.874   7.560  3.6293  0.6713  2.9530
   13DOPE  C214 1615   1.143   2.718   7.411 -1.1419  0.9380  0.4785
   13DOPE  H14R 1616   1.190   2.643   7.478 -0.0843  2.7786  1.9358
   13DOPE  H14S 1617   1.199   2.723   7.315  1.6976  1.5769  2.0404
   13DOPE  C215 1618   1.002   2.694   7.360  0.6476  0.1312 -0.2993
   13DOPE  H15R 1619   0.980   2.791   7.312  1.1489  0.8030  0.7957
   13DOPE  H15S 1620   0.929   2.689   7.444  0.1168  1.0973 -0.6895
   13DOPE  C216 1621   0.995   2.576   7.262  0.0620  0.2143  0.5190
   13DOPE  H16R 1622   1.009   2.473   7.301  0.6788 -0.2664 -0.9230
   13DOPE  H16S 1623   1.076   2.585   7.186  0.4994 -0.3840  0.9012
   13DOPE  C217 1624   0.854   2.567   7.186 -0.4188  0.4198  0.3752
   13DOPE  H17R 1625   0.847   2.483   7.114 -0.0860  0.1841  0.6124
   13DOPE  H17S 1626   0.825   2.666   7.146 -1.3302  0.9898  2.3017
   13DOPE  C218 1627   0.737   2.530   7.277 -0.2920  0.2258 -0.0885
   13DOPE  H18R 1628   0.720   2.615   7.346  0.5572  0.4683 -0.1638
   13DOPE  H18S 1629   0.760   2.442   7.341 -2.3391  0.0547  0.4595
   13DOPE  H18T 1630   0.644   2.518   7.217  0.5012 -0.4266 -1.2359
   13DOPE   C33 1631   1.920   2.645   8.365 -0.2748 -0.4018  0.3142
   13DOPE   H3X 1632   1.918   2.535   8.352 -0.9510 -0.1347 -2.5558
   13DOPE   H3Y 1633   1.986   2.663   8.453 -2.6416  2.5395  1.6470
   13DOPE   C34 1634   1.977   2.721   8.248 -0.4215 -0.1276 -0.2962
   13DOPE   H4X 1635   1.969   2.827   8.280  0.5352  0.7468 -2.7289
   13DOPE   H4Y 1636   2.081   2.691   8.220 -0.7929 -1.0998 -0.6718
   13DOPE   C35 1637   1.898   2.698   8.125  0.5022  0.4578 -0.0080
   13DOPE   H5X 1638   1.794   2.737   8.124  0.8741  1.5904  1.7843
   13DOPE   H5Y 1639   1.893   2.588   8.112 -0.9438  0.0281  3.2057
   13DOPE   C36 1640   1.955   2.749   7.989 -0.5280 -0.1011 -0.2884
   13DOPE   H6X 1641   1.985   2.855   7.996 -0.4272  0.0503 -2.4359
   13DOPE   H6Y 1642   1.870   2.749   7.917 -1.3330  0.1489  0.6364
   13DOPE   C37 1643   2.082   2.676   7.946 -0.1289  0.2312 -0.1087
   13DOPE   H7X 1644   2.158   2.683   8.027  1.0178 -2.1352 -0.9030
   13DOPE   H7Y 1645   2.063   2.575   7.904 -1.8875  0.3808  0.2450
   13DOPE   C38 1646   2.155   2.747   7.833  0.7291  0.2617  0.2227
   13DOPE   H8X 1647   2.254   2.703   7.810  0.1800 -2.0817  2.0312
   13DOPE   H8Y 1648   2.177   2.853   7.859 -0.0964  1.1408 -2.3464
   13DOPE   C39 1649   2.060   2.751   7.710  0.7200  0.1452 -0.0483
   13DOPE   H9X 1650   1.992   2.837   7.703 -0.0363 -0.5386 -1.4053
   13DOPE  C310 1651   2.040   2.650   7.620  0.3758 -0.6591 -0.4299
   13DOPE  H10X 1652   1.959   2.665   7.547  1.3838  0.7350 -1.3367
   13DOPE  C311 1653   2.107   2.513   7.618 -0.4942  0.0137  0.2208
   13DOPE  H11X 1654   2.203   2.520   7.562 -0.4890  4.1111  0.4167
   13DOPE  H11Y 1655   2.145   2.488   7.719  0.3109  2.0489  0.4693
   13DOPE  C312 1656   2.027   2.393   7.558 -0.4418 -0.2575  1.2679
   13DOPE  H12X 1657   2.037   2.391   7.448 -2.6059 -1.7357  1.0331
   13DOPE  H12Y 1658   1.917   2.400   7.572 -0.5969 -0.9662  0.5082
   13DOPE  C313 1659   2.080   2.255   7.614 -0.3334 -0.3879  0.1489
   13DOPE  H13X 1660   2.050   2.235   7.719  0.0742  1.4605  0.6482
   13DOPE  H13Y 1661   2.026   2.181   7.550  1.9216 -2.3291  0.3572
   13DOPE  C314 1662   2.233   2.226   7.594  0.1117 -0.5359  0.5631
   13DOPE  H14X 1663   2.262   2.136   7.651  1.1364 -0.7168 -0.2223
   13DOPE  H14Y 1664   2.288   2.315   7.632 -1.9925  1.0956  0.0360
   13DOPE  C315 1665   2.275   2.205   7.444  1.2474 -0.8047  0.0068
   13DOPE  H15X 1666   2.241   2.299   7.396 -1.2129 -0.9815  1.2623
   13DOPE  H15Y 1667   2.224   2.112   7.411  1.6422 -1.0424  0.0447
   13DOPE  C316 1668   2.426   2.194   7.427  0.1444  0.5897 -0.0009
   13DOPE  H16X 1669   2.482   2.279   7.471  1.5089 -0.3912  0.2411
   13DOPE  H16Y 1670   2.448   2.210   7.319 -1.7579  1.6319 -0.2815
   13DOPE  C317 1671   2.487   2.054   7.453  0.2247 -0.4062  0.3676
   13DOPE  H17X 1672   2.460   2.019   7.554  0.3813 -1.6725 -0.0089
   13DOPE  H17Y 1673   2.433   1.988   7.382 -0.5415 -1.0223  1.5071
   13DOPE  C318 1674   2.639   2.042   7.435  0.4540  0.0891  0.4988
   13DOPE  H18X 1675   2.680   2.098   7.522 -2.0990 -0.1070  1.9113
   13DOPE  H18Y 1676   2.680   1.939   7.437 -0.8560 -0.4705 -0.4744
   13DOPE  H18Z 1677   2.676   2.090   7.341  0.7387 -2.0757 -0.5658
   14DOPE     N 1678   6.555   5.461   8.758 -0.1027  0.0557 -0.3160
   14DOPE   HN1 1679   6.464   5.457   8.808 -0.3964  2.1656 -0.5917
   14DOPE   HN2 1680   6.627   5.394   8.792  2.0850  1.1370 -2.4617
   14DOPE   HN3 1681   6.597   5.555   8.775 -0.2557  0.6679 -2.9239
   14DOPE   C12 1682   6.539   5.433   8.618 -0.2045 -0.0990 -0.0104
   14DOPE  H12A 1683   6.486   5.337   8.603  0.0283 -0.2540  0.1637
   14DOPE  H12B 1684   6.638   5.433   8.567 -0.1938 -3.1940 -0.1690
   14DOPE   C11 1685   6.450   5.544   8.559 -0.2039 -0.5663 -0.0059
   14DOPE  H11A 1686   6.461   5.544   8.448  0.0306 -0.6781  0.0193
   14DOPE  H11B 1687   6.493   5.640   8.596  0.0848 -0.0448 -1.5936
   14DOPE     P 1688   6.213   5.420   8.528 -0.0202 -0.2101 -0.4665
   14DOPE   O13 1689   6.073   5.451   8.556  0.2698  0.0931  0.2236
   14DOPE   O14 1690   6.259   5.283   8.571 -0.6081 -0.1891  0.2834
   14DOPE   O11 1691   6.252   5.443   8.372  0.5929  0.6372 -0.4480
   14DOPE   O12 1692   6.312   5.529   8.592  0.2861 -0.1177 -0.3933
   14DOPE    C1 1693   6.190   5.548   8.298 -0.4835  0.3373 -0.2937
   14DOPE    HA 1694   6.272   5.575   8.228  0.7780 -3.4078 -0.4837
   14DOPE    HB 1695   6.159   5.637   8.357  1.7548  0.4935  0.7402
   14DOPE    C2 1696   6.073   5.492   8.215  0.1971  0.7262  0.6769
   14DOPE    HS 1697   6.020   5.418   8.278  1.9371 -2.2709 -1.1493
   14DOPE   O21 1698   6.128   5.432   8.093 -0.1478  0.2381 -0.1187
   14DOPE   C21 1699   6.050   5.338   8.030 -0.1955 -0.3487  0.3213
   14DOPE   O22 1700   5.942   5.301   8.066  0.5063  0.2731 -0.1600
   14DOPE   C22 1701   6.112   5.303   7.896  0.2846  0.1793 -0.5763
   14DOPE   H2R 1702   6.222   5.291   7.905  0.4476  1.6480 -0.4001
   14DOPE   H2S 1703   6.083   5.390   7.833 -1.5989 -0.0118 -0.0413
   14DOPE    C3 1704   5.970   5.605   8.171 -0.2652 -0.3134 -0.9720
   14DOPE    HX 1705   6.026   5.700   8.178  0.5000 -0.8672  0.9612
   14DOPE    HY 1706   5.896   5.599   8.254  1.7645 -1.3249  0.8678
   14DOPE   O31 1707   5.920   5.598   8.040  0.3381 -0.4970 -0.7715
   14DOPE   C31 1708   5.794   5.553   8.019 -0.1290 -0.6577  0.4352
   14DOPE   O32 1709   5.710   5.533   8.106 -0.0006 -0.1646  0.1043
   14DOPE   C32 1710   5.766   5.546   7.871 -0.2489 -0.3559  0.9555
   14DOPE   H2X 1711   5.748   5.650   7.837  2.7959  0.0564  0.3256
   14DOPE   H2Y 1712   5.841   5.488   7.813 -1.2675 -3.4515  2.5017
   14DOPE   C23 1713   6.049   5.180   7.832 -0.3671 -1.1065  0.4340
   14DOPE   H3R 1714   5.938   5.179   7.840 -0.3950  1.8591  2.0054
   14DOPE   H3S 1715   6.096   5.090   7.878 -3.2978 -1.9880  1.9571
   14DOPE   C24 1716   6.081   5.175   7.684 -0.4143  0.1228  0.2250
   14DOPE   H4R 1717   6.192   5.177   7.682 -0.3167 -1.2132  1.7973
   14DOPE   H4S 1718   6.067   5.271   7.630 -1.3052  0.1468  0.4793
   14DOPE   C25 1719   6.000   5.073   7.603 -0.1044  0.3316  1.2138
   14DOPE   H5R 1720   5.891   5.095   7.608  0.0364  1.1729  0.7380
   14DOPE   H5S 1721   6.022   4.971   7.642 -0.2532  1.0250  3.1939
   14DOPE   C26 1722   6.041   5.087   7.457  0.2077 -0.4799  0.2437
   14DOPE   H6R 1723   6.146   5.122   7.460  0.6154 -1.5162 -0.9223
   14DOPE   H6S 1724   5.978   5.169   7.415 -1.1422 -0.7102  1.7280
   14DOPE   C27 1725   6.024   4.955   7.376 -0.2852 -0.1544 -0.3819
   14DOPE   H7R 1726   5.918   4.923   7.374 -0.6606  1.0589 -2.3400
   14DOPE   H7S 1727   6.098   4.889   7.428 -0.1765  1.2721  1.3560
   14DOPE   C28 1728   6.080   4.964   7.230  0.0361  0.6668  0.3677
   14DOPE   H8R 1729   6.105   4.860   7.201  1.7046  1.4780 -1.2794
   14DOPE   H8S 1730   6.181   5.009   7.238  1.2591 -1.6283 -1.0248
   14DOPE   C29 1731   5.999   5.030   7.125 -0.0801 -0.2007  0.6183
   14DOPE   H9R 1732   5.925   5.103   7.162  0.0516  1.1748 -1.6625
   14DOPE  C210 1733   6.012   5.009   6.989 -0.6349  0.0557  0.6379
   14DOPE  H10R 1734   5.941   5.057   6.921 -0.0299  1.1263  0.7359
   14DOPE  C211 1735   6.113   4.926   6.912  0.0149 -0.1566  0.0149
   14DOPE  H11R 1736   6.060   4.834   6.877 -0.1778  0.1753 -0.5979
   14DOPE  H11S 1737   6.188   4.885   6.983 -0.8867 -1.6869  0.1491
   14DOPE  C212 1738   6.176   5.004   6.796 -0.3851 -0.9871 -0.3529
   14DOPE  H12R 1739   6.266   4.958   6.749  0.3168 -0.7948  0.7486
   14DOPE  H12S 1740   6.206   5.104   6.834 -1.0666 -0.5878 -0.8477
   14DOPE  C213 1741   6.079   5.033   6.684  0.3932 -0.2379  0.5916
   14DOPE  H13R 1742   6.119   5.111   6.616 -1.4309  1.1265  1.0181
   14DOPE  H13S 1743   5.990   5.090   6.716  0.5674  0.6075 -0.3918
   14DOPE  C214 1744   6.044   4.908   6.610 -0.3764 -0.3165 -0.1855
   14DOPE  H14R 1745   5.988   4.836   6.674 -0.5910 -0.2965 -0.3501
   14DOPE  H14S 1746   6.139   4.858   6.583 -0.4675 -1.6429  1.7454
   14DOPE  C215 1747   5.977   4.945   6.478  0.1492  0.3963  0.8048
   14DOPE  H15R 1748   6.037   5.019   6.420  0.2652 -0.1254  0.2461
   14DOPE  H15S 1749   5.880   4.997   6.494 -0.4825  0.4389 -2.4671
   14DOPE  C216 1750   5.952   4.817   6.389  0.2731 -0.6001 -1.1602
   14DOPE  H16R 1751   5.882   4.755   6.449  0.6098  0.0935 -0.0287
   14DOPE  H16S 1752   6.047   4.759   6.387  0.6084 -0.1628  0.8016
   14DOPE  C217 1753   5.900   4.854   6.252  0.1648  0.5540  0.3882
   14DOPE  H17R 1754   5.816   4.925   6.265 -0.3492  0.6519 -2.6731
   14DOPE  H17S 1755   5.852   4.763   6.210  0.6004  0.2262  0.5897
   14DOPE  C218 1756   6.006   4.907   6.157  0.5300  0.5667 -0.1531
   14DOPE  H18R 1757   6.093   4.837   6.159 -0.3749 -0.5840  0.9618
   14DOPE  H18S 1758   6.033   5.012   6.181  0.4090  0.8979 -1.4242
   14DOPE  H18T 1759   5.960   4.892   6.058  0.7976 -2.3472  0.0681
   14DOPE   C33 1760   5.638   5.462   7.846 -0.8415  0.1996  0.1553
   14DOPE   H3X 1761   5.558   5.497   7.914 -2.4544 -1.4742 -0.7830
   14DOPE   H3Y 1762   5.647   5.353   7.866  0.6209 -0.5705 -3.7440
   14DOPE   C34 1763   5.587   5.463   7.699  0.1172  0.3223 -0.3878
   14DOPE   H4X 1764   5.487   5.419   7.681 -0.5531  0.8164  1.8745
   14DOPE   H4Y 1765   5.582   5.569   7.666  1.5186  0.7115  0.5732
   14DOPE   C35 1766   5.688   5.399   7.596  0.1296  0.1882  0.0780
   14DOPE   H5X 1767   5.692   5.290   7.621 -1.2142 -0.2836 -1.5751
   14DOPE   H5Y 1768   5.791   5.439   7.599  0.1207  0.1769  0.6651
   14DOPE   C36 1769   5.662   5.424   7.443 -0.0749 -0.3359 -0.2496
   14DOPE   H6X 1770   5.683   5.529   7.415 -0.9276  0.0336  0.4293
   14DOPE   H6Y 1771   5.560   5.384   7.423 -0.3675  1.1232 -1.8557
   14DOPE   C37 1772   5.749   5.341   7.345  0.0743  0.2595  0.9665
   14DOPE   H7X 1773   5.853   5.377   7.361  0.7726 -1.1204 -0.2304
   14DOPE   H7Y 1774   5.760   5.234   7.374 -2.4358 -0.5962 -0.9361
   14DOPE   C38 1775   5.711   5.347   7.195 -0.0985  0.8231  0.5110
   14DOPE   H8X 1776   5.608   5.307   7.189  0.8393 -1.7808  0.5091
   14DOPE   H8Y 1777   5.774   5.276   7.137 -1.0164  0.0544  0.4255
   14DOPE   C39 1778   5.718   5.484   7.139 -0.7999 -0.7543 -0.2867
   14DOPE   H9X 1779   5.816   5.533   7.142 -1.0507  0.0121 -2.5802
   14DOPE  C310 1780   5.612   5.561   7.090 -0.5635  0.2910 -0.8775
   14DOPE  H10X 1781   5.629   5.668   7.072  0.1033  0.4157  0.3378
   14DOPE  C311 1782   5.470   5.507   7.070  0.9965  0.4507  0.7021
   14DOPE  H11X 1783   5.442   5.508   6.963  1.1370 -0.5612  0.6516
   14DOPE  H11Y 1784   5.450   5.402   7.101  0.0126  1.1730  2.7320
   14DOPE  C312 1785   5.361   5.581   7.159 -0.7055 -0.1399  0.2752
   14DOPE  H12X 1786   5.390   5.572   7.266 -1.0066  0.7224  0.4383
   14DOPE  H12Y 1787   5.272   5.515   7.156  0.7748 -2.2440  0.2458
   14DOPE  C313 1788   5.322   5.727   7.129 -0.0269 -0.0278 -0.6917
   14DOPE  H13X 1789   5.243   5.754   7.202  0.0951 -2.1177  0.2842
   14DOPE  H13Y 1790   5.414   5.789   7.137 -1.4116  2.1229 -0.5683
   14DOPE  C314 1791   5.264   5.760   6.985  0.1624  0.7148  0.2721
   14DOPE  H14X 1792   5.344   5.746   6.910  0.8773  1.5531  0.8542
   14DOPE  H14Y 1793   5.235   5.867   6.980  3.6754  1.8343  0.6794
   14DOPE  C315 1794   5.135   5.674   6.965  0.6016  0.4471  0.4476
   14DOPE  H15X 1795   5.082   5.661   7.062  0.2468  0.2317  0.2279
   14DOPE  H15Y 1796   5.166   5.571   6.937  1.0246  0.7312 -0.1553
   14DOPE  C316 1797   5.041   5.717   6.851  0.1682  0.6138 -0.8448
   14DOPE  H16X 1798   4.980   5.630   6.817  1.4817 -0.6794  0.0063
   14DOPE  H16Y 1799   5.098   5.754   6.764 -1.6870  2.7219 -1.2918
   14DOPE  C317 1800   4.942   5.825   6.892  0.2589 -0.7718 -0.1128
   14DOPE  H17X 1801   4.918   5.817   7.000 -0.4122  0.1365 -0.1869
   14DOPE  H17Y 1802   4.985   5.926   6.878 -1.1920 -0.1767 -0.4041
   14DOPE  C318 1803   4.810   5.840   6.824 -0.5401 -0.5974  0.0995
   14DOPE  H18X 1804   4.770   5.737   6.831 -3.2352  0.2954 -0.6749
   14DOPE  H18Y 1805   4.743   5.915   6.874  0.8201  1.5584 -1.1517
   14DOPE  H18Z 1806   4.820   5.862   6.716  0.1236 -1.9565 -0.1291
   15DOPE     N 1807   1.021   2.594   8.716  0.3848  0.5640  0.2014
   15DOPE   HN1 1808   0.975   2.684   8.689 -1.2816 -0.5657 -0.9950
   15DOPE   HN2 1809   1.098   2.621   8.779  0.3711  0.3977  0.2901
   15DOPE   HN3 1810   1.058   2.545   8.632  2.3442 -0.3007  1.5080
   15DOPE   C12 1811   0.916   2.523   8.797  0.5917 -0.5633 -0.5685
   15DOPE  H12A 1812   0.859   2.591   8.865 -0.0869  0.6422 -2.2610
   15DOPE  H12B 1813   0.970   2.442   8.850 -1.5487 -1.0281  1.0106
   15DOPE   C11 1814   0.812   2.451   8.709 -0.6364  0.8252 -0.9037
   15DOPE  H11A 1815   0.748   2.395   8.782  1.3318 -2.3515 -1.4498
   15DOPE  H11B 1816   0.852   2.370   8.645 -0.6028  1.0116 -1.1187
   15DOPE     P 1817   0.612   2.523   8.552  0.3080 -0.4212 -0.1038
   15DOPE   O13 1818   0.526   2.646   8.532 -0.2392  0.3318 -0.8838
   15DOPE   O14 1819   0.539   2.407   8.608  0.2972 -0.2291 -0.2013
   15DOPE   O11 1820   0.677   2.492   8.415 -0.2763  0.2985  0.0533
   15DOPE   O12 1821   0.739   2.551   8.643  0.6186 -0.4490  0.2505
   15DOPE    C1 1822   0.779   2.563   8.349  0.0282 -0.9456  0.1679
   15DOPE    HA 1823   0.873   2.536   8.401  0.2551 -0.7287 -0.1295
   15DOPE    HB 1824   0.758   2.672   8.352  0.5521 -0.7202 -2.4443
   15DOPE    C2 1825   0.796   2.528   8.195 -0.1916  0.3393 -0.3240
   15DOPE    HS 1826   0.834   2.615   8.138  1.3034  0.1321  0.3110
   15DOPE   O21 1827   0.676   2.481   8.138 -0.2366 -0.9871 -0.6916
   15DOPE   C21 1828   0.580   2.572   8.114  0.1077 -0.3010  0.4416
   15DOPE   O22 1829   0.600   2.693   8.134  0.3793  0.0418 -0.3244
   15DOPE   C22 1830   0.461   2.501   8.055  0.4482 -0.6794  0.0048
   15DOPE   H2R 1831   0.428   2.425   8.129  2.5998 -0.5106  1.2545
   15DOPE   H2S 1832   0.490   2.452   7.960  1.3102  1.5410 -0.9471
   15DOPE    C3 1833   0.922   2.428   8.186  0.2677  0.5520 -0.0470
   15DOPE    HX 1834   0.890   2.334   8.236 -0.7012  0.8179 -0.1419
   15DOPE    HY 1835   1.012   2.472   8.234  0.5809 -0.1874  0.0645
   15DOPE   O31 1836   0.945   2.397   8.049  0.0823 -0.2768 -0.0929
   15DOPE   C31 1837   1.063   2.371   8.007 -0.2945  0.0787 -0.2493
   15DOPE   O32 1838   1.164   2.387   8.071  0.0438 -0.4818 -0.0065
   15DOPE   C32 1839   1.056   2.337   7.858  0.9829 -0.6733 -0.9706
   15DOPE   H2X 1840   0.995   2.245   7.847 -1.7126  0.9244 -0.3362
   15DOPE   H2Y 1841   0.986   2.412   7.814 -0.1867 -1.8557 -1.1823
   15DOPE   C23 1842   0.353   2.610   8.027 -0.1663  1.0781 -0.2561
   15DOPE   H3R 1843   0.389   2.677   7.946  0.3974  1.0238 -0.0550
   15DOPE   H3S 1844   0.332   2.667   8.120 -1.9764 -1.1258  0.7922
   15DOPE   C24 1845   0.220   2.560   7.963 -0.2983 -0.9649  0.5767
   15DOPE   H4R 1846   0.135   2.631   7.969  0.0479 -0.6480  3.5454
   15DOPE   H4S 1847   0.206   2.473   8.031 -1.6691 -0.7776  0.5736
   15DOPE   C25 1848   0.225   2.508   7.823 -0.6517 -0.0571  1.1578
   15DOPE   H5R 1849   0.312   2.440   7.812 -0.5674  0.2232  0.0092
   15DOPE   H5S 1850   0.261   2.589   7.756  0.5844 -2.1635 -0.8563
   15DOPE   C26 1851   0.091   2.442   7.770 -0.2517  0.2724 -0.1811
   15DOPE   H6R 1852   0.011   2.520   7.767 -0.1608  0.3884  0.2849
   15DOPE   H6S 1853   0.064   2.366   7.847  0.5281  0.0762 -0.0914
   15DOPE   C27 1854   0.106   2.383   7.638  0.3160  0.8995 -0.2623
   15DOPE   H7R 1855   0.174   2.296   7.632 -0.5759  0.2675 -2.5305
   15DOPE   H7S 1856   0.152   2.461   7.574 -0.3241 -0.4200 -2.4596
   15DOPE   C28 1857  -0.028   2.347   7.571  0.1780 -0.5754  0.2963
   15DOPE   H8R 1858  -0.012   2.319   7.464 -0.4722  1.7235 -0.4522
   15DOPE   H8S 1859  -0.094   2.436   7.567  1.1867  0.2212  1.1694
   15DOPE   C29 1860  -0.104   2.254   7.657  0.5125 -0.0462  0.1561
   15DOPE   H9R 1861  -0.115   2.290   7.760  2.3219 -1.5911  0.9520
   15DOPE  C210 1862  -0.147   2.129   7.621  0.0376  0.2261 -0.4650
   15DOPE  H10R 1863  -0.207   2.078   7.698  0.4784  0.2434 -0.1054
   15DOPE  C211 1864  -0.112   2.063   7.490 -0.0303 -0.0427 -0.5890
   15DOPE  H11R 1865  -0.108   1.954   7.512  1.3149  0.1306  0.1446
   15DOPE  H11S 1866  -0.007   2.089   7.467  0.2343  0.8488  1.3559
   15DOPE  C212 1867  -0.193   2.093   7.365  0.4959  0.3521 -0.0028
   15DOPE  H12R 1868  -0.185   2.203   7.353 -1.6279  0.3451 -2.2993
   15DOPE  H12S 1869  -0.297   2.056   7.379  1.5688 -2.2353  2.0053
   15DOPE  C213 1870  -0.125   2.031   7.238 -0.0452  0.4586 -0.2793
   15DOPE  H13R 1871  -0.104   1.923   7.254  1.0018  0.5459 -0.9778
   15DOPE  H13S 1872  -0.027   2.079   7.216  0.0233  1.0233  1.1295
   15DOPE  C214 1873  -0.206   2.047   7.112  0.4331  0.0687  0.4246
   15DOPE  H14R 1874  -0.224   2.156   7.095 -1.1510 -0.1820  0.2726
   15DOPE  H14S 1875  -0.304   1.997   7.129 -0.5379  2.2758  1.7815
   15DOPE  C215 1876  -0.142   1.981   6.992  0.2935 -0.2859 -0.1234
   15DOPE  H15R 1877  -0.210   1.951   6.909  0.2246  0.3129 -0.2853
   15DOPE  H15S 1878  -0.097   1.884   7.023  1.1793  0.6013  1.4886
   15DOPE  C216 1879  -0.035   2.065   6.921  0.2536 -0.2683  0.1750
   15DOPE  H16R 1880   0.030   2.090   7.007 -0.5336  0.7540  0.4948
   15DOPE  H16S 1881  -0.081   2.162   6.892  0.4638  0.0452  0.8696
   15DOPE  C217 1882   0.035   1.992   6.810  0.0645  0.0745  0.1244
   15DOPE  H17R 1883  -0.046   1.965   6.739 -0.3454 -2.5173  1.4704
   15DOPE  H17S 1884   0.067   1.891   6.844 -1.6556 -0.6157 -0.2048
   15DOPE  C218 1885   0.153   2.069   6.742  0.7493 -0.0828  1.2020
   15DOPE  H18R 1886   0.188   2.148   6.812  1.7296  0.7085 -0.1486
   15DOPE  H18S 1887   0.111   2.109   6.647 -2.7594 -3.4365  1.0805
   15DOPE  H18T 1888   0.240   2.004   6.722 -0.1600 -0.3612 -2.5855
   15DOPE   C33 1889   1.178   2.323   7.768  0.0283 -0.0298 -0.0505
   15DOPE   H3X 1890   1.235   2.248   7.827 -1.3947  0.5304  2.1780
   15DOPE   H3Y 1891   1.229   2.421   7.778 -0.2423  0.1685 -0.5616
   15DOPE   C34 1892   1.154   2.274   7.625 -0.5737  0.3086 -0.2017
   15DOPE   H4X 1893   1.104   2.175   7.635 -0.9691  0.6838  1.8891
   15DOPE   H4Y 1894   1.076   2.334   7.574  0.0116  1.1717 -0.0930
   15DOPE   C35 1895   1.279   2.269   7.545 -0.9983 -0.1520  0.0539
   15DOPE   H5X 1896   1.361   2.222   7.603 -1.2692 -1.4613 -0.5802
   15DOPE   H5Y 1897   1.313   2.370   7.513 -1.2909  0.4556  1.5754
   15DOPE   C36 1898   1.258   2.172   7.423  0.4349 -0.0528  0.6035
   15DOPE   H6X 1899   1.236   2.069   7.457 -2.8519  0.1948 -0.3689
   15DOPE   H6Y 1900   1.355   2.164   7.370 -0.1053 -0.5470 -0.3390
   15DOPE   C37 1901   1.159   2.233   7.323 -0.0984  0.1494 -0.9298
   15DOPE   H7X 1902   1.059   2.254   7.367 -0.6443  0.3802 -2.2384
   15DOPE   H7Y 1903   1.207   2.331   7.303 -0.5414  0.4631 -0.4812
   15DOPE   C38 1904   1.153   2.161   7.193 -0.2390  0.4767  1.0067
   15DOPE   H8X 1905   1.126   2.053   7.192 -1.1161  0.6698 -0.7022
   15DOPE   H8Y 1906   1.257   2.163   7.153  0.0189 -1.3486  1.5004
   15DOPE   C39 1907   1.063   2.221   7.083 -0.4434 -0.4112  0.0039
   15DOPE   H9X 1908   0.958   2.234   7.114 -0.9178  0.3339 -1.8488
   15DOPE  C310 1909   1.092   2.261   6.957 -0.0862 -0.1539 -0.2484
   15DOPE  H10X 1910   1.009   2.296   6.894  0.8488  0.7942 -1.0067
   15DOPE  C311 1911   1.230   2.247   6.892 -0.0203  0.5212 -0.5151
   15DOPE  H11X 1912   1.281   2.345   6.891  1.7312 -0.2189  2.5486
   15DOPE  H11Y 1913   1.298   2.176   6.944  1.9843  0.2603 -3.2314
   15DOPE  C312 1914   1.208   2.207   6.742 -0.1903  0.4069 -0.2072
   15DOPE  H12X 1915   1.296   2.243   6.685 -0.6270  2.0223  0.0783
   15DOPE  H12Y 1916   1.130   2.275   6.702 -1.2044 -0.3831  0.3700
   15DOPE  C313 1917   1.193   2.050   6.727  0.4785 -0.4171 -0.2019
   15DOPE  H13X 1918   1.284   1.996   6.759 -0.5608 -2.6919 -0.9056
   15DOPE  H13Y 1919   1.110   2.018   6.794  0.9475 -1.2267 -0.0069
   15DOPE  C314 1920   1.161   2.010   6.577  0.2071  0.4432 -0.6761
   15DOPE  H14X 1921   1.242   2.043   6.509 -0.5729 -0.0005 -1.8500
   15DOPE  H14Y 1922   1.068   2.059   6.542 -0.0933  0.5600  0.2419
   15DOPE  C315 1923   1.146   1.858   6.568 -0.5546  0.2102  0.2469
   15DOPE  H15X 1924   1.212   1.792   6.629 -1.2295  0.5050  1.3312
   15DOPE  H15Y 1925   1.166   1.836   6.461  0.6998  0.3363  0.4318
   15DOPE  C316 1926   1.005   1.820   6.610  0.2557 -1.0035  0.2865
   15DOPE  H16X 1927   0.945   1.900   6.561 -0.0188 -1.7751 -0.6548
   15DOPE  H16Y 1928   0.991   1.822   6.720  0.3994  0.4129  0.3050
   15DOPE  C317 1929   0.954   1.688   6.551  0.1859  0.1691 -1.1234
   15DOPE  H17X 1930   1.005   1.671   6.454 -1.0036 -2.8278 -1.3127
   15DOPE  H17Y 1931   0.982   1.604   6.618 -2.5336 -0.3549 -0.5400
   15DOPE  C318 1932   0.800   1.686   6.536  0.2567  0.0646  0.1196
   15DOPE  H18X 1933   0.771   1.753   6.452 -0.3326  1.0332  1.0634
   15DOPE  H18Y 1934   0.762   1.583   6.520  1.7594 -0.3987 -0.5852
   15DOPE  H18Z 1935   0.749   1.722   6.629 -3.0392  1.2684 -1.9494
   16DOPE     N 1936   6.388   5.085   8.691 -0.5014 -0.2039 -0.4948
   16DOPE   HN1 1937   6.334   5.053   8.774  0.8540  2.4034  1.5526
   16DOPE   HN2 1938   6.476   5.128   8.726 -1.4669  0.0852  1.7023
   16DOPE   HN3 1939   6.339   5.164   8.644 -0.9725 -0.0220  0.2928
   16DOPE   C12 1940   6.402   4.971   8.587 -0.4655 -0.4027  0.1725
   16DOPE  H12A 1941   6.465   5.012   8.505  1.1081 -0.4060  1.3413
   16DOPE  H12B 1942   6.300   4.943   8.553  0.2007  0.4200 -2.8500
   16DOPE   C11 1943   6.471   4.848   8.654  0.3732  0.4002  0.3894
   16DOPE  H11A 1944   6.564   4.886   8.701  0.2583  1.9476 -0.5490
   16DOPE  H11B 1945   6.489   4.777   8.570 -1.1600 -1.4165  1.5154
   16DOPE     P 1946   6.409   4.653   8.795  0.3229 -0.6481 -0.0154
   16DOPE   O13 1947   6.303   4.625   8.891 -0.6036  0.5708 -0.3414
   16DOPE   O14 1948   6.550   4.649   8.842 -0.7278 -0.0872  0.3019
   16DOPE   O11 1949   6.396   4.557   8.680 -0.6072  0.0035  0.4493
   16DOPE   O12 1950   6.378   4.797   8.744 -0.2552 -0.1198 -0.1368
   16DOPE    C1 1951   6.280   4.554   8.590 -0.2189 -0.2771 -0.2428
   16DOPE    HA 1952   6.232   4.654   8.581 -3.1172 -1.1541  3.2613
   16DOPE    HB 1953   6.203   4.505   8.652 -2.6525  2.2131 -1.0851
   16DOPE    C2 1954   6.317   4.482   8.457  0.4306  0.6513 -0.5604
   16DOPE    HS 1955   6.231   4.502   8.389 -0.6793  1.4669  1.0165
   16DOPE   O21 1956   6.337   4.343   8.472 -0.1143 -0.0106  0.3557
   16DOPE   C21 1957   6.235   4.264   8.493  0.6790  0.1707  0.0584
   16DOPE   O22 1958   6.116   4.296   8.523 -0.1461  0.6019  0.1384
   16DOPE   C22 1959   6.284   4.121   8.483  0.1048  0.0432 -0.2594
   16DOPE   H2R 1960   6.194   4.056   8.473  0.2643 -0.0836 -0.9070
   16DOPE   H2S 1961   6.341   4.103   8.576  0.5753 -1.0596 -0.7391
   16DOPE    C3 1962   6.435   4.549   8.390  0.0309 -0.5138 -0.5348
   16DOPE    HX 1963   6.510   4.553   8.472  1.8242  2.3421 -2.1104
   16DOPE    HY 1964   6.420   4.658   8.375 -1.4737 -0.5376  0.6474
   16DOPE   O31 1965   6.490   4.477   8.277 -0.3214 -0.9583 -0.1589
   16DOPE   C31 1966   6.424   4.514   8.165 -0.0017  0.2100 -0.3859
   16DOPE   O32 1967   6.339   4.599   8.166  0.2179  0.1568  0.3914
   16DOPE   C32 1968   6.468   4.439   8.042 -0.2405 -0.7548  0.3996
   16DOPE   H2X 1969   6.548   4.496   7.989  0.7915 -1.6304  0.9710
   16DOPE   H2Y 1970   6.525   4.349   8.073  0.1014 -1.0638 -1.0550
   16DOPE   C23 1971   6.379   4.096   8.360  0.4511  0.2952 -0.0716
   16DOPE   H3R 1972   6.399   3.987   8.355 -3.3742 -0.4856 -3.6476
   16DOPE   H3S 1973   6.465   4.166   8.363  0.0364  0.9039 -1.4272
   16DOPE   C24 1974   6.313   4.130   8.229 -0.1048 -0.0673  0.7931
   16DOPE   H4R 1975   6.375   4.103   8.142 -2.6574  0.9172 -1.4797
   16DOPE   H4S 1976   6.295   4.239   8.221  0.9914  0.1093  0.5850
   16DOPE   C25 1977   6.190   4.040   8.201 -0.3611  0.3096  0.4772
   16DOPE   H5R 1978   6.127   4.036   8.292 -0.7733  2.7807  0.3734
   16DOPE   H5S 1979   6.226   3.939   8.171 -1.1418 -0.0039  0.5746
   16DOPE   C26 1980   6.098   4.096   8.089 -0.0658 -0.2121  0.5555
   16DOPE   H6R 1981   6.037   4.013   8.048 -2.3536  1.3607  0.6041
   16DOPE   H6S 1982   6.157   4.135   8.003 -2.3710 -0.0619 -1.0661
   16DOPE   C27 1983   6.010   4.222   8.136 -0.1377  0.1595 -0.1348
   16DOPE   H7R 1984   6.087   4.299   8.157  3.4029 -2.5831 -1.7868
   16DOPE   H7S 1985   5.944   4.195   8.221 -0.1569 -2.0406 -0.7740
   16DOPE   C28 1986   5.915   4.285   8.028  0.0728  0.7154 -1.2106
   16DOPE   H8R 1987   5.975   4.354   7.964  1.0828  1.3270  0.3308
   16DOPE   H8S 1988   5.857   4.357   8.088 -2.7799 -2.6949  0.4807
   16DOPE   C29 1989   5.821   4.188   7.961  0.3886  0.7274  0.1690
   16DOPE   H9R 1990   5.731   4.155   8.015 -0.2236  2.1689  0.0568
   16DOPE  C210 1991   5.834   4.133   7.837  0.7356  0.5372 -0.3127
   16DOPE  H10R 1992   5.757   4.060   7.807 -1.2429  1.3511  2.3770
   16DOPE  C211 1993   5.938   4.165   7.733  0.1930 -0.1763  0.1889
   16DOPE  H11R 1994   6.037   4.181   7.780  1.3168  2.0004 -2.6730
   16DOPE  H11S 1995   5.919   4.259   7.679 -0.3614  0.2967  1.1676
   16DOPE  C212 1996   5.939   4.061   7.626 -0.8183  0.0729  0.5206
   16DOPE  H12R 1997   6.003   4.109   7.549 -1.5904  1.8383  0.9285
   16DOPE  H12S 1998   5.839   4.047   7.580 -0.8712  2.9770 -0.4556
   16DOPE  C213 1999   6.009   3.928   7.671  0.2816  0.5914 -0.1058
   16DOPE  H13R 2000   5.941   3.868   7.735 -0.5668  1.3380 -0.2946
   16DOPE  H13S 2001   6.095   3.949   7.738  1.3167 -1.5260 -0.6758
   16DOPE  C214 2002   6.051   3.840   7.559  0.1569  0.1189  0.1619
   16DOPE  H14R 2003   6.110   3.755   7.598  0.5979  0.3561  0.0216
   16DOPE  H14S 2004   6.110   3.901   7.487  1.5728 -0.7129  0.5921
   16DOPE  C215 2005   5.928   3.787   7.481 -0.2428  0.4783 -0.1595
   16DOPE  H15R 2006   5.871   3.876   7.447 -2.4681 -0.3471  1.2057
   16DOPE  H15S 2007   5.859   3.734   7.550 -1.5109 -0.3918 -2.0407
   16DOPE  C216 2008   5.961   3.696   7.357 -0.5829  0.3381  0.2224
   16DOPE  H16R 2009   5.866   3.653   7.320 -0.7329 -0.0999  1.1044
   16DOPE  H16S 2010   6.033   3.613   7.377 -0.9080  0.0058  0.0077
   16DOPE  C217 2011   6.023   3.786   7.243 -0.7242 -0.0175  0.1473
   16DOPE  H17R 2012   6.112   3.830   7.293 -1.0348 -0.4860  1.1354
   16DOPE  H17S 2013   5.959   3.875   7.230 -1.0694 -0.0601  1.4352
   16DOPE  C218 2014   6.032   3.734   7.098  0.5216  0.8134 -0.2631
   16DOPE  H18R 2015   6.099   3.645   7.097 -0.9786 -0.4090  1.5454
   16DOPE  H18S 2016   6.078   3.807   7.028 -0.2685  1.4444 -0.1360
   16DOPE  H18T 2017   5.930   3.704   7.064  0.9023 -0.7932 -0.1027
   16DOPE   C33 2018   6.352   4.393   7.952 -0.3413  0.3631  1.1768
   16DOPE   H3X 2019   6.295   4.477   7.907  2.1151  3.6395  3.6620
   16DOPE   H3Y 2020   6.275   4.342   8.014  0.3929 -2.1560  0.1417
   16DOPE   C34 2021   6.425   4.317   7.833  0.0145  0.1539  0.3446
   16DOPE   H4X 2022   6.512   4.374   7.796 -0.4183  0.2182 -0.6027
   16DOPE   H4Y 2023   6.482   4.231   7.874 -0.2634 -0.0909  0.2202
   16DOPE   C35 2024   6.329   4.289   7.719  0.6800 -0.5083 -0.1726
   16DOPE   H5X 2025   6.311   4.385   7.666  2.6264 -1.2107 -2.3185
   16DOPE   H5Y 2026   6.237   4.248   7.765 -0.3896  2.4002  0.4626
   16DOPE   C36 2027   6.386   4.203   7.607  0.6084 -0.4202 -0.0093
   16DOPE   H6X 2028   6.381   4.102   7.654 -2.0749  0.1547  1.0955
   16DOPE   H6Y 2029   6.486   4.233   7.570  0.6568  0.2359  0.6317
   16DOPE   C37 2030   6.288   4.178   7.491  0.2540 -0.4499  0.2378
   16DOPE   H7X 2031   6.323   4.088   7.437  1.1200 -0.9939  1.6559
   16DOPE   H7Y 2032   6.191   4.161   7.543  0.2745 -0.8897  0.1359
   16DOPE   C38 2033   6.284   4.293   7.394 -0.0861 -0.2347 -0.3328
   16DOPE   H8X 2034   6.382   4.289   7.341  0.0552 -2.1933 -0.0138
   16DOPE   H8Y 2035   6.286   4.393   7.441  1.3168 -0.4435  0.0877
   16DOPE   C39 2036   6.167   4.282   7.302 -0.3562  0.0084  0.3759
   16DOPE   H9X 2037   6.165   4.181   7.260 -1.1815  0.9706 -2.0584
   16DOPE  C310 2038   6.066   4.371   7.276  0.0307  0.0555 -0.4637
   16DOPE  H10X 2039   5.987   4.346   7.203 -0.4562 -2.1820  0.7213
   16DOPE  C311 2040   6.051   4.514   7.336 -0.1039 -0.0915 -0.1444
   16DOPE  H11X 2041   6.115   4.530   7.425  0.2537  4.0717 -0.9395
   16DOPE  H11Y 2042   6.093   4.586   7.263 -1.8302 -0.4223 -1.5378
   16DOPE  C312 2043   5.910   4.572   7.378  0.6202 -0.0553  0.4134
   16DOPE  H12X 2044   5.934   4.674   7.414 -2.0016  0.7263  0.1282
   16DOPE  H12Y 2045   5.861   4.513   7.459  0.9259  1.1707  1.5218
   16DOPE  C313 2046   5.804   4.582   7.269 -0.3264 -0.6207  0.2687
   16DOPE  H13X 2047   5.765   4.480   7.245  0.7714 -1.4544  1.8278
   16DOPE  H13Y 2048   5.725   4.650   7.306  0.7558  0.8252 -0.0198
   16DOPE  C314 2049   5.847   4.636   7.126 -0.1298  0.6410  0.0122
   16DOPE  H14X 2050   5.941   4.584   7.096 -0.6899 -1.0570  1.0367
   16DOPE  H14Y 2051   5.879   4.742   7.127  1.7085  0.1289  0.8224
   16DOPE  C315 2052   5.737   4.618   7.024  0.3761  0.3545 -0.1102
   16DOPE  H15X 2053   5.653   4.680   7.063  2.4781  1.8627  2.4125
   16DOPE  H15Y 2054   5.702   4.513   7.017  1.7252 -0.2499  1.4321
   16DOPE  C316 2055   5.776   4.662   6.879  0.1274  0.3807 -0.3610
   16DOPE  H16X 2056   5.854   4.590   6.844 -0.8388 -1.3388  0.8494
   16DOPE  H16Y 2057   5.827   4.760   6.888  2.5427 -0.7860 -0.5179
   16DOPE  C317 2058   5.659   4.650   6.788 -0.1553 -0.2275  0.2921
   16DOPE  H17X 2059   5.562   4.658   6.841 -0.0103 -2.2449  0.9408
   16DOPE  H17Y 2060   5.659   4.738   6.720 -1.9708 -1.5022 -1.5106
   16DOPE  C318 2061   5.654   4.521   6.703  0.4525  0.5105  0.4359
   16DOPE  H18X 2062   5.647   4.426   6.760 -2.3789  0.7832  0.6765
   16DOPE  H18Y 2063   5.570   4.527   6.631  0.4444 -2.3218  0.1286
   16DOPE  H18Z 2064   5.749   4.526   6.646  0.2759  0.5666  0.1474
   17DOPE     N 2065   1.975   7.341   8.602  0.6233 -0.1777 -0.8342
   17DOPE   HN1 2066   1.921   7.326   8.690  1.8929 -2.0165 -0.3109
   17DOPE   HN2 2067   1.977   7.247   8.556 -0.4589 -1.5452  1.7103
   17DOPE   HN3 2068   2.073   7.368   8.620  0.4302  2.1224 -2.7405
   17DOPE   C12 2069   1.917   7.436   8.502 -0.5916 -0.2967  0.5143
   17DOPE  H12A 2070   1.931   7.542   8.532 -2.1940  0.1550 -0.2657
   17DOPE  H12B 2071   1.808   7.413   8.501 -0.7421  0.4409 -0.2339
   17DOPE   C11 2072   1.965   7.408   8.355 -0.0839 -0.5633 -0.3454
   17DOPE  H11A 2073   1.886   7.466   8.302  0.8950  0.9719 -0.1721
   17DOPE  H11B 2074   1.949   7.300   8.332 -0.8190 -0.5297 -0.0293
   17DOPE     P 2075   2.132   7.605   8.326  0.1859 -0.0079 -0.1455
   17DOPE   O13 2076   2.240   7.640   8.235 -0.8349  0.2575 -0.4053
   17DOPE   O14 2077   2.137   7.666   8.462  0.2816  0.1782  0.0215
   17DOPE   O11 2078   1.993   7.654   8.257  0.1192  0.3896  0.4694
   17DOPE   O12 2079   2.105   7.444   8.336 -0.1578 -0.1203  0.0808
   17DOPE    C1 2080   1.982   7.649   8.115  0.5300  0.0140  0.5941
   17DOPE    HA 2081   1.884   7.605   8.087 -0.6191  0.5907  3.3551
   17DOPE    HB 2082   2.065   7.594   8.065 -0.0454  1.6563 -2.4034
   17DOPE    C2 2083   1.988   7.795   8.056  0.1136  0.0423 -0.0105
   17DOPE    HS 2084   1.979   7.862   8.144 -0.0278  0.2980 -0.2202
   17DOPE   O21 2085   1.867   7.811   7.974  0.0758 -0.3157 -0.7999
   17DOPE   C21 2086   1.815   7.933   7.977 -0.1700  0.2573  0.7763
   17DOPE   O22 2087   1.842   8.017   8.059  0.2509  0.4612  0.4268
   17DOPE   C22 2088   1.696   7.941   7.884 -0.2586 -0.9015  0.7423
   17DOPE   H2R 2089   1.609   7.962   7.950 -1.0859 -1.8077 -0.0445
   17DOPE   H2S 2090   1.676   7.841   7.841 -0.0055 -0.5648 -0.1938
   17DOPE    C3 2091   2.121   7.831   7.981 -0.6396  0.3303 -0.0222
   17DOPE    HX 2092   2.124   7.749   7.905 -0.3078 -1.2419  1.6060
   17DOPE    HY 2093   2.216   7.824   8.037  0.1970  2.4124 -1.0913
   17DOPE   O31 2094   2.102   7.954   7.906  0.3087 -0.0119  0.0108
   17DOPE   C31 2095   2.163   8.066   7.957  0.4081  0.4258 -0.0153
   17DOPE   O32 2096   2.241   8.057   8.051 -0.3004  0.1085 -0.2994
   17DOPE   C32 2097   2.128   8.199   7.879  0.2421 -0.6621 -0.2979
   17DOPE   H2X 2098   2.040   8.169   7.817  0.1004 -1.9861  0.5023
   17DOPE   H2Y 2099   2.114   8.270   7.963 -0.2034 -3.1352  1.8789
   17DOPE   C23 2100   1.715   8.033   7.760  0.0625 -0.9488  0.1370
   17DOPE   H3R 2101   1.742   8.133   7.801 -1.7376 -1.3076  2.4041
   17DOPE   H3S 2102   1.614   8.048   7.714  0.3969  2.5677  0.2130
   17DOPE   C24 2103   1.812   7.981   7.655 -0.7417  0.1820  0.1515
   17DOPE   H4R 2104   1.768   7.888   7.615  1.4755 -0.8212 -0.0860
   17DOPE   H4S 2105   1.906   7.944   7.702 -0.9250  1.7819  1.9156
   17DOPE   C25 2106   1.847   8.071   7.535  0.4569 -0.3753 -0.0453
   17DOPE   H5R 2107   1.890   8.166   7.574 -1.1532  0.7408 -0.8493
   17DOPE   H5S 2108   1.750   8.086   7.482  1.0857 -0.1656 -1.1687
   17DOPE   C26 2109   1.957   8.004   7.449 -0.9156  0.4280  0.9067
   17DOPE   H6R 2110   2.050   7.994   7.509  0.9928  1.8760 -1.6268
   17DOPE   H6S 2111   1.980   8.063   7.358  0.2904  0.1158  0.9910
   17DOPE   C27 2112   1.905   7.876   7.385  0.0103 -0.5624  0.1370
   17DOPE   H7R 2113   1.890   7.795   7.460 -1.8632  0.0201  0.4426
   17DOPE   H7S 2114   1.988   7.845   7.319  2.0255  0.7520  1.9179
   17DOPE   C28 2115   1.777   7.889   7.289  0.0735  0.1088 -0.3221
   17DOPE   H8R 2116   1.805   7.976   7.225 -1.6270 -0.7754 -2.3945
   17DOPE   H8S 2117   1.687   7.913   7.350  2.1102 -0.1448  2.9946
   17DOPE   C29 2118   1.750   7.765   7.214  0.2195 -0.2068  1.2415
   17DOPE   H9R 2119   1.739   7.673   7.272  0.9554 -1.7757 -0.9871
   17DOPE  C210 2120   1.754   7.753   7.081 -0.8522 -0.6919  0.3794
   17DOPE  H10R 2121   1.730   7.654   7.041 -2.2499 -0.3571  0.3293
   17DOPE  C211 2122   1.752   7.869   6.992 -0.7125 -0.5714 -0.0383
   17DOPE  H11R 2123   1.855   7.899   6.964 -0.8945 -0.4114 -0.5446
   17DOPE  H11S 2124   1.704   7.956   7.041 -0.4677  0.1901 -1.0995
   17DOPE  C212 2125   1.674   7.841   6.861  0.3586  1.0321  1.1032
   17DOPE  H12R 2126   1.574   7.797   6.877 -0.2035  2.0090  0.3640
   17DOPE  H12S 2127   1.746   7.775   6.809 -0.2301 -1.0744  2.8138
   17DOPE  C213 2128   1.664   7.970   6.778  0.0777  0.3519  0.2452
   17DOPE  H13R 2129   1.769   7.994   6.749  0.9555 -0.1294  2.7437
   17DOPE  H13S 2130   1.628   8.054   6.840  1.0745  0.4256  0.7460
   17DOPE  C214 2131   1.585   7.958   6.652 -0.5745 -0.2109  0.5422
   17DOPE  H14R 2132   1.477   7.945   6.676 -0.9999  2.2044  0.1721
   17DOPE  H14S 2133   1.616   7.871   6.590 -1.0309 -0.0743  0.1130
   17DOPE  C215 2134   1.601   8.083   6.567 -0.6326 -0.0542 -0.3369
   17DOPE  H15R 2135   1.690   8.068   6.503  0.1412  0.2350  0.6560
   17DOPE  H15S 2136   1.624   8.172   6.630 -1.5518 -0.8003  1.1162
   17DOPE  C216 2137   1.485   8.122   6.474  0.1856 -0.5081 -0.0590
   17DOPE  H16R 2138   1.518   8.201   6.402  1.1084 -1.9844 -1.3166
   17DOPE  H16S 2139   1.396   8.158   6.531  0.0931 -1.3082  0.3059
   17DOPE  C217 2140   1.444   8.009   6.380 -0.3616  0.1195  0.6091
   17DOPE  H17R 2141   1.405   7.928   6.445  0.1639 -0.4849  0.1786
   17DOPE  H17S 2142   1.529   7.960   6.328 -1.4795 -1.5051  0.2435
   17DOPE  C218 2143   1.344   8.045   6.270  0.2101  0.2423 -0.3243
   17DOPE  H18R 2144   1.245   8.075   6.310  1.0235  2.5595  0.0970
   17DOPE  H18S 2145   1.331   7.967   6.192 -0.1255 -0.4373  0.3953
   17DOPE  H18T 2146   1.381   8.131   6.210 -1.4314  0.0917 -1.6426
   17DOPE   C33 2147   2.236   8.249   7.790  0.1462  0.1711  0.2111
   17DOPE   H3X 2148   2.335   8.247   7.840  0.4852  1.9056 -0.3090
   17DOPE   H3Y 2149   2.224   8.356   7.760 -1.0460 -0.4656 -1.8186
   17DOPE   C34 2150   2.251   8.178   7.655 -0.7717 -0.1984 -0.2989
   17DOPE   H4X 2151   2.265   8.068   7.669 -2.9471 -0.1771  3.3157
   17DOPE   H4Y 2152   2.155   8.196   7.602 -1.0135  0.5049  0.3736
   17DOPE   C35 2153   2.354   8.232   7.563 -0.0065 -0.7518 -0.2691
   17DOPE   H5X 2154   2.458   8.219   7.598  1.0674  1.2889 -2.3937
   17DOPE   H5Y 2155   2.345   8.342   7.548  0.4771 -0.4520  1.3542
   17DOPE   C36 2156   2.352   8.172   7.424 -0.2601  0.7966  0.4614
   17DOPE   H6X 2157   2.258   8.184   7.366  0.7572  0.8824 -1.2638
   17DOPE   H6Y 2158   2.371   8.064   7.438 -1.3617  0.6157  0.6442
   17DOPE   C37 2159   2.470   8.224   7.330 -0.1752  0.3732  0.1528
   17DOPE   H7X 2160   2.462   8.334   7.325 -2.5547  0.3614  1.8280
   17DOPE   H7Y 2161   2.558   8.201   7.394  0.3242 -0.0285 -0.6637
   17DOPE   C38 2162   2.477   8.153   7.188 -0.0550 -0.2931 -0.3787
   17DOPE   H8X 2163   2.448   8.046   7.183  0.8307 -0.6029  0.7291
   17DOPE   H8Y 2164   2.582   8.165   7.155 -0.4224  4.3377 -0.5568
   17DOPE   C39 2165   2.408   8.240   7.091  0.4379 -0.0107 -0.2796
   17DOPE   H9X 2166   2.464   8.330   7.060 -0.4995  1.3572  1.7873
   17DOPE  C310 2167   2.288   8.232   7.036 -0.4860  0.1308  0.6339
   17DOPE  H10X 2168   2.245   8.307   6.968  0.4716 -0.9590 -1.2500
   17DOPE  C311 2169   2.189   8.128   7.072 -0.8455  0.0150 -0.4244
   17DOPE  H11X 2170   2.250   8.036   7.081  0.0951  0.1293 -4.2350
   17DOPE  H11Y 2171   2.145   8.145   7.173 -1.3962  2.9655 -1.0709
   17DOPE  C312 2172   2.085   8.100   6.965  0.2272  0.4462 -0.1899
   17DOPE  H12X 2173   2.022   8.191   6.956  0.9112  0.8108 -1.6509
   17DOPE  H12Y 2174   2.015   8.022   7.001  1.0839 -0.5012 -0.5162
   17DOPE  C313 2175   2.138   8.054   6.825 -0.1791  0.4511  0.0494
   17DOPE  H13X 2176   2.196   8.138   6.780 -0.4732  1.3698  1.3249
   17DOPE  H13Y 2177   2.205   7.965   6.833  0.1708  0.8139  1.6782
   17DOPE  C314 2178   2.023   8.013   6.734 -1.2425  0.4949  0.5560
   17DOPE  H14X 2179   1.950   8.096   6.738 -1.4806  0.3355 -0.3128
   17DOPE  H14Y 2180   1.987   7.920   6.783 -0.7903  0.1013  0.1634
   17DOPE  C315 2181   2.077   7.985   6.592  0.2760  0.3201  0.1265
   17DOPE  H15X 2182   2.161   7.912   6.594 -1.2599 -1.6833 -2.3838
   17DOPE  H15Y 2183   2.102   8.078   6.538 -1.1781 -0.2924 -1.6697
   17DOPE  C316 2184   1.980   7.912   6.502 -0.2650  0.3189  0.1336
   17DOPE  H16X 2185   1.899   7.977   6.464  0.4549  1.2841  0.2215
   17DOPE  H16Y 2186   1.935   7.828   6.559  1.1235  0.1574  1.0412
   17DOPE  C317 2187   2.041   7.853   6.369  0.6386 -0.3194 -0.4631
   17DOPE  H17X 2188   2.081   7.936   6.307  0.5273 -1.3516 -1.9668
   17DOPE  H17Y 2189   2.130   7.790   6.388  1.0867  0.9298  1.9993
   17DOPE  C318 2190   1.949   7.771   6.279 -0.1969  0.5487  0.3061
   17DOPE  H18X 2191   1.857   7.821   6.244 -0.0606  0.2930 -0.4348
   17DOPE  H18Y 2192   2.008   7.741   6.189 -1.1237 -2.2448  0.5197
   17DOPE  H18Z 2193   1.915   7.678   6.330 -3.0166  1.7049  0.6648
   18DOPE     N 2194   5.686   3.609   9.064 -0.1954  0.0221 -0.4153
   18DOPE   HN1 2195   5.634   3.522   9.089  0.1904 -0.1404 -0.1660
   18DOPE   HN2 2196   5.783   3.600   9.101  0.8623  1.8464 -2.4674
   18DOPE   HN3 2197   5.647   3.693   9.110  0.4776  0.1444 -0.0613
   18DOPE   C12 2198   5.682   3.619   8.914 -0.4515  0.3612 -0.2340
   18DOPE  H12A 2199   5.716   3.721   8.886 -0.9582 -0.0463 -2.5419
   18DOPE  H12B 2200   5.578   3.601   8.879  0.4492 -1.4092 -2.1987
   18DOPE   C11 2201   5.773   3.510   8.858  0.1013  0.2827  0.4918
   18DOPE  H11A 2202   5.764   3.523   8.749  0.8424  1.4410  0.5463
   18DOPE  H11B 2203   5.729   3.412   8.885 -1.9295  1.5824  2.2513
   18DOPE     P 2204   6.009   3.628   8.825 -0.0010  0.0152  0.0632
   18DOPE   O13 2205   6.150   3.590   8.806  0.1513 -0.4639  0.3559
   18DOPE   O14 2206   5.976   3.754   8.892 -0.0408 -0.3013 -0.2794
   18DOPE   O11 2207   5.957   3.633   8.680 -0.1857  0.2560  0.1831
   18DOPE   O12 2208   5.916   3.516   8.895 -0.1392 -0.2149  0.3508
   18DOPE    C1 2209   5.969   3.530   8.585 -0.0448  0.1697 -0.0725
   18DOPE    HA 2210   5.874   3.473   8.580 -0.2707  0.5984 -1.0672
   18DOPE    HB 2211   6.046   3.452   8.604  0.6682  0.1156 -2.8039
   18DOPE    C2 2212   6.008   3.586   8.447 -0.2553  0.1037  1.1291
   18DOPE    HS 2213   6.105   3.638   8.464  0.2752 -1.2859  2.5142
   18DOPE   O21 2214   5.908   3.675   8.392  0.5823 -0.2635  0.1363
   18DOPE   C21 2215   5.944   3.751   8.299 -0.0690  0.2524  0.3045
   18DOPE   O22 2216   6.058   3.774   8.254 -0.1885 -0.3979 -0.5254
   18DOPE   C22 2217   5.821   3.818   8.227 -0.3780 -0.4939  0.2036
   18DOPE   H2R 2218   5.849   3.920   8.195 -0.0582 -0.9116 -0.8866
   18DOPE   H2S 2219   5.745   3.821   8.308 -2.1966 -1.6303 -1.3957
   18DOPE    C3 2220   6.031   3.464   8.347  0.5293 -0.1946 -0.6729
   18DOPE    HX 2221   5.930   3.419   8.344  0.6189 -0.5695  1.1136
   18DOPE    HY 2222   6.101   3.398   8.402  0.3636  1.1289  1.2428
   18DOPE   O31 2223   6.075   3.501   8.214  0.5740  0.5912 -0.2949
   18DOPE   C31 2224   6.205   3.539   8.205 -0.5010  1.1864 -0.3643
   18DOPE   O32 2225   6.282   3.524   8.299 -0.6214  0.7436 -0.3664
   18DOPE   C32 2226   6.244   3.574   8.059 -0.3923 -0.2673  0.0898
   18DOPE   H2X 2227   6.261   3.479   8.005  2.2937 -0.0899  0.4939
   18DOPE   H2Y 2228   6.149   3.621   8.025 -0.6421 -0.1758  0.9025
   18DOPE   C23 2229   5.767   3.726   8.117 -0.1034  0.8026 -0.5334
   18DOPE   H3R 2230   5.665   3.766   8.099  0.6548  2.3544 -1.6016
   18DOPE   H3S 2231   5.757   3.625   8.163  2.3800 -0.1484 -1.8992
   18DOPE   C24 2232   5.862   3.707   7.999  0.0767 -0.0337  0.9408
   18DOPE   H4R 2233   5.968   3.725   8.026  1.2848 -0.8717 -2.7075
   18DOPE   H4S 2234   5.846   3.792   7.929  0.1957 -0.9709 -0.2580
   18DOPE   C25 2235   5.848   3.574   7.930  0.1387  0.0148  0.9602
   18DOPE   H5R 2236   5.743   3.562   7.895  0.6886 -0.2436 -0.6807
   18DOPE   H5S 2237   5.869   3.486   7.994  0.5746  0.0839  0.9146
   18DOPE   C26 2238   5.936   3.554   7.804  0.5302  0.1444 -0.0535
   18DOPE   H6R 2239   6.044   3.575   7.821  0.6911 -1.8078  1.8053
   18DOPE   H6S 2240   5.910   3.633   7.731 -0.9766  1.2230  1.5685
   18DOPE   C27 2241   5.928   3.417   7.734 -0.4927  0.0782  1.0057
   18DOPE   H7R 2242   5.827   3.409   7.690  0.3830 -1.2495 -0.8757
   18DOPE   H7S 2243   5.947   3.345   7.817 -0.3506 -0.2073  0.7243
   18DOPE   C28 2244   6.020   3.387   7.616 -0.8450  0.3793 -0.6358
   18DOPE   H8R 2245   6.127   3.396   7.643  0.1552 -0.9551 -3.6299
   18DOPE   H8S 2246   6.002   3.468   7.542  1.1112  0.4788 -1.0488
   18DOPE   C29 2247   6.002   3.255   7.545  0.7034 -0.3940  0.5340
   18DOPE   H9R 2248   5.948   3.180   7.605 -2.2428 -1.3684 -3.0009
   18DOPE  C210 2249   6.047   3.217   7.429 -0.7083 -0.3044  1.0891
   18DOPE  H10R 2250   6.019   3.116   7.396 -0.6272 -0.8448  2.5867
   18DOPE  C211 2251   6.139   3.298   7.333  0.9136  0.0559 -0.0794
   18DOPE  H11R 2252   6.213   3.236   7.279  0.3206  0.0048 -0.8380
   18DOPE  H11S 2253   6.176   3.385   7.392 -1.2610  0.8167  0.2575
   18DOPE  C212 2254   6.039   3.349   7.229  0.3347 -0.5971 -0.5270
   18DOPE  H12R 2255   6.099   3.418   7.166  0.0026  0.8702  0.6873
   18DOPE  H12S 2256   5.956   3.411   7.270  0.1352 -0.8756 -0.5083
   18DOPE  C213 2257   5.976   3.245   7.132 -0.0393  0.1941 -0.2375
   18DOPE  H13R 2258   5.925   3.293   7.046 -0.4549 -1.0391 -0.6979
   18DOPE  H13S 2259   5.900   3.204   7.202 -1.8794  1.3887 -1.4479
   18DOPE  C214 2260   6.065   3.141   7.059  0.4935  0.4838  0.1570
   18DOPE  H14R 2261   6.108   3.079   7.140  0.3777  2.6316  1.9902
   18DOPE  H14S 2262   6.146   3.195   7.005  1.4961 -0.1636  0.9887
   18DOPE  C215 2263   5.996   3.052   6.956 -0.0086  0.1514  0.1749
   18DOPE  H15R 2264   5.900   3.016   6.998  1.2391 -3.6192  0.1638
   18DOPE  H15S 2265   6.059   2.962   6.940  3.1611  2.1347  0.6121
   18DOPE  C216 2266   5.966   3.119   6.831  0.6313  0.4878  0.3082
   18DOPE  H16R 2267   6.055   3.129   6.764  0.9067 -2.2576  0.1610
   18DOPE  H16S 2268   5.913   3.214   6.852 -0.2662 -0.1618  1.0126
   18DOPE  C217 2269   5.855   3.047   6.753 -0.2574  0.8851  0.1185
   18DOPE  H17R 2270   5.786   3.115   6.698  1.9165  0.7279 -3.0895
   18DOPE  H17S 2271   5.794   2.989   6.825  1.7562  0.0488  1.2201
   18DOPE  C218 2272   5.905   2.944   6.649 -0.0494 -0.1958  0.6212
   18DOPE  H18R 2273   5.960   2.866   6.705 -1.5623 -1.2882  0.6538
   18DOPE  H18S 2274   5.973   2.990   6.574 -0.4785  0.1802  0.4576
   18DOPE  H18T 2275   5.830   2.902   6.578  0.7110 -0.6118  0.0465
   18DOPE   C33 2276   6.368   3.662   8.058 -0.7151 -0.0423 -0.2229
   18DOPE   H3X 2277   6.458   3.601   8.082 -1.1559 -0.2349  0.9866
   18DOPE   H3Y 2278   6.359   3.746   8.130 -0.2937  0.2660 -0.5213
   18DOPE   C34 2279   6.393   3.726   7.920  0.2268 -0.4378 -0.1693
   18DOPE   H4X 2280   6.301   3.780   7.891 -0.0413 -1.3750 -1.1500
   18DOPE   H4Y 2281   6.477   3.799   7.920 -0.6885  0.6385  0.0158
   18DOPE   C35 2282   6.433   3.643   7.798 -0.3179  0.2049 -0.2089
   18DOPE   H5X 2283   6.414   3.704   7.707 -1.1842 -0.5328 -0.5338
   18DOPE   H5Y 2284   6.366   3.555   7.788 -0.4106  0.4819 -2.8516
   18DOPE   C36 2285   6.577   3.607   7.798 -0.4695  0.3506  0.2837
   18DOPE   H6X 2286   6.580   3.548   7.892 -1.2487  2.1963  1.5389
   18DOPE   H6Y 2287   6.656   3.684   7.814  0.6248 -0.8626  0.9904
   18DOPE   C37 2288   6.610   3.496   7.687  0.4848  0.4022  0.1073
   18DOPE   H7X 2289   6.681   3.423   7.733 -0.2643 -0.6409 -0.3554
   18DOPE   H7Y 2290   6.515   3.449   7.657 -0.1227  0.4205  1.8743
   18DOPE   C38 2291   6.707   3.540   7.574  0.1333  0.2732 -0.2985
   18DOPE   H8X 2292   6.723   3.443   7.521  1.4785  0.0495  0.4804
   18DOPE   H8Y 2293   6.805   3.564   7.619 -0.4357  2.5486 -0.1677
   18DOPE   C39 2294   6.671   3.649   7.476 -0.1632 -0.1156  0.1725
   18DOPE   H9X 2295   6.750   3.724   7.463  0.9821 -1.6370 -2.6663
   18DOPE  C310 2296   6.567   3.646   7.392 -0.1624 -0.7641  0.5456
   18DOPE  H10X 2297   6.552   3.735   7.328  2.3761  0.4587  1.5084
   18DOPE  C311 2298   6.481   3.528   7.360 -1.0909 -0.7674  0.0253
   18DOPE  H11X 2299   6.520   3.435   7.406 -0.4143 -0.1169  0.8161
   18DOPE  H11Y 2300   6.382   3.555   7.402 -0.9326  0.1623 -0.1637
   18DOPE  C312 2301   6.460   3.505   7.209  0.3973  0.4754 -0.4133
   18DOPE  H12X 2302   6.432   3.603   7.165 -0.3038  0.0526 -0.9295
   18DOPE  H12Y 2303   6.368   3.443   7.202 -0.8435  2.0750  0.7860
   18DOPE  C313 2304   6.589   3.461   7.141  0.7270 -0.0716  0.1446
   18DOPE  H13X 2305   6.671   3.534   7.152 -0.3411  1.1257  0.4395
   18DOPE  H13Y 2306   6.623   3.367   7.190  2.7572  0.4124 -0.2566
   18DOPE  C314 2307   6.569   3.438   6.992 -0.3549  0.8270  0.1039
   18DOPE  H14X 2308   6.525   3.533   6.954 -1.5361 -0.4946 -2.0102
   18DOPE  H14Y 2309   6.509   3.346   6.978  0.5659  0.3702 -1.0460
   18DOPE  C315 2310   6.702   3.415   6.922  0.0202 -0.1129 -0.1547
   18DOPE  H15X 2311   6.747   3.326   6.972 -0.0931  1.3142  2.7173
   18DOPE  H15Y 2312   6.765   3.505   6.938 -0.8537  0.2391  1.4833
   18DOPE  C316 2313   6.676   3.374   6.775 -0.1211 -0.9439  0.2432
   18DOPE  H16X 2314   6.589   3.426   6.730  0.9584 -0.3190 -1.2057
   18DOPE  H16Y 2315   6.659   3.267   6.750  2.7251 -1.5246  0.4006
   18DOPE  C317 2316   6.789   3.413   6.687 -0.3090 -0.1204 -0.2501
   18DOPE  H17X 2317   6.804   3.522   6.705 -0.1062 -0.1060 -0.4963
   18DOPE  H17Y 2318   6.880   3.365   6.727 -0.8838 -0.4774  0.6649
   18DOPE  C318 2319   6.772   3.376   6.540  0.6563 -1.0081 -0.6820
   18DOPE  H18X 2320   6.779   3.266   6.525  0.9533 -1.0245 -0.4192
   18DOPE  H18Y 2321   6.672   3.414   6.510  1.1189  0.2697 -0.6724
   18DOPE  H18Z 2322   6.848   3.420   6.472 -0.7280  2.0374 -0.4108
   19DOPE     N 2323   5.681   4.463   8.756  0.3719  0.3871 -0.2155
   19DOPE   HN1 2324   5.781   4.489   8.769 -0.0715  1.7926  0.6290
   19DOPE   HN2 2325   5.652   4.395   8.828 -0.4416  0.6348 -0.3014
   19DOPE   HN3 2326   5.661   4.427   8.660  2.2389  0.5181 -0.6849
   19DOPE   C12 2327   5.605   4.587   8.752  0.3002 -0.0434 -0.4791
   19DOPE  H12A 2328   5.612   4.631   8.854 -1.7519  0.0621 -0.3429
   19DOPE  H12B 2329   5.495   4.570   8.740  0.3599  1.3392 -4.1357
   19DOPE   C11 2330   5.659   4.671   8.644  0.4342 -0.7258 -0.2949
   19DOPE  H11A 2331   5.578   4.740   8.613 -1.8622 -4.0723 -2.3900
   19DOPE  H11B 2332   5.670   4.613   8.550  0.7102  1.8896 -1.9801
   19DOPE     P 2333   5.917   4.692   8.653  0.1919 -0.0318 -0.0873
   19DOPE   O13 2334   5.935   4.574   8.738 -0.2971  0.8675  0.4488
   19DOPE   O14 2335   6.004   4.811   8.671  0.1767 -0.3129  0.2024
   19DOPE   O11 2336   5.905   4.653   8.501  0.0759  0.0968  0.7853
   19DOPE   O12 2337   5.779   4.741   8.683  0.1291 -0.4370 -0.1644
   19DOPE    C1 2338   5.908   4.752   8.402  0.7659 -0.0093  0.7050
   19DOPE    HA 2339   6.009   4.799   8.402 -0.0117  2.0149 -2.2696
   19DOPE    HB 2340   5.831   4.826   8.431 -0.1215 -0.8841  0.6187
   19DOPE    C2 2341   5.878   4.696   8.256 -0.0651  0.0946 -0.2228
   19DOPE    HS 2342   5.865   4.782   8.187 -0.2521  0.2469  0.0011
   19DOPE   O21 2343   5.774   4.593   8.257  0.0005 -0.0568  0.3966
   19DOPE   C21 2344   5.646   4.631   8.239 -0.6579  0.1259 -0.3469
   19DOPE   O22 2345   5.606   4.737   8.202 -0.0217 -0.8600 -0.2038
   19DOPE   C22 2346   5.562   4.499   8.254 -0.3867 -0.3723 -0.0314
   19DOPE   H2R 2347   5.510   4.519   8.350  1.2857  0.4006  0.7432
   19DOPE   H2S 2348   5.636   4.417   8.260  1.1623  1.1085  2.9121
   19DOPE    C3 2349   6.015   4.614   8.204  0.5289 -0.3043 -0.4607
   19DOPE    HX 2350   6.024   4.520   8.262 -1.0500 -0.7079 -0.8267
   19DOPE    HY 2351   6.106   4.673   8.228  1.1443 -1.6415  0.6426
   19DOPE   O31 2352   6.009   4.581   8.060 -0.5021  0.3461 -0.5331
   19DOPE   C31 2353   5.988   4.678   7.981 -0.6592  1.2179  0.0848
   19DOPE   O32 2354   6.015   4.794   7.999 -0.1355 -0.8931 -0.1544
   19DOPE   C32 2355   5.930   4.625   7.852 -0.3113 -1.4758 -0.0065
   19DOPE   H2X 2356   5.859   4.541   7.866 -0.8543 -1.0995 -0.4402
   19DOPE   H2Y 2357   5.867   4.714   7.829  0.0477 -1.3754 -0.6370
   19DOPE   C23 2358   5.462   4.475   8.139 -0.2114 -0.3089 -0.3230
   19DOPE   H3R 2359   5.385   4.555   8.131  0.3466  0.1262 -1.7226
   19DOPE   H3S 2360   5.408   4.383   8.168  1.1721 -0.2286  2.9984
   19DOPE   C24 2361   5.518   4.458   7.999  0.0847 -0.0580 -0.2067
   19DOPE   H4R 2362   5.587   4.372   8.006  1.1921  0.5990 -2.3209
   19DOPE   H4S 2363   5.577   4.550   7.979  2.1851 -1.5583 -1.2133
   19DOPE   C25 2364   5.408   4.433   7.895 -0.8114 -0.0122 -0.3564
   19DOPE   H5R 2365   5.330   4.511   7.910 -2.1122 -1.1007 -1.2756
   19DOPE   H5S 2366   5.363   4.334   7.913  0.0568 -0.1884  0.9921
   19DOPE   C26 2367   5.453   4.435   7.744  0.3686 -0.1346  0.4335
   19DOPE   H6R 2368   5.475   4.544   7.734  0.5592 -0.2465 -0.3381
   19DOPE   H6S 2369   5.373   4.414   7.670 -0.5720  1.6077  0.8832
   19DOPE   C27 2370   5.570   4.345   7.722  0.1172  0.5864 -0.3129
   19DOPE   H7R 2371   5.525   4.244   7.720 -2.1444  1.5152  0.1669
   19DOPE   H7S 2372   5.648   4.363   7.799 -1.2916 -1.5045  1.7123
   19DOPE   C28 2373   5.648   4.367   7.587  0.3464  0.3651  0.2020
   19DOPE   H8R 2374   5.727   4.289   7.575 -1.0945 -1.0603 -0.4051
   19DOPE   H8S 2375   5.709   4.460   7.585  1.1463 -0.1613 -0.8842
   19DOPE   C29 2376   5.556   4.368   7.467 -0.0701  0.6565 -0.0285
   19DOPE   H9R 2377   5.491   4.456   7.460  0.0262  0.6603 -0.9494
   19DOPE  C210 2378   5.558   4.275   7.369 -0.5449 -1.0637  0.1830
   19DOPE  H10R 2379   5.482   4.285   7.290 -0.2800  1.4240  0.1837
   19DOPE  C211 2380   5.644   4.154   7.358 -0.4429  0.0496  0.3538
   19DOPE  H11R 2381   5.590   4.062   7.325 -1.6144  1.0188 -0.5338
   19DOPE  H11S 2382   5.682   4.137   7.461  1.0366 -0.7610 -0.2867
   19DOPE  C212 2383   5.761   4.161   7.264  0.0658 -0.2784 -0.0153
   19DOPE  H12R 2384   5.824   4.070   7.268  0.1641 -0.1795  0.8806
   19DOPE  H12S 2385   5.825   4.247   7.291  0.1941  0.3869 -2.2042
   19DOPE  C213 2386   5.724   4.188   7.116  0.4209 -0.7201 -0.3057
   19DOPE  H13R 2387   5.683   4.291   7.113  0.2702 -0.6168  2.5027
   19DOPE  H13S 2388   5.640   4.124   7.083 -1.7176  1.0104  1.4575
   19DOPE  C214 2389   5.828   4.166   7.010  0.7758  0.1610 -0.4402
   19DOPE  H14R 2390   5.909   4.102   7.051  0.8901  1.4823  1.5611
   19DOPE  H14S 2391   5.876   4.263   6.984  0.8630  0.4695  0.8120
   19DOPE  C215 2392   5.765   4.109   6.885  0.3522 -0.2480  0.3616
   19DOPE  H15R 2393   5.682   4.176   6.854  1.8169  1.0374 -1.0357
   19DOPE  H15S 2394   5.739   4.003   6.904 -0.1283 -0.1702  0.1323
   19DOPE  C216 2395   5.868   4.115   6.766 -0.2944 -0.5566 -0.1806
   19DOPE  H16R 2396   5.920   4.212   6.753 -1.8709  0.2595 -0.6772
   19DOPE  H16S 2397   5.812   4.083   6.676 -0.9241 -1.9996  0.6920
   19DOPE  C217 2398   5.982   4.018   6.780 -0.0670  0.4859  0.0927
   19DOPE  H17R 2399   5.949   3.913   6.762 -2.9651  1.0254  1.7235
   19DOPE  H17S 2400   6.030   4.012   6.881  2.7854  0.2422 -1.1877
   19DOPE  C218 2401   6.096   4.051   6.677  0.1560  0.3382 -0.3959
   19DOPE  H18R 2402   6.135   4.152   6.701  0.9316 -0.8006  3.9842
   19DOPE  H18S 2403   6.055   4.054   6.574  1.8465 -2.0538 -1.2159
   19DOPE  H18T 2404   6.175   3.974   6.689 -0.1254  0.0208 -0.5702
   19DOPE   C33 2405   6.025   4.592   7.734 -0.0227  0.3166 -0.0419
   19DOPE   H3X 2406   5.961   4.554   7.652 -0.1991  2.0056 -0.7279
   19DOPE   H3Y 2407   6.101   4.513   7.752  0.4487  0.4537 -1.3252
   19DOPE   C34 2408   6.102   4.706   7.677  0.5890  0.3055 -0.3409
   19DOPE   H4X 2409   6.054   4.731   7.580  0.6438 -0.1027 -0.4744
   19DOPE   H4Y 2410   6.105   4.780   7.760 -1.2217 -0.1549  0.1720
   19DOPE   C35 2411   6.250   4.676   7.645  0.2110 -0.8399  0.0906
   19DOPE   H5X 2412   6.244   4.592   7.574 -2.2652 -3.9185  3.5601
   19DOPE   H5Y 2413   6.298   4.630   7.735 -0.2429  0.9471  1.2971
   19DOPE   C36 2414   6.326   4.798   7.597  0.1599  0.0795  0.3590
   19DOPE   H6X 2415   6.280   4.845   7.508  0.1769  0.9108  0.7717
   19DOPE   H6Y 2416   6.430   4.771   7.567  0.7355  1.0731  1.3501
   19DOPE   C37 2417   6.349   4.900   7.711  0.1574  0.6488 -0.3126
   19DOPE   H7X 2418   6.248   4.924   7.752 -0.0745  0.3623 -0.7085
   19DOPE   H7Y 2419   6.406   4.847   7.790  1.0185  0.4817 -1.0336
   19DOPE   C38 2420   6.433   5.028   7.684 -0.2953 -0.1711  0.2382
   19DOPE   H8X 2421   6.421   5.089   7.776 -2.1524  0.2503 -0.2265
   19DOPE   H8Y 2422   6.371   5.073   7.603  0.7810  1.4730  0.2867
   19DOPE   C39 2423   6.577   5.003   7.651 -0.0791 -0.2260 -0.0002
   19DOPE   H9X 2424   6.630   4.929   7.713 -0.1270 -1.7560 -1.6974
   19DOPE  C310 2425   6.648   5.049   7.547  0.0715  0.4776  0.2489
   19DOPE  H10X 2426   6.753   5.019   7.536 -0.0010  0.3386 -0.0824
   19DOPE  C311 2427   6.584   5.128   7.435 -0.0820  0.0633  0.0773
   19DOPE  H11X 2428   6.474   5.119   7.435 -0.1434  0.3759  2.3034
   19DOPE  H11Y 2429   6.612   5.235   7.436 -1.0350  0.3203  0.0043
   19DOPE  C312 2430   6.642   5.081   7.295  0.3838 -0.8685  0.0947
   19DOPE  H12X 2431   6.573   5.121   7.217  1.6623 -0.1018 -0.6809
   19DOPE  H12Y 2432   6.647   4.970   7.296 -0.9417 -0.9502  0.8822
   19DOPE  C313 2433   6.773   5.144   7.257  0.0044 -0.0701 -0.0593
   19DOPE  H13X 2434   6.766   5.254   7.262  0.0067  0.0265 -1.8217
   19DOPE  H13Y 2435   6.857   5.127   7.328 -1.1094 -1.6253  0.9578
   19DOPE  C314 2436   6.816   5.130   7.113 -0.3933  0.0220  0.5636
   19DOPE  H14X 2437   6.903   5.192   7.083 -1.0912 -0.2455 -2.3869
   19DOPE  H14Y 2438   6.731   5.161   7.048  1.1848  0.0585 -1.6168
   19DOPE  C315 2439   6.849   4.985   7.075 -1.0413 -0.8041  0.2523
   19DOPE  H15X 2440   6.767   4.911   7.086  0.3177 -2.5515 -0.8256
   19DOPE  H15Y 2441   6.940   4.955   7.132  1.5703  1.6719 -2.2905
   19DOPE  C316 2442   6.876   4.972   6.922  0.4860  0.7372 -0.8264
   19DOPE  H16X 2443   6.951   5.045   6.887 -0.5382  1.1367 -2.2943
   19DOPE  H16Y 2444   6.781   4.999   6.870  1.0997  0.7116 -1.9898
   19DOPE  C317 2445   6.921   4.821   6.892  1.1548  0.5962  0.3959
   19DOPE  H17X 2446   6.992   4.784   6.969  0.0256  0.4053  1.3828
   19DOPE  H17Y 2447   6.827   4.761   6.892  0.9767  0.8740  0.2193
   19DOPE  C318 2448   6.987   4.806   6.756 -0.0386 -0.4243 -0.2171
   19DOPE  H18X 2449   7.012   4.701   6.731  1.9951  0.7717 -3.9930
   19DOPE  H18Y 2450   6.929   4.846   6.671  1.8162  0.2409 -1.2178
   19DOPE  H18Z 2451   7.084   4.859   6.766 -0.5018  0.2469  0.9342
   20DOPE     N 2452   5.973   7.108   8.908  0.2192  0.5750  0.3508
   20DOPE   HN1 2453   5.875   7.087   8.937  0.7739 -0.1266  1.8556
   20DOPE   HN2 2454   6.012   7.012   8.899 -0.2601  0.5662 -2.4222
   20DOPE   HN3 2455   6.012   7.170   8.982  1.3376  0.0145  0.2389
   20DOPE   C12 2456   5.964   7.180   8.780  0.2838 -0.1769 -0.5317
   20DOPE  H12A 2457   5.918   7.110   8.707 -1.3651  1.2452 -0.9134
   20DOPE  H12B 2458   6.070   7.206   8.755  0.2278 -0.1027 -0.6925
   20DOPE   C11 2459   5.890   7.310   8.790  0.0475 -0.0528 -0.1420
   20DOPE  H11A 2460   5.863   7.331   8.685  1.8782 -3.4435 -1.4348
   20DOPE  H11B 2461   5.941   7.401   8.828 -2.4108  2.3884 -2.2818
   20DOPE     P 2462   5.681   7.404   8.918 -0.0285 -0.0147 -0.1367
   20DOPE   O13 2463   5.758   7.468   9.028 -0.3388  0.4284  0.0550
   20DOPE   O14 2464   5.543   7.354   8.945  0.0905  0.4312  0.3431
   20DOPE   O11 2465   5.683   7.500   8.799  0.0510  0.1054 -0.2824
   20DOPE   O12 2466   5.767   7.291   8.859 -0.1379 -0.0111  0.4468
   20DOPE    C1 2467   5.695   7.640   8.816  0.1886 -0.3928 -0.0371
   20DOPE    HA 2468   5.797   7.665   8.851  0.3587 -0.5904 -0.3808
   20DOPE    HB 2469   5.619   7.680   8.886  0.4365 -1.7539  1.0335
   20DOPE    C2 2470   5.681   7.712   8.684 -0.9774  0.5609  0.4454
   20DOPE    HS 2471   5.728   7.810   8.709  3.5436 -0.5061 -2.7871
   20DOPE   O21 2472   5.542   7.723   8.646  0.6600 -0.8229  0.6183
   20DOPE   C21 2473   5.524   7.816   8.559 -0.6928 -0.1944  0.4884
   20DOPE   O22 2474   5.595   7.910   8.524  0.7756  0.2650 -0.0345
   20DOPE   C22 2475   5.390   7.799   8.486 -0.4248 -0.4704  0.4429
   20DOPE   H2R 2476   5.336   7.895   8.494  0.3493  0.0364 -0.1916
   20DOPE   H2S 2477   5.329   7.719   8.534 -0.2957 -1.7342 -1.3783
   20DOPE    C3 2478   5.778   7.656   8.572 -0.2204 -0.7396  0.6620
   20DOPE    HX 2479   5.744   7.555   8.542  1.0124 -1.0466  0.2572
   20DOPE    HY 2480   5.874   7.640   8.625 -0.1412  0.0991  0.7855
   20DOPE   O31 2481   5.789   7.737   8.452  0.1559  0.8176  0.2249
   20DOPE   C31 2482   5.856   7.848   8.451  0.0049  0.6579  0.7492
   20DOPE   O32 2483   5.919   7.896   8.543  0.0430  0.1258 -0.1466
   20DOPE   C32 2484   5.850   7.909   8.310 -0.3049 -0.3211  0.6043
   20DOPE   H2X 2485   5.864   7.830   8.232 -1.4600 -1.6778  1.7074
   20DOPE   H2Y 2486   5.745   7.938   8.292 -0.0709  0.6883  0.8103
   20DOPE   C23 2487   5.417   7.773   8.333  0.2438  0.1703 -0.2246
   20DOPE   H3R 2488   5.486   7.687   8.334 -0.3364 -0.2993  0.1082
   20DOPE   H3S 2489   5.460   7.866   8.290  0.8027 -0.5067 -1.1665
   20DOPE   C24 2490   5.283   7.735   8.262  0.0351  0.4887  0.0044
   20DOPE   H4R 2491   5.259   7.816   8.191 -0.7894 -1.0078 -1.4961
   20DOPE   H4S 2492   5.207   7.728   8.342  0.2790 -0.2003  0.1833
   20DOPE   C25 2493   5.296   7.610   8.165  0.6619  0.8140  0.5741
   20DOPE   H5R 2494   5.336   7.529   8.230 -0.4065  1.2258  1.8014
   20DOPE   H5S 2495   5.360   7.636   8.078 -1.6927  2.7925 -0.6989
   20DOPE   C26 2496   5.156   7.562   8.124 -0.2958  0.4442 -0.6328
   20DOPE   H6R 2497   5.096   7.627   8.056 -0.2212  2.1137  0.8336
   20DOPE   H6S 2498   5.098   7.554   8.219  0.8121  2.3446  0.2455
   20DOPE   C27 2499   5.172   7.426   8.055 -0.1054 -0.2013  0.1558
   20DOPE   H7R 2500   5.080   7.367   8.074 -1.5692  1.3615 -1.6750
   20DOPE   H7S 2501   5.257   7.382   8.111 -2.3252 -0.0903  3.9165
   20DOPE   C28 2502   5.196   7.442   7.905 -0.3521  0.2046 -0.0026
   20DOPE   H8R 2503   5.262   7.531   7.899 -2.8934  2.2001 -0.2976
   20DOPE   H8S 2504   5.099   7.475   7.861 -0.5523  0.5283  0.6567
   20DOPE   C29 2505   5.250   7.320   7.830 -0.0203 -0.1470 -0.6915
   20DOPE   H9R 2506   5.351   7.334   7.789 -0.3251  2.1057 -0.8053
   20DOPE  C210 2507   5.170   7.214   7.800 -0.2241 -0.4582 -0.5926
   20DOPE  H10R 2508   5.211   7.120   7.760 -2.7619 -1.4213 -1.1436
   20DOPE  C211 2509   5.019   7.199   7.823 -0.2177 -0.0480 -0.3827
   20DOPE  H11R 2510   4.969   7.179   7.725 -0.6855 -2.0160  0.2087
   20DOPE  H11S 2511   4.980   7.288   7.877  1.2098 -0.1169  0.8187
   20DOPE  C212 2512   5.001   7.070   7.902 -0.3180 -0.3624  0.0084
   20DOPE  H12R 2513   5.064   7.076   7.993 -0.9939 -0.4132  0.4886
   20DOPE  H12S 2514   5.032   6.987   7.835  0.1698 -0.6509  0.5819
   20DOPE  C213 2515   4.852   7.043   7.931  0.2472  0.0398 -0.3782
   20DOPE  H13R 2516   4.796   7.065   7.837  0.4739  1.5162 -0.1905
   20DOPE  H13S 2517   4.821   7.107   8.016 -0.1166  0.0659 -0.5255
   20DOPE  C214 2518   4.831   6.905   7.986 -0.2642  0.5132 -0.8665
   20DOPE  H14R 2519   4.898   6.829   7.943 -0.2211 -0.8778  1.4705
   20DOPE  H14S 2520   4.727   6.876   7.961 -0.1865 -0.1181 -0.4768
   20DOPE  C215 2521   4.858   6.902   8.135  0.2204 -0.2691 -0.1431
   20DOPE  H15R 2522   4.797   6.977   8.189 -1.4080 -1.6932  0.0669
   20DOPE  H15S 2523   4.964   6.927   8.159 -0.4923  1.5644  1.3067
   20DOPE  C216 2524   4.828   6.763   8.190 -0.5348  0.5734  0.2463
   20DOPE  H16R 2525   4.790   6.697   8.108 -0.5415  0.1374  0.5957
   20DOPE  H16S 2526   4.755   6.762   8.274 -2.1998  1.5838 -1.1102
   20DOPE  C217 2527   4.957   6.696   8.244 -0.3176 -0.2957  0.3433
   20DOPE  H17R 2528   4.930   6.612   8.311  1.6711 -1.2582  0.0096
   20DOPE  H17S 2529   5.026   6.758   8.303  0.3251 -0.7784  0.1097
   20DOPE  C218 2530   5.042   6.639   8.126 -0.4765  0.2550  0.1320
   20DOPE  H18R 2531   5.058   6.711   8.043 -1.3578 -0.7941 -1.0058
   20DOPE  H18S 2532   4.986   6.556   8.077 -0.0463 -1.5633  2.5638
   20DOPE  H18T 2533   5.135   6.593   8.166 -0.6032 -1.4191 -1.3433
   20DOPE   C33 2534   5.948   8.029   8.283  0.0666 -0.0911 -0.3431
   20DOPE   H3X 2535   6.048   7.986   8.260 -0.0767 -1.4348  1.3025
   20DOPE   H3Y 2536   5.965   8.087   8.376  3.2144  0.6430 -1.2562
   20DOPE   C34 2537   5.913   8.121   8.162 -0.6448  0.0827  0.7074
   20DOPE   H4X 2538   5.890   8.066   8.068 -0.2483 -0.9938  1.2145
   20DOPE   H4Y 2539   5.824   8.183   8.185  1.1520  1.8565  3.4697
   20DOPE   C35 2540   6.037   8.203   8.122  0.0470 -0.5571  0.3912
   20DOPE   H5X 2541   6.111   8.145   8.063  1.5077  0.3847  1.2128
   20DOPE   H5Y 2542   6.090   8.233   8.215 -1.3481  2.4749  0.3072
   20DOPE   C36 2543   6.011   8.326   8.035  0.0337 -0.1195  0.6611
   20DOPE   H6X 2544   5.978   8.421   8.082 -1.8336 -0.6268  0.4362
   20DOPE   H6Y 2545   5.926   8.301   7.968 -1.0566 -2.3118  2.7149
   20DOPE   C37 2546   6.128   8.347   7.933 -0.0914 -0.2875  0.8866
   20DOPE   H7X 2547   6.222   8.366   7.988 -0.0287  1.0646  0.3468
   20DOPE   H7Y 2548   6.135   8.257   7.868 -1.0056 -0.4130  0.9414
   20DOPE   C38 2549   6.100   8.479   7.852  0.3758  0.1528  0.2432
   20DOPE   H8X 2550   6.078   8.552   7.933 -2.9783 -1.3098  0.7788
   20DOPE   H8Y 2551   6.005   8.474   7.794  0.2722  0.8237  0.3371
   20DOPE   C39 2552   6.213   8.516   7.764 -0.1834 -0.0293 -0.1718
   20DOPE   H9X 2553   6.273   8.590   7.818 -2.3854  0.4163  1.8343
   20DOPE  C310 2554   6.242   8.470   7.640  0.0103 -1.1106 -0.0948
   20DOPE  H10X 2555   6.315   8.521   7.576 -2.2891  2.0488 -0.4897
   20DOPE  C311 2556   6.151   8.373   7.566  0.1361 -0.8638 -0.9394
   20DOPE  H11X 2557   6.192   8.270   7.568  1.1634 -0.4799  1.6849
   20DOPE  H11Y 2558   6.053   8.374   7.618  0.5449  0.6159 -0.1119
   20DOPE  C312 2559   6.115   8.420   7.422  0.2843 -0.4193 -0.3267
   20DOPE  H12X 2560   6.214   8.415   7.371  1.3802  0.0845  1.6616
   20DOPE  H12Y 2561   6.085   8.526   7.418  1.0663 -0.1617  0.4633
   20DOPE  C313 2562   6.017   8.330   7.349 -0.1507  0.1109 -0.3815
   20DOPE  H13X 2563   6.049   8.224   7.350 -0.7389 -0.1547  2.6980
   20DOPE  H13Y 2564   5.922   8.324   7.407 -1.8943  0.0166 -3.1098
   20DOPE  C314 2565   5.981   8.376   7.202  0.1562 -0.7288 -0.0563
   20DOPE  H14X 2566   6.071   8.386   7.138 -0.3904  2.7849 -0.4966
   20DOPE  H14Y 2567   5.928   8.474   7.208  1.4647  0.0662 -1.0543
   20DOPE  C315 2568   5.876   8.275   7.143  0.5831 -0.6272 -0.0786
   20DOPE  H15X 2569   5.777   8.293   7.190 -0.2863 -0.4248 -1.8841
   20DOPE  H15Y 2570   5.908   8.174   7.176 -1.7766 -1.7224 -0.8692
   20DOPE  C316 2571   5.860   8.296   6.989  0.7296 -0.4455 -0.0704
   20DOPE  H16X 2572   5.843   8.406   6.981  2.4579 -0.0481  1.1133
   20DOPE  H16Y 2573   5.769   8.241   6.960  0.0208  0.6623  0.0023
   20DOPE  C317 2574   5.979   8.256   6.911 -0.1905  0.1276  0.6581
   20DOPE  H17X 2575   6.059   8.334   6.914 -0.0738  0.1437 -1.7287
   20DOPE  H17Y 2576   6.007   8.153   6.941 -2.3393 -1.2967 -1.8630
   20DOPE  C318 2577   5.944   8.234   6.765  0.0800 -0.5483 -0.6090
   20DOPE  H18X 2578   5.906   8.331   6.726 -0.2799 -0.0440  0.9295
   20DOPE  H18Y 2579   6.027   8.207   6.696  0.2840  0.7839 -0.9110
   20DOPE  H18Z 2580   5.854   8.169   6.761 -1.1837  0.9948  1.0426
   21DOPE     N 2581   2.828   0.801   8.123  0.0326 -0.1269 -0.0031
   21DOPE   HN1 2582   2.779   0.817   8.213  0.6626  2.6088 -0.0617
   21DOPE   HN2 2583   2.813   0.888   8.067  1.2769  0.1581  0.0854
   21DOPE   HN3 2584   2.772   0.728   8.073  0.9486 -2.4072  2.0996
   21DOPE   C12 2585   2.977   0.778   8.129  0.7732 -0.3944 -0.1946
   21DOPE  H12A 2586   3.014   0.759   8.026  0.7121 -0.5356 -0.1899
   21DOPE  H12B 2587   2.998   0.683   8.183 -0.7570 -1.9248 -2.1483
   21DOPE   C11 2588   3.050   0.898   8.199 -0.2551  0.2793  0.0056
   21DOPE  H11A 2589   3.151   0.882   8.155 -0.8563 -0.2409 -1.2292
   21DOPE  H11B 2590   3.069   0.891   8.309  1.2597 -0.3447 -0.2593
   21DOPE     P 2591   3.079   1.152   8.122 -0.6182 -0.6019 -0.0674
   21DOPE   O13 2592   3.207   1.143   8.192  0.3758 -0.5043  0.1928
   21DOPE   O14 2593   2.994   1.274   8.149 -0.2575  0.4963 -0.1670
   21DOPE   O11 2594   3.102   1.135   7.965  0.4990 -0.0021 -0.7690
   21DOPE   O12 2595   2.991   1.022   8.156 -0.2310  0.0988  0.1568
   21DOPE    C1 2596   3.009   1.143   7.860  0.2430 -1.0766 -0.2774
   21DOPE    HA 2597   2.912   1.182   7.897  0.6837  3.1063 -2.8261
   21DOPE    HB 2598   2.991   1.040   7.821 -0.2039 -1.3720  0.6840
   21DOPE    C2 2599   3.053   1.247   7.746 -0.6114  0.1415 -0.0175
   21DOPE    HS 2600   2.968   1.250   7.675  0.0961 -0.3746 -0.9164
   21DOPE   O21 2601   3.169   1.210   7.668 -0.2507 -0.5119 -0.6004
   21DOPE   C21 2602   3.156   1.109   7.594 -0.4225  0.5449  0.3365
   21DOPE   O22 2603   3.060   1.032   7.590  0.7603  0.7889 -0.1154
   21DOPE   C22 2604   3.292   1.077   7.531  0.8509  0.0002  0.0295
   21DOPE   H2R 2605   3.274   1.022   7.436 -0.1132  1.9154 -0.9424
   21DOPE   H2S 2606   3.346   0.999   7.590  2.0425 -0.7702 -1.9935
   21DOPE    C3 2607   3.075   1.387   7.814  0.0091  0.3361  0.6967
   21DOPE    HX 2608   3.149   1.385   7.898  0.2942 -1.2598  0.4487
   21DOPE    HY 2609   2.988   1.407   7.879  1.2958  0.9392  2.3141
   21DOPE   O31 2610   3.110   1.492   7.717 -0.5680  0.0909  0.1397
   21DOPE   C31 2611   3.239   1.514   7.698 -0.1674 -0.1378  0.8431
   21DOPE   O32 2612   3.328   1.470   7.764 -0.2445 -0.1613 -0.0990
   21DOPE   C32 2613   3.260   1.608   7.578 -0.1403  0.0488 -0.0382
   21DOPE   H2X 2614   3.195   1.568   7.498  0.9733  2.7625 -2.4872
   21DOPE   H2Y 2615   3.224   1.712   7.591  1.5502  0.7381 -0.5968
   21DOPE   C23 2616   3.379   1.189   7.496 -0.2451 -0.5907  0.0993
   21DOPE   H3R 2617   3.481   1.159   7.463 -0.1445  0.0104 -0.1721
   21DOPE   H3S 2618   3.403   1.267   7.571 -0.5329  0.7732 -1.1626
   21DOPE   C24 2619   3.328   1.281   7.379 -0.7985 -0.4007  0.8417
   21DOPE   H4R 2620   3.393   1.369   7.362 -0.9014 -0.3463  0.7292
   21DOPE   H4S 2621   3.234   1.333   7.407 -0.7607  0.6034 -0.7402
   21DOPE   C25 2622   3.319   1.216   7.246  0.2485  0.2421 -0.1425
   21DOPE   H5R 2623   3.228   1.152   7.248 -1.0927  2.0189 -0.4837
   21DOPE   H5S 2624   3.408   1.154   7.226 -0.7564 -0.8971 -1.1855
   21DOPE   C26 2625   3.300   1.317   7.131  0.4615 -0.3271  0.3633
   21DOPE   H6R 2626   3.346   1.413   7.162  0.1312  0.1229 -0.5155
   21DOPE   H6S 2627   3.195   1.330   7.098  0.7160 -1.2110 -0.8653
   21DOPE   C27 2628   3.367   1.255   7.003 -0.2956  0.6917 -0.3437
   21DOPE   H7R 2629   3.341   1.148   6.988 -2.1950  1.3793 -2.3609
   21DOPE   H7S 2630   3.477   1.254   7.019 -0.3652  0.7964  0.1924
   21DOPE   C28 2631   3.353   1.338   6.878 -0.2503 -0.0421  0.3770
   21DOPE   H8R 2632   3.411   1.283   6.801  0.5492 -1.5207  1.9688
   21DOPE   H8S 2633   3.400   1.436   6.901  0.4412 -0.5738  1.2998
   21DOPE   C29 2634   3.214   1.356   6.826  0.1558  0.1758 -0.0565
   21DOPE   H9R 2635   3.143   1.403   6.895  0.3439 -0.5900  0.6783
   21DOPE  C210 2636   3.173   1.339   6.700 -0.3375 -0.1398 -0.5095
   21DOPE  H10R 2637   3.069   1.355   6.669 -0.5091  0.7684  0.4533
   21DOPE  C211 2638   3.270   1.305   6.585 -0.4619  0.5056 -0.6164
   21DOPE  H11R 2639   3.295   1.197   6.579  2.8580  0.7806  3.1926
   21DOPE  H11S 2640   3.359   1.372   6.577  0.6028 -0.9531 -1.5008
   21DOPE  C212 2641   3.209   1.343   6.455  0.6236 -0.0854  0.5246
   21DOPE  H12R 2642   3.165   1.445   6.450  1.2318  0.1639  0.0135
   21DOPE  H12S 2643   3.129   1.267   6.444  0.5404 -0.1437  1.4915
   21DOPE  C213 2644   3.304   1.327   6.331 -0.5227  0.7030 -0.3007
   21DOPE  H13R 2645   3.333   1.220   6.332 -0.7001  0.6510 -0.5654
   21DOPE  H13S 2646   3.391   1.394   6.345 -0.1709 -0.0490  1.3708
   21DOPE  C214 2647   3.230   1.365   6.202  0.0918  0.0544  0.3385
   21DOPE  H14R 2648   3.316   1.374   6.133  0.3106 -1.6336  0.3622
   21DOPE  H14S 2649   3.182   1.464   6.217 -1.9945 -0.9304  0.5344
   21DOPE  C215 2650   3.110   1.272   6.156 -0.2754  0.1416 -1.3264
   21DOPE  H15R 2651   3.035   1.271   6.237  0.0514 -1.9255 -0.9909
   21DOPE  H15S 2652   3.137   1.165   6.145 -2.0396 -0.4073 -0.7107
   21DOPE  C216 2653   3.039   1.319   6.027  0.1963 -0.1752  0.0731
   21DOPE  H16R 2654   3.036   1.430   6.018  0.5190 -0.3198 -3.0113
   21DOPE  H16S 2655   2.937   1.276   6.013  1.9492 -4.0652 -2.7712
   21DOPE  C217 2656   3.102   1.262   5.899  0.0695 -0.0376  0.6492
   21DOPE  H17R 2657   3.205   1.305   5.898 -0.2202  0.7233  1.5959
   21DOPE  H17S 2658   3.036   1.303   5.820 -0.0793 -2.7815 -0.7789
   21DOPE  C218 2659   3.108   1.108   5.888  0.5669  0.0843 -0.2610
   21DOPE  H18R 2660   3.143   1.058   5.795  0.9568 -0.8278  0.3625
   21DOPE  H18S 2661   3.009   1.065   5.915  0.7465 -0.8900 -1.0789
   21DOPE  H18T 2662   3.186   1.074   5.959 -0.4814 -0.6108  0.5924
   21DOPE   C33 2663   3.401   1.602   7.519 -0.1350 -0.0792 -0.4964
   21DOPE   H3X 2664   3.429   1.495   7.512 -2.9229 -0.7979 -1.9309
   21DOPE   H3Y 2665   3.479   1.655   7.579  1.0112 -1.6675 -0.5236
   21DOPE   C34 2666   3.401   1.655   7.374  0.8068 -0.0639 -0.6297
   21DOPE   H4X 2667   3.328   1.603   7.309  0.5900  0.0939 -0.5142
   21DOPE   H4Y 2668   3.361   1.758   7.369 -1.5076 -0.8559  0.2804
   21DOPE   C35 2669   3.536   1.659   7.303 -0.6946  0.5845 -0.3477
   21DOPE   H5X 2670   3.582   1.563   7.331 -2.9103 -0.2064  0.8068
   21DOPE   H5Y 2671   3.600   1.740   7.344 -2.1165  1.9512 -0.7196
   21DOPE   C36 2672   3.544   1.690   7.149 -0.1979  0.8432  0.4818
   21DOPE   H6X 2673   3.468   1.625   7.100 -0.1836  2.4167 -1.7505
   21DOPE   H6Y 2674   3.649   1.668   7.120  0.4174  0.7332  2.6373
   21DOPE   C37 2675   3.518   1.835   7.108 -0.2374  0.2570 -0.3031
   21DOPE   H7X 2676   3.410   1.846   7.134  0.1724  3.1639  0.5247
   21DOPE   H7Y 2677   3.566   1.905   7.180 -0.1076 -0.7899  0.6733
   21DOPE   C38 2678   3.536   1.863   6.957  0.3506 -0.3866 -0.2703
   21DOPE   H8X 2679   3.510   1.786   6.881 -0.1973  0.4149 -0.9164
   21DOPE   H8Y 2680   3.644   1.889   6.952  1.0204 -3.0754 -1.3041
   21DOPE   C39 2681   3.470   1.990   6.915  0.6174 -0.5370  0.1476
   21DOPE   H9X 2682   3.389   2.018   6.984  0.1105 -0.0091 -0.6473
   21DOPE  C310 2683   3.475   2.035   6.790 -0.2037  0.0786 -0.2248
   21DOPE  H10X 2684   3.425   2.131   6.771  0.7030  0.6111  0.0049
   21DOPE  C311 2685   3.551   1.975   6.676 -0.3405  0.7643 -0.7900
   21DOPE  H11X 2686   3.594   1.875   6.699  3.2914  2.4888  0.7815
   21DOPE  H11Y 2687   3.476   1.951   6.598 -0.7356  1.5980 -0.6799
   21DOPE  C312 2688   3.661   2.063   6.608  0.5875  0.0815  0.3437
   21DOPE  H12X 2689   3.747   2.063   6.678  1.0727 -3.3631 -0.0648
   21DOPE  H12Y 2690   3.632   2.169   6.590 -1.1621 -0.1583  1.4773
   21DOPE  C313 2691   3.713   2.010   6.471  0.0211  1.1185  0.3165
   21DOPE  H13X 2692   3.754   1.909   6.492  0.1442  1.2963  0.9507
   21DOPE  H13Y 2693   3.630   1.997   6.398  0.0196 -0.0851  0.5114
   21DOPE  C314 2694   3.821   2.102   6.407 -0.7600  0.1077  0.6788
   21DOPE  H14X 2695   3.898   2.124   6.483  0.4213 -1.3680 -0.0223
   21DOPE  H14Y 2696   3.770   2.197   6.382 -0.6713  0.6397  2.4174
   21DOPE  C315 2697   3.901   2.040   6.288  0.3325  0.9726  0.2189
   21DOPE  H15X 2698   3.955   2.127   6.245 -0.6857  2.3132  1.5585
   21DOPE  H15Y 2699   3.825   1.993   6.222 -0.8752 -0.1976  2.3130
   21DOPE  C316 2700   4.000   1.924   6.316 -0.2665 -0.6480 -0.6377
   21DOPE  H16X 2701   4.065   1.892   6.232  0.7872  0.4513 -0.2640
   21DOPE  H16Y 2702   3.947   1.834   6.354  0.6598 -0.0370  2.3804
   21DOPE  C317 2703   4.099   1.964   6.428  0.3019 -0.3144  0.3619
   21DOPE  H17X 2704   4.122   2.073   6.432 -1.2246  0.0321  0.4743
   21DOPE  H17Y 2705   4.055   1.930   6.525 -1.1244  1.2138  0.2978
   21DOPE  C318 2706   4.229   1.878   6.410 -0.1092  0.1357  0.2642
   21DOPE  H18X 2707   4.277   1.856   6.507  0.1276 -0.7665 -0.0476
   21DOPE  H18Y 2708   4.211   1.782   6.356  1.2573 -0.5809  1.0153
   21DOPE  H18Z 2709   4.299   1.935   6.346 -1.8862  0.9118 -1.0913
   22DOPE     N 2710   7.009   6.371   8.872  0.0849  0.3058 -0.4305
   22DOPE   HN1 2711   7.087   6.440   8.883  0.7467 -0.7333  2.0431
   22DOPE   HN2 2712   6.988   6.350   8.772 -0.5298 -0.0789 -0.2254
   22DOPE   HN3 2713   6.923   6.406   8.919 -0.4296  0.2195 -1.2910
   22DOPE   C12 2714   7.079   6.253   8.943 -0.1555 -0.3840  0.1413
   22DOPE  H12A 2715   7.097   6.284   9.048  1.0711 -0.3272 -0.0697
   22DOPE  H12B 2716   7.180   6.242   8.899 -0.0273  1.3665 -0.0448
   22DOPE   C11 2717   6.990   6.122   8.950 -0.1576  0.2155  0.4053
   22DOPE  H11A 2718   6.900   6.152   9.009  0.3087  2.8569 -0.0700
   22DOPE  H11B 2719   7.046   6.043   9.003 -0.2655 -0.4304 -0.4165
   22DOPE     P 2720   7.044   5.984   8.740  0.4244  0.4398  0.3758
   22DOPE   O13 2721   6.985   5.851   8.711 -0.2378  0.2665 -0.2345
   22DOPE   O14 2722   7.180   5.991   8.792  0.4413 -0.3574 -0.4008
   22DOPE   O11 2723   7.043   6.065   8.612  0.1464 -0.4327  0.7923
   22DOPE   O12 2724   6.949   6.072   8.824  0.0529  0.2991 -0.4422
   22DOPE    C1 2725   7.112   6.017   8.494 -0.2644  0.0283 -0.7972
   22DOPE    HA 2726   7.205   5.964   8.523  0.3089  0.9210 -0.9427
   22DOPE    HB 2727   7.127   6.097   8.419 -1.5842  2.8466  1.7222
   22DOPE    C2 2728   7.035   5.908   8.414 -0.4289  0.1111 -0.2687
   22DOPE    HS 2729   7.019   5.828   8.490 -1.5860  1.0137  0.4669
   22DOPE   O21 2730   7.116   5.868   8.305  0.1926  0.0850  0.2673
   22DOPE   C21 2731   7.098   5.745   8.266 -1.2741  0.0778 -0.6093
   22DOPE   O22 2732   7.043   5.662   8.331 -0.2337  0.3504 -0.1140
   22DOPE   C22 2733   7.187   5.730   8.140  0.5865 -0.0479 -0.6419
   22DOPE   H2R 2734   7.243   5.636   8.160 -0.7212 -0.5773  0.7074
   22DOPE   H2S 2735   7.246   5.822   8.125  0.0916  0.2444 -0.8095
   22DOPE    C3 2736   6.897   5.966   8.361 -0.1945 -0.5499 -0.1655
   22DOPE    HX 2737   6.906   6.058   8.300 -4.0050 -0.4159 -0.7140
   22DOPE    HY 2738   6.843   6.001   8.452 -0.5907 -3.0300  0.6415
   22DOPE   O31 2739   6.828   5.869   8.280 -0.1452  0.1448 -0.4260
   22DOPE   C31 2740   6.707   5.839   8.326 -0.7064 -0.5854  0.4165
   22DOPE   O32 2741   6.671   5.860   8.437  0.4350 -0.6830 -0.2710
   22DOPE   C32 2742   6.636   5.762   8.218 -0.4512  0.3561 -1.1065
   22DOPE   H2X 2743   6.709   5.742   8.137  1.2368  2.2668 -0.1718
   22DOPE   H2Y 2744   6.608   5.666   8.267 -1.2282  1.1307  0.0265
   22DOPE   C23 2745   7.100   5.709   8.011 -0.2695 -0.3521 -0.2970
   22DOPE   H3R 2746   7.022   5.788   8.002 -0.8475 -0.9550 -0.7367
   22DOPE   H3S 2747   7.046   5.614   8.031 -0.3363 -0.0504  1.0302
   22DOPE   C24 2748   7.173   5.681   7.880  0.0206 -0.6221 -0.2533
   22DOPE   H4R 2749   7.100   5.638   7.808 -0.1259  1.4643 -1.4304
   22DOPE   H4S 2750   7.248   5.601   7.897  1.3378  0.1415 -2.0967
   22DOPE   C25 2751   7.230   5.812   7.802 -0.2705  0.1867 -0.0252
   22DOPE   H5R 2752   7.269   5.766   7.709  0.1230 -0.5761  0.5078
   22DOPE   H5S 2753   7.313   5.858   7.860  0.2964 -1.7325  0.7741
   22DOPE   C26 2754   7.114   5.908   7.767  0.1839 -0.0240  0.4444
   22DOPE   H6R 2755   7.094   5.983   7.846  1.3853  1.7705 -0.8774
   22DOPE   H6S 2756   7.020   5.850   7.755  0.0005  0.3676 -0.0830
   22DOPE   C27 2757   7.146   5.998   7.643  0.1909 -0.0760 -0.3839
   22DOPE   H7R 2758   7.254   6.025   7.634  0.2962  0.1032  1.1506
   22DOPE   H7S 2759   7.087   6.091   7.647 -0.5026 -0.5135 -0.3227
   22DOPE   C28 2760   7.112   5.922   7.515 -0.2263  0.0832  0.9406
   22DOPE   H8R 2761   7.178   5.835   7.498 -0.6085 -0.0122 -0.1885
   22DOPE   H8S 2762   7.144   5.990   7.433  0.0277 -0.3152  0.7089
   22DOPE   C29 2763   6.969   5.897   7.481 -0.4707 -0.1534 -0.9168
   22DOPE   H9R 2764   6.915   5.977   7.430 -0.4266 -1.0536 -2.4280
   22DOPE  C210 2765   6.913   5.773   7.485  0.0946 -0.1908 -0.2574
   22DOPE  H10R 2766   6.806   5.770   7.462 -0.2132  1.0857  0.8667
   22DOPE  C211 2767   6.975   5.648   7.543 -1.1495  0.0913 -0.0633
   22DOPE  H11R 2768   6.918   5.613   7.632 -1.4220  0.8943  0.0868
   22DOPE  H11S 2769   7.079   5.658   7.581  0.2354 -1.4485 -3.0698
   22DOPE  C212 2770   6.988   5.533   7.436 -0.5080  0.0285 -0.0265
   22DOPE  H12R 2771   7.058   5.570   7.359  0.5894  0.9119  1.3485
   22DOPE  H12S 2772   6.888   5.543   7.389 -0.8059  0.5686  0.6911
   22DOPE  C213 2773   7.043   5.400   7.487  0.3064 -0.0574 -0.0239
   22DOPE  H13R 2774   7.145   5.413   7.529  0.5622  0.0764 -0.6711
   22DOPE  H13S 2775   7.046   5.336   7.395 -1.6158  0.1791 -0.2919
   22DOPE  C214 2776   6.951   5.327   7.596  0.1124 -0.5486 -0.5794
   22DOPE  H14R 2777   6.854   5.319   7.543  0.1617  1.3527 -1.0135
   22DOPE  H14S 2778   6.945   5.390   7.687  0.0328 -3.0322  1.2407
   22DOPE  C215 2779   7.001   5.185   7.631 -0.3867 -0.2593  0.0289
   22DOPE  H15R 2780   7.023   5.131   7.537  2.8195  1.7696 -0.5201
   22DOPE  H15S 2781   6.913   5.133   7.674 -2.1618  3.4948  1.4176
   22DOPE  C216 2782   7.122   5.175   7.718  0.9276  0.1003  0.0008
   22DOPE  H16R 2783   7.111   5.258   7.792 -1.5936 -0.6558  0.5777
   22DOPE  H16S 2784   7.210   5.198   7.653  0.5472  1.1922 -0.1571
   22DOPE  C217 2785   7.139   5.041   7.796  0.3200  0.3252  0.9635
   22DOPE  H17R 2786   7.247   5.039   7.823  1.6136 -1.2140 -3.5469
   22DOPE  H17S 2787   7.135   4.950   7.733  4.0530  0.0057  0.9795
   22DOPE  C218 2788   7.042   5.026   7.915 -0.9756  0.1998  0.3916
   22DOPE  H18R 2789   6.940   5.033   7.872  0.1460 -2.8076 -3.2285
   22DOPE  H18S 2790   7.062   5.110   7.986 -0.4283 -0.0550  0.5496
   22DOPE  H18T 2791   7.043   4.929   7.969 -3.5298 -0.0878  0.0314
   22DOPE   C33 2792   6.514   5.846   8.165  0.3094  0.2517 -0.5336
   22DOPE   H3X 2793   6.543   5.952   8.149  1.2333  0.0140 -0.5230
   22DOPE   H3Y 2794   6.435   5.851   8.244  1.3461  0.0572  0.5526
   22DOPE   C34 2795   6.445   5.793   8.035 -0.3682  0.0910 -0.0189
   22DOPE   H4X 2796   6.531   5.782   7.965 -1.5168  0.3655 -1.5159
   22DOPE   H4Y 2797   6.408   5.689   8.048  0.0893 -0.0380  0.2559
   22DOPE   C35 2798   6.330   5.875   7.981  0.0719 -0.4743  0.2231
   22DOPE   H5X 2799   6.368   5.971   7.940  1.7934 -0.8245  0.9195
   22DOPE   H5Y 2800   6.268   5.902   8.070 -0.2286  0.0624 -0.1415
   22DOPE   C36 2801   6.248   5.803   7.877  0.2028 -0.4838  0.5690
   22DOPE   H6X 2802   6.228   5.704   7.922  1.1519 -1.4076 -0.9536
   22DOPE   H6Y 2803   6.299   5.793   7.778  0.9360  0.6653  0.8053
   22DOPE   C37 2804   6.111   5.875   7.857  0.0900  0.3815 -0.5812
   22DOPE   H7X 2805   6.072   5.896   7.958 -0.1346 -0.7983 -0.4108
   22DOPE   H7Y 2806   6.135   5.977   7.821  1.0117  1.7212  3.3840
   22DOPE   C38 2807   6.015   5.791   7.776  0.3989  1.1434  0.6239
   22DOPE   H8X 2808   5.921   5.850   7.779  0.5209  1.3816  0.0050
   22DOPE   H8Y 2809   6.000   5.695   7.830 -1.2409 -0.5448 -2.4911
   22DOPE   C39 2810   6.059   5.750   7.637 -0.0501 -0.0738 -0.1435
   22DOPE   H9X 2811   6.166   5.731   7.626 -0.3004 -1.1352 -0.9453
   22DOPE  C310 2812   6.005   5.764   7.517  0.4479 -0.4749 -0.7073
   22DOPE  H10X 2813   6.058   5.741   7.423 -1.0424  0.7127 -1.8927
   22DOPE  C311 2814   5.867   5.808   7.496  0.3776 -0.0964 -0.3830
   22DOPE  H11X 2815   5.809   5.717   7.469 -1.7176  1.1432 -0.2684
   22DOPE  H11Y 2816   5.826   5.856   7.587 -0.0911  0.3517 -0.8204
   22DOPE  C312 2817   5.845   5.912   7.390 -0.1872 -0.2523 -0.1294
   22DOPE  H12X 2818   5.905   5.889   7.299 -1.9011 -1.0320 -1.1084
   22DOPE  H12Y 2819   5.868   6.018   7.415  0.1448 -0.5626  0.9466
   22DOPE  C313 2820   5.702   5.907   7.346  0.3212  0.4854 -0.9187
   22DOPE  H13X 2821   5.678   5.801   7.326 -2.0017  0.6401  0.7171
   22DOPE  H13Y 2822   5.638   5.935   7.432 -0.9313  0.2849 -1.7607
   22DOPE  C314 2823   5.663   5.995   7.225 -0.1813  0.5920 -0.5112
   22DOPE  H14X 2824   5.560   5.966   7.194  0.0098 -0.3997 -0.2544
   22DOPE  H14Y 2825   5.741   5.972   7.150  0.4525 -2.3512  0.8808
   22DOPE  C315 2826   5.671   6.144   7.247  0.2216 -0.4157 -0.4295
   22DOPE  H15X 2827   5.776   6.173   7.269  0.3597 -0.2225 -1.3029
   22DOPE  H15Y 2828   5.590   6.169   7.319  0.0690 -1.5215 -0.1929
   22DOPE  C316 2829   5.643   6.219   7.117  0.3017 -0.0565  1.0278
   22DOPE  H16X 2830   5.615   6.326   7.132  0.2916 -0.0195  0.7586
   22DOPE  H16Y 2831   5.556   6.168   7.069 -0.6688  1.1780  1.4282
   22DOPE  C317 2832   5.759   6.221   7.016  0.2459 -0.1153  0.5650
   22DOPE  H17X 2833   5.825   6.308   7.036  1.1304 -0.6168 -0.0836
   22DOPE  H17Y 2834   5.817   6.128   7.030 -0.2686 -0.3764  1.0326
   22DOPE  C318 2835   5.705   6.237   6.871 -0.1740 -0.0608  0.3605
   22DOPE  H18X 2836   5.796   6.215   6.810  1.5939  0.3919  2.6762
   22DOPE  H18Y 2837   5.619   6.170   6.852  1.1399 -2.0348  1.0298
   22DOPE  H18Z 2838   5.662   6.339   6.864 -0.0632 -0.0433 -0.1052
   23DOPE     N 2839   3.452   0.979   8.211  0.0546 -0.2771  0.1228
   23DOPE   HN1 2840   3.369   1.041   8.201 -0.5334 -0.8904  1.0718
   23DOPE   HN2 2841   3.433   0.883   8.178 -2.9718  0.8573 -1.8853
   23DOPE   HN3 2842   3.489   0.986   8.308  0.0207 -0.1556  0.1274
   23DOPE   C12 2843   3.544   1.035   8.108  0.3982 -0.6234 -0.0419
   23DOPE  H12A 2844   3.556   1.138   8.146  0.5375 -1.9618  4.0599
   23DOPE  H12B 2845   3.490   1.031   8.011 -0.3251  0.7248  0.2894
   23DOPE   C11 2846   3.684   0.966   8.101 -0.1372 -0.2534 -0.2105
   23DOPE  H11A 2847   3.748   1.027   8.034  1.3154  0.5374  1.7731
   23DOPE  H11B 2848   3.678   0.871   8.044 -2.4905  0.4229 -1.1907
   23DOPE     P 2849   3.854   1.035   8.291 -0.3947  0.1163  0.0756
   23DOPE   O13 2850   3.967   0.949   8.325 -0.4759 -0.0546 -0.6591
   23DOPE   O14 2851   3.795   1.095   8.413 -0.3395 -1.0000 -0.4789
   23DOPE   O11 2852   3.891   1.157   8.198 -0.1667 -0.2818 -0.2894
   23DOPE   O12 2853   3.743   0.948   8.224  0.1349  0.1055  0.3526
   23DOPE    C1 2854   3.975   1.140   8.085 -0.8337  0.4851 -0.7714
   23DOPE    HA 2855   3.919   1.163   7.991 -1.1755 -0.5652 -0.8465
   23DOPE    HB 2856   4.013   1.035   8.084  0.3623  0.9073 -0.8546
   23DOPE    C2 2857   4.101   1.229   8.103 -0.0569 -0.4676 -0.4509
   23DOPE    HS 2858   4.148   1.210   8.202 -2.0936 -0.0762  0.6421
   23DOPE   O21 2859   4.055   1.366   8.095 -0.3764  0.4696 -0.0001
   23DOPE   C21 2860   4.142   1.455   8.147  0.4008 -0.4162  0.4418
   23DOPE   O22 2861   4.247   1.429   8.207  0.2082  0.2112 -0.6363
   23DOPE   C22 2862   4.093   1.594   8.130  0.4347 -0.4114  0.4817
   23DOPE   H2R 2863   4.139   1.658   8.207 -0.0646  1.5944 -0.8214
   23DOPE   H2S 2864   3.983   1.608   8.131  0.5407  0.6759 -0.7150
   23DOPE    C3 2865   4.196   1.193   7.984 -0.0547  1.2688 -0.1702
   23DOPE    HX 2866   4.296   1.243   7.984  0.2670  0.6395 -0.7704
   23DOPE    HY 2867   4.164   1.249   7.894  1.1194  1.0450 -0.7516
   23DOPE   O31 2868   4.205   1.050   7.961 -0.0287  0.1006  0.1888
   23DOPE   C31 2869   4.284   0.975   8.039 -0.0899  0.3402 -0.1529
   23DOPE   O32 2870   4.353   1.015   8.129 -0.8696 -0.2652 -0.0858
   23DOPE   C32 2871   4.276   0.829   7.980 -0.1265 -0.5601 -0.1692
   23DOPE   H2X 2872   4.244   0.757   8.059  1.0220 -2.3949 -1.2892
   23DOPE   H2Y 2873   4.198   0.819   7.902  0.5885 -1.2257 -0.8232
   23DOPE   C23 2874   4.140   1.633   7.992 -0.4976 -0.6109 -0.4233
   23DOPE   H3R 2875   4.098   1.561   7.918 -2.3428  0.1734 -0.1974
   23DOPE   H3S 2876   4.250   1.628   7.982 -0.2429 -0.1533  1.7761
   23DOPE   C24 2877   4.097   1.765   7.948  0.5770  0.1870  0.1735
   23DOPE   H4R 2878   4.135   1.853   8.004  0.5577  0.3857 -0.1254
   23DOPE   H4S 2879   3.986   1.773   7.953  0.7569  4.3014  0.3903
   23DOPE   C25 2880   4.143   1.792   7.803  0.0411 -0.4753 -0.0977
   23DOPE   H5R 2881   4.121   1.897   7.776 -0.9691 -0.6174  0.1207
   23DOPE   H5S 2882   4.087   1.715   7.746  0.8980 -2.1060  1.1712
   23DOPE   C26 2883   4.296   1.787   7.776  0.2022 -0.3007 -0.2726
   23DOPE   H6R 2884   4.337   1.684   7.774  1.5824  0.0053  3.4919
   23DOPE   H6S 2885   4.353   1.858   7.840 -2.4074  2.3802 -0.6560
   23DOPE   C27 2886   4.318   1.833   7.632  0.2970  0.4576 -0.1669
   23DOPE   H7R 2887   4.423   1.868   7.616  0.6190 -1.3144 -2.4906
   23DOPE   H7S 2888   4.253   1.922   7.619  1.3657  1.0941 -1.3373
   23DOPE   C28 2889   4.302   1.714   7.534  0.7726 -0.1613  0.0908
   23DOPE   H8R 2890   4.216   1.659   7.577 -0.8706  3.2557  1.6075
   23DOPE   H8S 2891   4.393   1.652   7.539 -0.0307 -1.3586  0.2663
   23DOPE   C29 2892   4.277   1.759   7.391  0.1945 -0.4093 -0.0424
   23DOPE   H9R 2893   4.331   1.851   7.366 -0.6659  0.1032 -0.0689
   23DOPE  C210 2894   4.197   1.699   7.299  0.2595 -0.6917  0.2999
   23DOPE  H10R 2895   4.193   1.743   7.199  2.5820 -2.3139 -0.6027
   23DOPE  C211 2896   4.132   1.570   7.331 -0.1041 -0.2924 -0.5310
   23DOPE  H11R 2897   4.146   1.534   7.435 -1.5638 -0.4460 -0.3673
   23DOPE  H11S 2898   4.194   1.505   7.267  4.3169  1.7831  1.2144
   23DOPE  C212 2899   3.982   1.559   7.289 -0.5248  0.1434 -0.6412
   23DOPE  H12R 2900   3.939   1.456   7.281  0.2103 -0.4879  2.2876
   23DOPE  H12S 2901   3.976   1.609   7.191  1.1793  0.9099 -0.3745
   23DOPE  C213 2902   3.895   1.632   7.386  0.0072 -0.2682 -0.3132
   23DOPE  H13R 2903   3.790   1.628   7.350 -0.7468 -2.2253  1.8753
   23DOPE  H13S 2904   3.918   1.740   7.397  1.9622 -0.5814 -0.9890
   23DOPE  C214 2905   3.881   1.584   7.535 -1.1141  0.3081 -0.4857
   23DOPE  H14R 2906   3.853   1.668   7.601 -1.1276 -1.3283  1.7094
   23DOPE  H14S 2907   3.982   1.542   7.553 -0.5356  0.6521 -2.6602
   23DOPE  C215 2908   3.784   1.467   7.548 -0.2259  0.4507 -0.7088
   23DOPE  H15R 2909   3.827   1.403   7.468  1.3270  2.0286 -1.2183
   23DOPE  H15S 2910   3.680   1.498   7.527 -0.7290  0.2835  1.3343
   23DOPE  C216 2911   3.794   1.406   7.694 -0.9317  0.7944  0.0392
   23DOPE  H16R 2912   3.885   1.345   7.713 -0.6879  1.3881  0.8589
   23DOPE  H16S 2913   3.708   1.335   7.696  0.1044 -0.5086 -0.2850
   23DOPE  C217 2914   3.773   1.513   7.805  0.5880  0.6879 -0.1088
   23DOPE  H17R 2915   3.681   1.568   7.776 -0.8721 -0.9873  1.1351
   23DOPE  H17S 2916   3.868   1.571   7.805  0.7793  0.4858 -2.4117
   23DOPE  C218 2917   3.753   1.459   7.947 -0.6004 -0.0114  0.6062
   23DOPE  H18R 2918   3.852   1.418   7.978 -0.0274  0.4784 -0.5532
   23DOPE  H18S 2919   3.669   1.387   7.954 -1.1085  0.4072 -0.9629
   23DOPE  H18T 2920   3.731   1.545   8.014 -1.4308  0.5825 -0.4147
   23DOPE   C33 2921   4.417   0.774   7.951 -0.2374  0.0014  0.4524
   23DOPE   H3X 2922   4.402   0.665   7.933 -0.4370  0.1778 -0.4816
   23DOPE   H3Y 2923   4.478   0.776   8.044  1.9249  0.6637 -0.9042
   23DOPE   C34 2924   4.487   0.840   7.830  0.3812  0.5610  0.6681
   23DOPE   H4X 2925   4.492   0.951   7.833  4.2212  0.6969 -2.2806
   23DOPE   H4Y 2926   4.589   0.800   7.844  0.1592  0.2052  1.2761
   23DOPE   C35 2927   4.426   0.795   7.691 -0.2937  0.1770 -0.6767
   23DOPE   H5X 2928   4.316   0.809   7.680 -0.6539 -1.2101  0.8118
   23DOPE   H5Y 2929   4.460   0.695   7.657  2.0516  1.5036 -2.4697
   23DOPE   C36 2930   4.475   0.886   7.571  0.4777 -1.0048 -0.2033
   23DOPE   H6X 2931   4.584   0.899   7.585  0.5736 -0.5377 -1.3620
   23DOPE   H6Y 2932   4.421   0.981   7.589 -0.3465 -0.7008 -3.6583
   23DOPE   C37 2933   4.435   0.840   7.434  0.0934  0.3878  0.6391
   23DOPE   H7X 2934   4.459   0.732   7.431 -0.9608  0.0909  2.1108
   23DOPE   H7Y 2935   4.331   0.864   7.405  0.6835  1.3762 -0.8627
   23DOPE   C38 2936   4.523   0.907   7.336 -0.8147 -0.0881 -0.2490
   23DOPE   H8X 2937   4.628   0.881   7.362 -0.1666 -2.2229 -4.1132
   23DOPE   H8Y 2938   4.503   1.015   7.345 -2.6638 -0.5660  2.7715
   23DOPE   C39 2939   4.506   0.857   7.193 -0.0808 -0.2780  0.2594
   23DOPE   H9X 2940   4.487   0.749   7.178 -1.1894  0.0807 -1.2220
   23DOPE  C310 2941   4.506   0.933   7.082  0.0399 -0.4278  0.2167
   23DOPE  H10X 2942   4.481   0.887   6.985 -0.2830  1.9141 -0.8681
   23DOPE  C311 2943   4.521   1.081   7.075  0.3677 -0.7114  0.6199
   23DOPE  H11X 2944   4.527   1.126   7.176 -0.2616 -0.8637  0.7282
   23DOPE  H11Y 2945   4.613   1.118   7.026 -1.1228 -1.3045 -2.9158
   23DOPE  C312 2946   4.399   1.149   7.008  0.3396 -0.3657  0.6513
   23DOPE  H12X 2947   4.312   1.122   7.072  0.1108 -1.1595  0.0209
   23DOPE  H12Y 2948   4.383   1.119   6.902  1.3170  2.2135 -0.2963
   23DOPE  C313 2949   4.417   1.303   7.014 -0.3526 -0.1300  1.1093
   23DOPE  H13X 2950   4.428   1.326   7.123  0.4804 -3.3587  1.8224
   23DOPE  H13Y 2951   4.518   1.327   6.976 -0.0295 -1.3269  1.1541
   23DOPE  C314 2952   4.303   1.389   6.959 -0.3037  1.3762 -0.0265
   23DOPE  H14X 2953   4.298   1.493   6.996 -1.9208  1.3443 -0.0841
   23DOPE  H14Y 2954   4.208   1.346   6.998 -0.0120  1.5971  0.9525
   23DOPE  C315 2955   4.306   1.388   6.806 -0.2679 -0.1263  0.3289
   23DOPE  H15X 2956   4.285   1.283   6.776 -1.4139  0.5324 -1.2968
   23DOPE  H15Y 2957   4.414   1.401   6.782 -0.1755 -2.2283 -0.5888
   23DOPE  C316 2958   4.199   1.475   6.735 -0.0696 -0.2326  0.0316
   23DOPE  H16X 2959   4.101   1.452   6.781 -1.3361  0.3335 -2.2366
   23DOPE  H16Y 2960   4.182   1.442   6.630  0.1783  0.5658 -0.2688
   23DOPE  C317 2961   4.230   1.625   6.742 -0.1327 -0.2436  0.5519
   23DOPE  H17X 2962   4.239   1.665   6.845 -2.4916 -0.8410  1.0462
   23DOPE  H17Y 2963   4.323   1.646   6.686 -0.5586 -1.6975 -0.7562
   23DOPE  C318 2964   4.108   1.697   6.683  0.4495 -0.3928  0.0550
   23DOPE  H18X 2965   4.026   1.680   6.756  0.3784 -0.6987 -0.0942
   23DOPE  H18Y 2966   4.123   1.806   6.668  3.1720 -0.8270 -0.9512
   23DOPE  H18Z 2967   4.078   1.650   6.587 -1.0056  0.4684  0.0670
   24DOPE     N 2968   6.336   5.968   8.783 -0.5185  0.1512  0.2006
   24DOPE   HN1 2969   6.386   5.980   8.874 -0.9406 -2.5843  0.8707
   24DOPE   HN2 2970   6.251   6.029   8.776 -0.0731  0.5645 -3.6603
   24DOPE   HN3 2971   6.314   5.867   8.781  1.9836 -0.4619  0.4445
   24DOPE   C12 2972   6.431   5.998   8.673 -0.7088 -0.3252  0.4226
   24DOPE  H12A 2973   6.522   5.937   8.692 -0.7834 -0.1451  1.3847
   24DOPE  H12B 2974   6.465   6.102   8.691 -1.0448 -0.0551 -0.4476
   24DOPE   C11 2975   6.377   5.975   8.530 -0.1590 -0.3989 -0.2629
   24DOPE  H11A 2976   6.362   5.867   8.507  0.0294 -0.5725  0.4102
   24DOPE  H11B 2977   6.467   6.004   8.470  1.8946 -0.9933  2.3291
   24DOPE     P 2978   6.261   6.194   8.448 -0.7786 -0.1492 -0.0564
   24DOPE   O13 2979   6.372   6.274   8.508 -0.3277  0.3413 -0.7450
   24DOPE   O14 2980   6.135   6.262   8.452  0.2254 -0.3869  0.3622
   24DOPE   O11 2981   6.299   6.147   8.304 -0.2683  0.5187  0.0062
   24DOPE   O12 2982   6.254   6.053   8.516 -0.0554  0.5781 -1.0721
   24DOPE    C1 2983   6.406   6.203   8.223 -0.0242  0.0566  0.1766
   24DOPE    HA 2984   6.448   6.124   8.157 -0.7474  0.9229 -1.3667
   24DOPE    HB 2985   6.490   6.244   8.284  0.2370  0.3054 -0.3436
   24DOPE    C2 2986   6.373   6.331   8.135  0.2989  0.4122 -0.1789
   24DOPE    HS 2987   6.473   6.362   8.096  2.0422 -0.0306  3.4733
   24DOPE   O21 2988   6.309   6.434   8.217  0.7466  1.1615  0.9474
   24DOPE   C21 2989   6.382   6.503   8.303 -0.1865 -0.0753  0.0850
   24DOPE   O22 2990   6.506   6.502   8.310  0.1081 -0.2476  0.2162
   24DOPE   C22 2991   6.297   6.581   8.398  0.1688 -0.1172  0.6210
   24DOPE   H2R 2992   6.337   6.685   8.408 -0.9267  0.3585  0.1225
   24DOPE   H2S 2993   6.305   6.527   8.495 -0.2457  1.7070  1.7208
   24DOPE    C3 2994   6.273   6.286   8.027 -0.3901 -0.7835 -0.0428
   24DOPE    HX 2995   6.172   6.244   8.047  0.3244 -2.0680  1.0257
   24DOPE    HY 2996   6.321   6.194   7.987 -0.8009 -0.5381 -1.1344
   24DOPE   O31 2997   6.262   6.386   7.920  0.3513  0.2116  0.0140
   24DOPE   C31 2998   6.168   6.474   7.928  1.0019  0.1431  0.2169
   24DOPE   O32 2999   6.065   6.456   7.997 -0.0869  0.2813 -0.1673
   24DOPE   C32 3000   6.207   6.592   7.838 -0.4297  0.0182 -0.2826
   24DOPE   H2X 3001   6.242   6.668   7.911  0.1222  0.0035 -0.5228
   24DOPE   H2Y 3002   6.292   6.569   7.770  0.5889  0.7953  0.6881
   24DOPE   C23 3003   6.154   6.592   8.355  0.7804 -0.2696  1.0313
   24DOPE   H3R 3004   6.091   6.620   8.442  0.4177  0.1618  0.6422
   24DOPE   H3S 3005   6.104   6.498   8.321 -0.1102 -0.1886  2.0674
   24DOPE   C24 3006   6.129   6.701   8.250 -0.1760 -0.4337 -0.2820
   24DOPE   H4R 3007   6.188   6.672   8.161  2.8581  2.0648  0.7303
   24DOPE   H4S 3008   6.168   6.795   8.296 -0.0277 -1.1069  1.0239
   24DOPE   C25 3009   5.978   6.726   8.223  0.1433 -0.1195 -0.0830
   24DOPE   H5R 3010   5.930   6.761   8.317 -0.6381 -0.9886 -0.1470
   24DOPE   H5S 3011   5.916   6.639   8.192 -2.2604  0.6499  2.1853
   24DOPE   C26 3012   5.954   6.827   8.113 -0.7591  0.0735 -0.0613
   24DOPE   H6R 3013   5.843   6.838   8.110 -0.7360  1.4368  2.1192
   24DOPE   H6S 3014   5.981   6.795   8.010 -0.3245 -1.6380  0.5492
   24DOPE   C27 3015   6.005   6.970   8.143  0.4960  0.7511 -0.1476
   24DOPE   H7R 3016   6.115   6.979   8.133  0.2411  4.8309 -1.0981
   24DOPE   H7S 3017   5.964   6.984   8.245  0.9186  1.3763 -0.0624
   24DOPE   C28 3018   5.939   7.079   8.050  0.1538 -0.5459 -0.0276
   24DOPE   H8R 3019   5.829   7.081   8.068  0.3352 -1.3804  1.3301
   24DOPE   H8S 3020   5.950   7.044   7.945 -2.2405  2.2661 -1.3551
   24DOPE   C29 3021   6.002   7.220   8.074 -0.7262  0.5943  0.3599
   24DOPE   H9R 3022   5.999   7.263   8.176  1.3459  0.6134  0.4567
   24DOPE  C210 3023   6.051   7.311   7.983  0.7930 -0.1217 -0.4099
   24DOPE  H10R 3024   6.122   7.384   8.025  1.9534 -1.4852  0.0770
   24DOPE  C211 3025   6.052   7.286   7.834  0.4944 -0.0600 -0.2082
   24DOPE  H11R 3026   5.950   7.314   7.799  0.3421  2.2203  1.7908
   24DOPE  H11S 3027   6.054   7.176   7.816 -1.7114 -0.0534 -0.7669
   24DOPE  C212 3028   6.154   7.344   7.740 -0.4770 -0.6300  0.4156
   24DOPE  H12R 3029   6.251   7.306   7.779  0.5192 -0.1583 -1.4386
   24DOPE  H12S 3030   6.162   7.455   7.731  0.9052 -0.8689 -2.2215
   24DOPE  C213 3031   6.148   7.278   7.599 -0.2280 -1.2605 -0.1768
   24DOPE  H13R 3032   6.054   7.297   7.542  0.7120 -0.8825 -1.6487
   24DOPE  H13S 3033   6.166   7.171   7.624  0.5619 -0.4736  3.0984
   24DOPE  C214 3034   6.256   7.331   7.502 -0.2576 -0.0424  0.3794
   24DOPE  H14R 3035   6.350   7.339   7.560 -1.1127 -0.8312  1.9295
   24DOPE  H14S 3036   6.236   7.438   7.477  2.7724  0.6953  0.6449
   24DOPE  C215 3037   6.281   7.240   7.383 -0.0877 -0.1794 -0.1803
   24DOPE  H15R 3038   6.183   7.200   7.349 -0.4817 -1.1075  1.9172
   24DOPE  H15S 3039   6.338   7.152   7.418 -0.6204 -0.3120  0.3663
   24DOPE  C216 3040   6.359   7.307   7.269  0.9695 -0.1548 -0.6050
   24DOPE  H16R 3041   6.458   7.341   7.307  0.5767 -0.7644  1.0299
   24DOPE  H16S 3042   6.301   7.390   7.223  0.2020  0.9093  2.0715
   24DOPE  C217 3043   6.382   7.206   7.164  0.1840 -0.1874  0.3815
   24DOPE  H17R 3044   6.290   7.146   7.147 -1.4328  1.3329  3.0727
   24DOPE  H17S 3045   6.460   7.144   7.212 -0.0616 -0.9830 -0.2326
   24DOPE  C218 3046   6.445   7.267   7.036 -0.7689 -1.0904 -0.1344
   24DOPE  H18R 3047   6.477   7.174   6.985 -0.8469 -0.9553 -0.4261
   24DOPE  H18S 3048   6.540   7.321   7.056 -0.3155 -1.4209 -1.3513
   24DOPE  H18T 3049   6.378   7.333   6.976 -0.1296  0.4783  0.8062
   24DOPE   C33 3050   6.087   6.659   7.751  0.2870  0.4526 -0.6386
   24DOPE   H3X 3051   5.998   6.681   7.815 -1.7285  1.9814 -3.7167
   24DOPE   H3Y 3052   6.051   6.595   7.668 -1.6522  1.9380 -1.0068
   24DOPE   C34 3053   6.121   6.798   7.691  0.1037 -0.0153  0.3528
   24DOPE   H4X 3054   6.170   6.860   7.769  0.4370 -0.6056  0.6198
   24DOPE   H4Y 3055   6.208   6.789   7.623  1.5953  1.0653  2.0259
   24DOPE   C35 3056   6.004   6.871   7.624 -0.0184  0.1990 -0.0233
   24DOPE   H5X 3057   6.021   6.980   7.633 -0.1813  0.4030 -1.8575
   24DOPE   H5Y 3058   5.916   6.841   7.685 -0.7984  2.0956 -0.1520
   24DOPE   C36 3059   5.988   6.830   7.475 -0.2573  0.9969 -0.7168
   24DOPE   H6X 3060   5.980   6.720   7.469 -1.0141  1.0095 -0.1077
   24DOPE   H6Y 3061   6.083   6.855   7.424  1.6385 -2.9193  0.5627
   24DOPE   C37 3062   5.872   6.895   7.391 -0.4522  1.0134 -0.3304
   24DOPE   H7X 3063   5.885   6.853   7.289 -1.1511  1.1558 -0.4776
   24DOPE   H7Y 3064   5.774   6.872   7.437 -0.4206  1.1193 -0.2079
   24DOPE   C38 3065   5.884   7.052   7.378 -0.7806  0.3164 -0.2843
   24DOPE   H8X 3066   5.991   7.075   7.359 -0.7872  0.2195 -0.4321
   24DOPE   H8Y 3067   5.861   7.101   7.475 -0.7268 -0.7231  0.2705
   24DOPE   C39 3068   5.794   7.112   7.270  0.6386 -0.8393 -0.2857
   24DOPE   H9X 3069   5.687   7.097   7.293  1.4288 -3.2358  2.4441
   24DOPE  C310 3070   5.826   7.177   7.158 -0.7063 -0.0649 -0.4518
   24DOPE  H10X 3071   5.741   7.232   7.115 -1.1690 -1.9425 -2.1232
   24DOPE  C311 3072   5.958   7.223   7.096  0.1363  0.8558 -0.4224
   24DOPE  H11X 3073   6.043   7.193   7.162 -2.4564 -1.0572  2.2823
   24DOPE  H11Y 3074   5.979   7.163   7.004  1.5204 -0.6995  0.8366
   24DOPE  C312 3075   5.959   7.368   7.076 -0.3407 -0.1701  0.1870
   24DOPE  H12X 3076   5.953   7.402   7.182 -4.7101 -2.7752  1.0158
   24DOPE  H12Y 3077   5.863   7.397   7.028 -0.3770 -1.0423 -0.2692
   24DOPE  C313 3078   6.089   7.421   7.010 -0.0213 -0.5753  0.7214
   24DOPE  H13X 3079   6.178   7.374   7.057  1.8965  1.2619 -0.9488
   24DOPE  H13Y 3080   6.081   7.388   6.904 -1.0061 -2.9591  1.4496
   24DOPE  C314 3081   6.105   7.575   7.021 -0.0157 -0.2088 -0.7086
   24DOPE  H14X 3082   6.116   7.610   7.126  0.7225 -0.8435 -0.5679
   24DOPE  H14Y 3083   6.016   7.624   6.976 -0.3516 -0.4205 -0.2903
   24DOPE  C315 3084   6.222   7.627   6.935 -0.1279  0.0893 -0.1648
   24DOPE  H15X 3085   6.183   7.625   6.831 -3.1043  0.7624  0.8520
   24DOPE  H15Y 3086   6.314   7.566   6.945 -0.9343 -0.9107  1.6602
   24DOPE  C316 3087   6.260   7.770   6.964 -0.1169 -0.6351  0.3582
   24DOPE  H16X 3088   6.333   7.819   6.896  0.6354 -0.6636  1.1297
   24DOPE  H16Y 3089   6.322   7.768   7.056 -1.6455  3.3566  1.6824
   24DOPE  C317 3090   6.143   7.874   6.981  0.4483  0.6215  0.2317
   24DOPE  H17X 3091   6.073   7.831   7.056 -0.0590  1.1603  0.0813
   24DOPE  H17Y 3092   6.173   7.979   7.004  1.0035  0.9610 -1.8472
   24DOPE  C318 3093   6.065   7.894   6.850 -0.2281  0.2209 -0.1350
   24DOPE  H18X 3094   5.973   7.957   6.861 -0.1906  0.1271  0.8189
   24DOPE  H18Y 3095   6.132   7.939   6.774  0.2395 -1.3410 -0.6621
   24DOPE  H18Z 3096   6.030   7.795   6.815 -1.5228 -0.3942  2.6088
   25DOPE     N 3097   6.047   0.247   8.797  0.0080 -0.1956  0.3340
   25DOPE   HN1 3098   6.136   0.242   8.743  0.7467 -0.9667  1.5858
   25DOPE   HN2 3099   5.971   0.232   8.727 -1.0087  0.8137  1.1684
   25DOPE   HN3 3100   6.028   0.345   8.827  0.7986  0.5510 -1.4455
   25DOPE   C12 3101   6.067   0.134   8.903  0.3047 -0.0087  0.7348
   25DOPE  H12A 3102   5.962   0.104   8.920  0.0944 -0.6959 -1.4967
   25DOPE  H12B 3103   6.098   0.186   8.996  1.7825  0.8421 -0.1913
   25DOPE   C11 3104   6.164   0.019   8.867  0.3113  0.2438  0.1282
   25DOPE  H11A 3105   6.152  -0.056   8.948  2.5689 -1.3726 -0.8991
   25DOPE  H11B 3106   6.263   0.070   8.863  0.1517  0.5119 -0.7635
   25DOPE     P 3107   6.221  -0.170   8.697  0.0427  0.2787  0.2798
   25DOPE   O13 3108   6.214  -0.259   8.811  0.5542  0.2379 -0.0038
   25DOPE   O14 3109   6.353  -0.126   8.635 -0.4646  0.3421 -1.0802
   25DOPE   O11 3110   6.134  -0.235   8.585  0.2159  0.6810 -0.7215
   25DOPE   O12 3111   6.143  -0.035   8.727  0.0862 -0.5991 -0.4376
   25DOPE    C1 3112   6.089  -0.175   8.462  0.4306 -0.6190 -0.0970
   25DOPE    HA 3113   6.082  -0.065   8.468  0.1303 -0.6424 -0.0271
   25DOPE    HB 3114   5.993  -0.219   8.427  0.2350  0.8525 -1.5429
   25DOPE    C2 3115   6.186  -0.203   8.347 -0.1935  0.4479  0.4798
   25DOPE    HS 3116   6.284  -0.156   8.371 -0.3633  0.3632  1.3847
   25DOPE   O21 3117   6.143  -0.161   8.219  0.4639 -0.9388  0.3102
   25DOPE   C21 3118   6.130  -0.035   8.192  0.0714 -0.1114 -0.6087
   25DOPE   O22 3119   6.160   0.059   8.269  0.3302  0.2277  0.2635
   25DOPE   C22 3120   6.101  -0.022   8.041  0.1535  0.0499 -0.0617
   25DOPE   H2R 3121   5.996  -0.056   8.029  0.5690 -1.3164  0.0633
   25DOPE   H2S 3122   6.173  -0.093   7.995 -0.1418 -1.1037  1.1980
   25DOPE    C3 3123   6.231  -0.351   8.353  0.5975  0.0859 -0.8304
   25DOPE    HX 3124   6.135  -0.406   8.363 -0.0519  1.5888  2.9847
   25DOPE    HY 3125   6.286  -0.376   8.446 -0.2877 -1.5401 -0.6954
   25DOPE   O31 3126   6.310  -0.390   8.242 -0.1461  0.3939  0.0180
   25DOPE   C31 3127   6.330  -0.521   8.235 -0.1223  0.3979 -0.8624
   25DOPE   O32 3128   6.288  -0.601   8.316  0.6229 -0.2132  0.0691
   25DOPE   C32 3129   6.419  -0.560   8.115  0.4753 -0.5768  0.0111
   25DOPE   H2X 3130   6.364  -0.522   8.026  1.5022 -1.1183 -0.8573
   25DOPE   H2Y 3131   6.509  -0.494   8.119  0.0305 -0.0023  1.7484
   25DOPE   C23 3132   6.113   0.121   7.983 -0.6611 -0.8134 -0.2369
   25DOPE   H3R 3133   6.217   0.158   7.988 -1.4741  1.5669  0.1045
   25DOPE   H3S 3134   6.052   0.194   8.040  0.9420 -1.1686  2.0861
   25DOPE   C24 3135   6.081   0.108   7.831 -0.4990 -0.1775 -0.4517
   25DOPE   H4R 3136   5.983   0.057   7.818 -0.8612 -0.1312  1.6933
   25DOPE   H4S 3137   6.158   0.043   7.784  1.9342  2.0540  0.1706
   25DOPE   C25 3138   6.069   0.234   7.744 -0.2231 -0.0608 -0.3478
   25DOPE   H5R 3139   6.161   0.296   7.746  0.4646 -1.0498 -0.5777
   25DOPE   H5S 3140   5.987   0.298   7.785  1.4765  1.4593  0.8282
   25DOPE   C26 3141   6.040   0.190   7.601  0.4061 -0.4052 -0.1416
   25DOPE   H6R 3142   5.946   0.134   7.620 -0.6191  1.4428  0.4652
   25DOPE   H6S 3143   6.106   0.108   7.567  0.8283  0.2027 -0.8279
   25DOPE   C27 3144   6.024   0.300   7.502 -0.0764  0.1956  0.4938
   25DOPE   H7R 3145   6.109   0.372   7.506 -0.0246  0.1645  0.0785
   25DOPE   H7S 3146   5.944   0.368   7.540  0.3213 -0.1814  2.0289
   25DOPE   C28 3147   6.004   0.259   7.356 -0.6927 -0.1317 -0.2201
   25DOPE   H8R 3148   6.085   0.189   7.327  1.3954  2.6717 -1.5903
   25DOPE   H8S 3149   6.018   0.349   7.293 -0.7099 -0.8559 -1.2874
   25DOPE   C29 3150   5.865   0.204   7.332 -0.1534 -0.1274 -0.2774
   25DOPE   H9R 3151   5.792   0.287   7.327 -0.1925 -0.0296  1.3115
   25DOPE  C210 3152   5.823   0.077   7.322  0.1100 -0.3763 -0.8019
   25DOPE  H10R 3153   5.716   0.059   7.304  0.0182  2.1258 -3.3766
   25DOPE  C211 3154   5.905  -0.048   7.341  0.2803  0.2374  0.2550
   25DOPE  H11R 3155   6.009  -0.033   7.377  1.3120 -3.8359 -0.5138
   25DOPE  H11S 3156   5.909  -0.087   7.237  1.3911  2.0581 -0.4468
   25DOPE  C212 3157   5.838  -0.142   7.447 -0.2063 -0.5528  1.0444
   25DOPE  H12R 3158   5.816  -0.093   7.544  1.8532  1.3155  0.6692
   25DOPE  H12S 3159   5.903  -0.229   7.470  1.7354  1.0110  1.7785
   25DOPE  C213 3160   5.701  -0.200   7.394 -0.4519 -0.1806  0.1884
   25DOPE  H13R 3161   5.728  -0.254   7.301 -1.2546 -2.2804  1.0893
   25DOPE  H13S 3162   5.629  -0.119   7.370  1.9832  3.1482  3.1378
   25DOPE  C214 3163   5.646  -0.290   7.497 -0.0120  0.6384  0.0739
   25DOPE  H14R 3164   5.633  -0.235   7.592  1.3587  0.1580  0.5653
   25DOPE  H14S 3165   5.721  -0.369   7.519 -1.1055 -0.3974  0.1737
   25DOPE  C215 3166   5.507  -0.357   7.468  0.2206 -0.1133 -0.4000
   25DOPE  H15R 3167   5.479  -0.421   7.555  2.2845  0.2755  0.6255
   25DOPE  H15S 3168   5.537  -0.428   7.388 -1.2999 -0.1151 -1.0042
   25DOPE  C216 3169   5.393  -0.265   7.418  0.5410 -0.5173 -0.1367
   25DOPE  H16R 3170   5.415  -0.214   7.321 -1.9971  2.1423  0.5376
   25DOPE  H16S 3171   5.387  -0.179   7.488  2.1115 -1.7135  1.5826
   25DOPE  C217 3172   5.256  -0.326   7.404 -0.2905  0.1965  0.0962
   25DOPE  H17R 3173   5.173  -0.252   7.392 -2.4058 -1.9280  0.7634
   25DOPE  H17S 3174   5.236  -0.374   7.502 -1.3443  1.1132  0.3638
   25DOPE  C218 3175   5.242  -0.419   7.284  0.0315  0.0183  0.1058
   25DOPE  H18R 3176   5.255  -0.359   7.192 -1.3927 -1.4422 -1.0809
   25DOPE  H18S 3177   5.137  -0.454   7.283 -0.6665  1.9526  0.9758
   25DOPE  H18T 3178   5.312  -0.505   7.281 -0.5836 -0.4650 -0.7958
   25DOPE   C33 3179   6.447  -0.708   8.110  0.3346  0.8578  0.7440
   25DOPE   H3X 3180   6.345  -0.751   8.109  0.1504  1.2858 -0.9812
   25DOPE   H3Y 3181   6.506  -0.746   8.197  0.1680  0.0734  0.5196
   25DOPE   C34 3182   6.529  -0.732   7.985 -0.5404 -0.3654  0.5560
   25DOPE   H4X 3183   6.480  -0.686   7.896 -0.9296 -0.3619  0.7741
   25DOPE   H4Y 3184   6.628  -0.683   7.997 -0.3365 -0.6018 -0.0576
   25DOPE   C35 3185   6.547  -0.888   7.974 -0.6064  0.0834 -0.2426
   25DOPE   H5X 3186   6.442  -0.925   7.979 -0.1688 -1.1281  0.5032
   25DOPE   H5Y 3187   6.590  -0.926   8.069  0.6650  0.4252 -0.6599
   25DOPE   C36 3188   6.613  -0.952   7.851  0.1099  0.1249  0.3414
   25DOPE   H6X 3189   6.721  -0.926   7.845 -0.0323  1.2220  1.9867
   25DOPE   H6Y 3190   6.557  -0.930   7.758 -0.3450 -1.7658  0.1333
   25DOPE   C37 3191   6.632  -1.103   7.881  0.3107 -0.3798 -0.3328
   25DOPE   H7X 3192   6.724  -1.117   7.942  0.9118  1.0415 -0.8541
   25DOPE   H7Y 3193   6.553  -1.139   7.950  0.3829 -0.6161 -0.3714
   25DOPE   C38 3194   6.646  -1.194   7.760 -0.2013 -0.1791  0.1748
   25DOPE   H8X 3195   6.563  -1.159   7.695  0.2470  0.1984 -0.1984
   25DOPE   H8Y 3196   6.633  -1.303   7.777  1.2645 -0.5623 -0.9725
   25DOPE   C39 3197   6.781  -1.177   7.687  0.5127  0.5031  0.2149
   25DOPE   H9X 3198   6.856  -1.156   7.765  0.2106 -1.4684  1.1022
   25DOPE  C310 3199   6.814  -1.141   7.560 -0.3133  0.2811 -0.2601
   25DOPE  H10X 3200   6.922  -1.129   7.542 -0.3545 -0.1553 -0.8436
   25DOPE  C311 3201   6.719  -1.143   7.440 -0.6541 -0.4019  0.9768
   25DOPE  H11X 3202   6.612  -1.142   7.469 -1.2689 -1.1304 -1.0725
   25DOPE  H11Y 3203   6.739  -1.044   7.391  3.1678 -0.0499  2.8806
   25DOPE  C312 3204   6.726  -1.254   7.345  0.0120 -0.1431  0.4995
   25DOPE  H12X 3205   6.682  -1.346   7.388 -1.8866  0.5053  0.0580
   25DOPE  H12Y 3206   6.830  -1.276   7.316 -0.4030 -0.8939 -0.4929
   25DOPE  C313 3207   6.644  -1.214   7.220 -0.1199 -0.0014  0.2509
   25DOPE  H13X 3208   6.538  -1.189   7.243  0.3120  0.5963  1.6880
   25DOPE  H13Y 3209   6.692  -1.130   7.165 -1.3682  0.1316 -0.6587
   25DOPE  C314 3210   6.635  -1.327   7.111 -0.9920 -0.4707  0.4983
   25DOPE  H14X 3211   6.582  -1.288   7.021 -2.0518  0.0315  1.3064
   25DOPE  H14Y 3212   6.573  -1.406   7.157  0.7428 -1.3959  1.3359
   25DOPE  C315 3213   6.772  -1.382   7.059  0.8797 -0.1671  0.2051
   25DOPE  H15X 3214   6.823  -1.418   7.150 -0.0983 -0.1810  0.7634
   25DOPE  H15Y 3215   6.816  -1.301   6.997  0.9274 -0.1232  0.2960
   25DOPE  C316 3216   6.766  -1.506   6.974  0.2931 -0.0600 -0.5998
   25DOPE  H16X 3217   6.729  -1.501   6.869 -1.1505 -1.6310 -0.2069
   25DOPE  H16Y 3218   6.708  -1.582   7.031  2.5801 -0.5376  1.2570
   25DOPE  C317 3219   6.912  -1.574   6.959 -0.1297  0.4620 -0.8026
   25DOPE  H17X 3220   6.935  -1.612   7.061  0.0514  1.2981 -0.5163
   25DOPE  H17Y 3221   6.914  -1.662   6.892 -1.9822 -0.6136  0.4402
   25DOPE  C318 3222   7.019  -1.484   6.912 -0.4749  0.6992 -0.3585
   25DOPE  H18X 3223   7.100  -1.551   6.874 -2.7571 -2.3492 -0.2686
   25DOPE  H18Y 3224   6.987  -1.421   6.826  0.1722 -1.8030 -2.5755
   25DOPE  H18Z 3225   7.046  -1.421   6.999  0.3060 -0.0864 -0.0141
   26DOPE     N 3226   7.374   0.042   8.427 -0.4680 -0.2802 -0.0901
   26DOPE   HN1 3227   7.399  -0.025   8.502  0.7204 -0.1589 -0.3543
   26DOPE   HN2 3228   7.272   0.042   8.406 -0.4685 -3.8453 -0.7488
   26DOPE   HN3 3229   7.423   0.006   8.342 -1.1957 -0.6010 -0.3869
   26DOPE   C12 3230   7.430   0.177   8.478 -0.2051  0.5896 -0.1783
   26DOPE  H12A 3231   7.400   0.200   8.582 -1.2432 -3.0841  0.4729
   26DOPE  H12B 3232   7.403   0.256   8.405 -0.1997 -0.7997 -1.7709
   26DOPE   C11 3233   7.590   0.164   8.487  0.2663 -0.2002  0.4989
   26DOPE  H11A 3234   7.626   0.268   8.472  1.4715 -0.7418 -0.4709
   26DOPE  H11B 3235   7.622   0.106   8.398 -2.1391 -2.8676  1.1908
   26DOPE     P 3236   7.644  -0.042   8.635 -0.1659 -0.2187  0.0556
   26DOPE   O13 3237   7.510  -0.100   8.608 -0.8373 -0.0599 -0.2577
   26DOPE   O14 3238   7.699  -0.061   8.770  0.3943  0.1369  0.4528
   26DOPE   O11 3239   7.745  -0.099   8.523  0.4005  0.4045  0.1521
   26DOPE   O12 3240   7.626   0.115   8.611  0.3605  0.4500 -0.4907
   26DOPE    C1 3241   7.867  -0.030   8.485  0.3102  0.2277  0.1055
   26DOPE    HA 3242   7.954  -0.070   8.541 -0.4717 -0.6722  0.7121
   26DOPE    HB 3243   7.866   0.077   8.514  0.8140  0.6751 -1.4479
   26DOPE    C2 3244   7.910  -0.031   8.331 -0.3603 -0.1333  0.6533
   26DOPE    HS 3245   7.833   0.029   8.277  0.3028 -0.1174 -0.2815
   26DOPE   O21 3246   7.918  -0.168   8.287  0.4138 -0.3507 -0.0536
   26DOPE   C21 3247   7.928  -0.197   8.164  0.3176 -0.6635 -0.0666
   26DOPE   O22 3248   7.922  -0.121   8.068  0.2360  0.0483 -0.0961
   26DOPE   C22 3249   7.960  -0.346   8.153 -0.3599  0.8343  0.5650
   26DOPE   H2R 3250   7.946  -0.414   8.239  0.6951  2.1755  1.8525
   26DOPE   H2S 3251   8.069  -0.358   8.137 -0.5546 -2.6391  1.0889
   26DOPE    C3 3252   8.037   0.050   8.314 -0.9127  0.2111 -0.0437
   26DOPE    HX 3253   8.114  -0.007   8.371 -0.8157 -0.4705 -0.8331
   26DOPE    HY 3254   8.020   0.149   8.361 -1.0454  0.0028  0.3458
   26DOPE   O31 3255   8.087   0.073   8.179  0.0111  0.1848 -1.0651
   26DOPE   C31 3256   8.010   0.160   8.106 -1.3508  0.2159  0.3453
   26DOPE   O32 3257   7.909   0.216   8.146  0.1985 -0.0783  0.2883
   26DOPE   C32 3258   8.084   0.183   7.971  0.4393 -0.2078  0.3848
   26DOPE   H2X 3259   8.159   0.263   7.985  0.4423 -0.4516  1.9393
   26DOPE   H2Y 3260   8.137   0.089   7.946  1.6516  1.2986 -3.4583
   26DOPE   C23 3261   7.871  -0.409   8.041 -0.8063  0.1373 -0.3789
   26DOPE   H3R 3262   7.896  -0.359   7.945 -1.3721  0.0823 -0.5559
   26DOPE   H3S 3263   7.765  -0.381   8.056 -0.9034  0.1199 -0.9955
   26DOPE   C24 3264   7.892  -0.559   8.025 -0.8273 -0.1407  0.1156
   26DOPE   H4R 3265   7.819  -0.587   7.945 -0.0462  0.4817 -0.8385
   26DOPE   H4S 3266   7.869  -0.607   8.122  1.9236  0.2488  1.0443
   26DOPE   C25 3267   8.029  -0.598   7.984 -0.1990  0.5913  0.0663
   26DOPE   H5R 3268   8.097  -0.569   8.067 -2.2241  2.4275  1.2000
   26DOPE   H5S 3269   8.065  -0.533   7.900  0.5142  1.0649  0.7207
   26DOPE   C26 3270   8.052  -0.746   7.952 -0.7131  0.0004  0.2650
   26DOPE   H6R 3271   8.018  -0.801   8.042  2.8980 -0.2080  1.6704
   26DOPE   H6S 3272   8.155  -0.784   7.933  0.0212  0.2996  3.1499
   26DOPE   C27 3273   7.971  -0.794   7.826 -0.1069  0.0883 -0.0789
   26DOPE   H7R 3274   7.866  -0.762   7.840 -0.9115  0.3663 -5.1011
   26DOPE   H7S 3275   7.983  -0.905   7.827 -0.2476  0.0276 -1.8160
   26DOPE   C28 3276   8.006  -0.739   7.691  0.2956  0.5543  1.0413
   26DOPE   H8R 3277   7.950  -0.644   7.674 -2.7826 -0.8848  2.3895
   26DOPE   H8S 3278   7.944  -0.799   7.622  2.6226 -2.1548  1.1185
   26DOPE   C29 3279   8.151  -0.739   7.650  0.1838  0.3303 -0.5656
   26DOPE   H9R 3280   8.208  -0.653   7.687  0.1249 -0.1040  0.5784
   26DOPE  C210 3281   8.212  -0.823   7.566 -1.0230 -0.2477 -0.4643
   26DOPE  H10R 3282   8.319  -0.808   7.545 -1.1962 -1.1182 -2.0898
   26DOPE  C211 3283   8.163  -0.951   7.499  0.0917 -0.2099 -0.2162
   26DOPE  H11R 3284   8.060  -0.973   7.533  0.2435 -0.6174 -0.0134
   26DOPE  H11S 3285   8.224  -1.042   7.517 -2.5237 -2.2219 -0.8841
   26DOPE  C212 3286   8.160  -0.939   7.350  0.3524  0.2670 -0.4110
   26DOPE  H12R 3287   8.129  -1.042   7.323 -0.6093  0.7329 -1.1697
   26DOPE  H12S 3288   8.254  -0.919   7.295  0.3197 -1.0085 -0.9538
   26DOPE  C213 3289   8.061  -0.843   7.290  0.0209 -0.3766  0.3383
   26DOPE  H13R 3290   8.073  -0.740   7.329 -0.0061 -0.8247  1.6003
   26DOPE  H13S 3291   7.964  -0.873   7.336  0.1454  2.4419  2.7081
   26DOPE  C214 3292   8.052  -0.823   7.136  0.0736 -0.2984 -0.6474
   26DOPE  H14R 3293   8.028  -0.916   7.080 -0.1281 -0.3470 -0.4832
   26DOPE  H14S 3294   8.154  -0.793   7.105  0.4837  0.0037  0.9357
   26DOPE  C215 3295   7.949  -0.717   7.091 -0.5811  0.3166  0.2336
   26DOPE  H15R 3296   7.965  -0.621   7.146  4.3566 -0.6483  0.9881
   26DOPE  H15S 3297   7.847  -0.759   7.106  0.5917 -1.7664  3.4551
   26DOPE  C216 3298   7.972  -0.690   6.943  0.2269  0.2118  0.0729
   26DOPE  H16R 3299   7.944  -0.788   6.898 -0.8137 -0.9609  3.0245
   26DOPE  H16S 3300   8.082  -0.687   6.930  0.2669  1.8064  0.6299
   26DOPE  C217 3301   7.892  -0.574   6.882  0.4104  0.6223  0.2949
   26DOPE  H17R 3302   7.908  -0.474   6.928 -1.2059  1.2425 -0.4264
   26DOPE  H17S 3303   7.791  -0.597   6.920  0.5965 -0.4890  0.1408
   26DOPE  C218 3304   7.904  -0.586   6.726 -0.1882  0.0510 -0.6871
   26DOPE  H18R 3305   7.860  -0.494   6.683  1.7401  1.3909  0.0191
   26DOPE  H18S 3306   7.870  -0.685   6.692 -0.3445  0.3929 -1.5452
   26DOPE  H18T 3307   8.014  -0.594   6.708 -0.2281 -0.9995 -0.4772
   26DOPE   C33 3308   7.970   0.222   7.873 -0.2898  0.2458 -0.2423
   26DOPE   H3X 3309   7.901   0.299   7.916 -0.3439 -0.3132  0.6971
   26DOPE   H3Y 3310   7.911   0.131   7.852  0.1946 -0.2825  0.6443
   26DOPE   C34 3311   8.026   0.281   7.741 -0.5429  0.0728 -1.1408
   26DOPE   H4X 3312   7.931   0.326   7.704 -0.8538  0.0180 -0.4254
   26DOPE   H4Y 3313   8.091   0.367   7.769 -1.3410  0.5247 -0.6327
   26DOPE   C35 3314   8.074   0.172   7.646  0.8332  0.1079  0.5570
   26DOPE   H5X 3315   8.010   0.082   7.652  0.0936  0.4220 -1.6200
   26DOPE   H5Y 3316   8.171   0.131   7.681  1.0623 -1.3072 -1.5554
   26DOPE   C36 3317   8.082   0.203   7.497  0.2195 -0.2304 -0.3752
   26DOPE   H6X 3318   7.994   0.264   7.466  0.8442  1.3047  0.7509
   26DOPE   H6Y 3319   8.074   0.108   7.440 -0.3845 -0.8369  0.6726
   26DOPE   C37 3320   8.213   0.271   7.464 -0.0179 -0.2478  0.1116
   26DOPE   H7X 3321   8.237   0.354   7.535 -2.5749  1.0392 -0.4196
   26DOPE   H7Y 3322   8.298   0.199   7.464 -0.6149 -0.9906  1.6288
   26DOPE   C38 3323   8.201   0.329   7.318 -0.2028  0.3291  0.3454
   26DOPE   H8X 3324   8.290   0.395   7.320  1.9095 -2.3456  1.6108
   26DOPE   H8Y 3325   8.110   0.392   7.323  0.8885  1.8774  1.5531
   26DOPE   C39 3326   8.203   0.220   7.208  0.5053 -0.3700 -0.9017
   26DOPE   H9X 3327   8.109   0.165   7.193 -0.9774  2.1750 -1.5832
   26DOPE  C310 3328   8.295   0.203   7.111  0.0722  0.3963 -0.1963
   26DOPE  H10X 3329   8.278   0.120   7.042 -0.9584 -0.6186  1.2179
   26DOPE  C311 3330   8.430   0.267   7.094 -0.6771 -0.1990  0.7504
   26DOPE  H11X 3331   8.462   0.321   7.185  0.4054 -1.4076  1.1121
   26DOPE  H11Y 3332   8.510   0.193   7.074  0.5626  1.2393  0.1719
   26DOPE  C312 3333   8.429   0.378   6.985 -0.0916 -0.4365  0.8956
   26DOPE  H12X 3334   8.524   0.436   6.981 -0.8027  0.7204  0.4890
   26DOPE  H12Y 3335   8.341   0.443   7.001  0.7504  1.3435 -1.1750
   26DOPE  C313 3336   8.403   0.328   6.841 -0.0046  0.3708  1.1608
   26DOPE  H13X 3337   8.504   0.300   6.803 -0.9978 -3.0103  0.7004
   26DOPE  H13Y 3338   8.332   0.242   6.839 -0.7632  1.0025 -0.1341
   26DOPE  C314 3339   8.341   0.428   6.733  0.2958 -0.5850  0.2950
   26DOPE  H14X 3340   8.395   0.525   6.740  0.1385 -0.5322  0.8647
   26DOPE  H14Y 3341   8.236   0.450   6.762  0.7021 -0.0025  1.4099
   26DOPE  C315 3342   8.332   0.364   6.599 -0.4220  0.5862 -0.7067
   26DOPE  H15X 3343   8.236   0.307   6.593 -0.2954  0.0032  1.7236
   26DOPE  H15Y 3344   8.409   0.286   6.584 -0.2687  0.7865 -0.9559
   26DOPE  C316 3345   8.344   0.463   6.481  0.5718 -0.1999  1.1408
   26DOPE  H16X 3346   8.449   0.496   6.464  0.0386  0.4878 -1.1498
   26DOPE  H16Y 3347   8.276   0.547   6.506 -1.7592 -1.0245 -1.8918
   26DOPE  C317 3348   8.277   0.402   6.357  0.1570  0.1819 -0.1978
   26DOPE  H17X 3349   8.329   0.304   6.346 -1.5776 -0.8595  0.4063
   26DOPE  H17Y 3350   8.170   0.375   6.370 -0.3504  1.9372 -0.5329
   26DOPE  C318 3351   8.306   0.495   6.237 -0.0553 -0.0219 -0.6404
   26DOPE  H18X 3352   8.406   0.466   6.199 -0.5419 -2.3189 -0.3308
   26DOPE  H18Y 3353   8.241   0.483   6.148  0.2256 -2.8501 -0.5788
   26DOPE  H18Z 3354   8.293   0.601   6.266 -1.3141 -0.1695 -0.6279
   27DOPE     N 3355   7.333   6.894   8.641  0.2040  0.3149 -0.3345
   27DOPE   HN1 3356   7.352   6.988   8.682 -1.4646  0.8461 -0.6961
   27DOPE   HN2 3357   7.361   6.819   8.706 -0.1688 -1.1005 -1.7346
   27DOPE   HN3 3358   7.402   6.894   8.563 -0.2061 -2.3201 -0.7605
   27DOPE   C12 3359   7.193   6.885   8.588 -0.6012 -0.6204 -0.6899
   27DOPE  H12A 3360   7.141   6.836   8.673 -1.4551  1.7906  0.2768
   27DOPE  H12B 3361   7.199   6.809   8.507 -2.3420 -2.0622  0.4451
   27DOPE   C11 3362   7.121   7.018   8.556  0.0842 -0.2315 -0.0525
   27DOPE  H11A 3363   7.019   6.997   8.516 -0.7093  1.3417  1.0170
   27DOPE  H11B 3364   7.194   7.066   8.488 -0.1097 -0.8809 -0.7304
   27DOPE     P 3365   7.049   7.238   8.681  0.1775  0.2835  0.1576
   27DOPE   O13 3366   7.142   7.350   8.713  0.5034 -0.1646  0.4849
   27DOPE   O14 3367   6.926   7.224   8.759 -0.4898 -0.7607 -0.1460
   27DOPE   O11 3368   7.022   7.245   8.524  0.1597  0.0858 -0.0715
   27DOPE   O12 3369   7.123   7.094   8.673 -0.3283 -0.1646  0.0135
   27DOPE    C1 3370   6.897   7.280   8.471  0.6209  0.0247  0.2067
   27DOPE    HA 3371   6.912   7.330   8.373 -0.6132 -0.2843 -0.1580
   27DOPE    HB 3372   6.839   7.352   8.532 -0.8153 -0.5035 -0.4998
   27DOPE    C2 3373   6.801   7.158   8.439  0.3769 -0.7439 -0.1906
   27DOPE    HS 3374   6.791   7.096   8.530 -2.9176 -0.2995 -0.1433
   27DOPE   O21 3375   6.852   7.086   8.328 -0.0297  0.1012 -0.2590
   27DOPE   C21 3376   6.807   6.959   8.328  0.1353 -0.0959 -0.2109
   27DOPE   O22 3377   6.741   6.907   8.420 -0.9811  0.4028  0.8191
   27DOPE   C22 3378   6.849   6.884   8.198  0.2068  0.2155  0.5300
   27DOPE   H2R 3379   6.808   6.937   8.110 -1.0069  1.1134  1.5976
   27DOPE   H2S 3380   6.803   6.783   8.202  0.8926 -0.0679  1.8800
   27DOPE    C3 3381   6.648   7.209   8.405 -0.8698  0.1842 -0.1330
   27DOPE    HX 3382   6.623   7.258   8.501 -1.8817 -1.4842  0.4945
   27DOPE    HY 3383   6.580   7.122   8.394 -1.6033  0.9081 -1.7179
   27DOPE   O31 3384   6.641   7.287   8.279  0.3673  0.3764 -0.1430
   27DOPE   C31 3385   6.636   7.421   8.289 -0.8805 -0.0766 -0.6822
   27DOPE   O32 3386   6.620   7.473   8.398  0.2502 -0.7611 -0.5797
   27DOPE   C32 3387   6.640   7.491   8.153 -0.2554  0.3387  0.9103
   27DOPE   H2X 3388   6.746   7.517   8.135 -0.5574  0.7763 -0.3190
   27DOPE   H2Y 3389   6.603   7.411   8.086 -1.1518 -1.7829  3.7317
   27DOPE   C23 3390   6.993   6.855   8.196 -0.3625 -0.7482 -0.1781
   27DOPE   H3R 3391   7.015   6.788   8.281  0.5747  0.3436  0.4727
   27DOPE   H3S 3392   7.058   6.945   8.193 -0.9084 -0.3509 -0.3275
   27DOPE   C24 3393   7.028   6.771   8.072 -0.0092  0.0098 -0.3573
   27DOPE   H4R 3394   6.948   6.695   8.060 -0.1573  0.1763 -0.4378
   27DOPE   H4S 3395   7.123   6.720   8.100  1.2822  2.7358  0.5852
   27DOPE   C25 3396   7.047   6.862   7.944  0.9824  0.4059 -0.2215
   27DOPE   H5R 3397   7.137   6.927   7.954 -0.0988  2.7020 -3.7684
   27DOPE   H5S 3398   6.960   6.930   7.935  0.0695 -0.7005  0.1124
   27DOPE   C26 3399   7.027   6.775   7.827 -0.2788 -0.0381 -0.0380
   27DOPE   H6R 3400   6.935   6.713   7.834 -0.5863  0.3929 -0.2048
   27DOPE   H6S 3401   7.117   6.711   7.824 -0.8402 -0.8431 -0.2132
   27DOPE   C27 3402   7.039   6.844   7.689 -0.0532 -0.0145 -0.5511
   27DOPE   H7R 3403   6.968   6.930   7.681  1.2549  1.0266 -1.2166
   27DOPE   H7S 3404   7.007   6.774   7.609 -1.6012 -0.4774  0.4154
   27DOPE   C28 3405   7.178   6.898   7.654  0.1016 -1.0978 -0.2355
   27DOPE   H8R 3406   7.243   6.809   7.664  0.1399 -1.1170 -0.6267
   27DOPE   H8S 3407   7.210   6.972   7.731  3.8353  0.0346 -2.6244
   27DOPE   C29 3408   7.183   6.962   7.515 -0.4232  0.5126 -0.1883
   27DOPE   H9R 3409   7.104   7.035   7.490  1.4197  1.7751 -2.7571
   27DOPE  C210 3410   7.278   6.932   7.426  0.1121  0.5876 -0.3582
   27DOPE  H10R 3411   7.256   6.975   7.327  2.7197 -2.1458 -2.3085
   27DOPE  C211 3412   7.396   6.843   7.445 -0.7653 -0.5866  0.0321
   27DOPE  H11R 3413   7.366   6.736   7.436  2.4091 -1.5461 -0.2361
   27DOPE  H11S 3414   7.443   6.865   7.543 -0.7643 -1.8641  0.3346
   27DOPE  C212 3415   7.510   6.867   7.341 -0.2625 -0.1733  0.9677
   27DOPE  H12R 3416   7.588   6.791   7.363  0.5228 -0.1775 -1.4660
   27DOPE  H12S 3417   7.568   6.960   7.364 -0.2944 -0.5217  2.5739
   27DOPE  C213 3418   7.471   6.866   7.193  0.2305  0.0839 -0.4402
   27DOPE  H13R 3419   7.441   6.971   7.173  0.6439  0.8575  2.5878
   27DOPE  H13S 3420   7.381   6.802   7.181 -0.8372  1.2241  1.1027
   27DOPE  C214 3421   7.581   6.834   7.091  0.2550 -0.1626  0.4340
   27DOPE  H14R 3422   7.661   6.906   7.117  1.2653 -0.7470 -0.9417
   27DOPE  H14S 3423   7.543   6.844   6.987 -0.1857 -0.4320  0.5685
   27DOPE  C215 3424   7.622   6.687   7.103  0.7312  0.8835  0.4792
   27DOPE  H15R 3425   7.537   6.616   7.109  0.9356  0.5471 -0.4884
   27DOPE  H15S 3426   7.678   6.666   7.197 -0.0544  1.0040  0.9794
   27DOPE  C216 3427   7.716   6.640   6.987  0.4173 -0.5504 -0.0816
   27DOPE  H16R 3428   7.790   6.721   6.969  1.8023 -1.8911 -0.6487
   27DOPE  H16S 3429   7.654   6.625   6.896 -2.1798  0.6578  1.3573
   27DOPE  C217 3430   7.799   6.517   7.021 -0.8199 -0.3090  0.0949
   27DOPE  H17R 3431   7.723   6.442   7.052  0.5668 -1.3126  1.1830
   27DOPE  H17S 3432   7.855   6.542   7.113 -0.2255 -0.9711 -0.0728
   27DOPE  C218 3433   7.889   6.468   6.906  0.0714 -1.0612  0.1447
   27DOPE  H18R 3434   7.962   6.550   6.887 -0.5848 -0.5514 -0.1808
   27DOPE  H18S 3435   7.824   6.451   6.818  0.3622 -2.4914  0.1888
   27DOPE  H18T 3436   7.945   6.375   6.930 -0.6110 -1.4701  0.1585
   27DOPE   C33 3437   6.546   7.610   8.165  0.1495  0.9645 -0.5457
   27DOPE   H3X 3438   6.574   7.674   8.252 -2.3539 -0.2417  1.2719
   27DOPE   H3Y 3439   6.447   7.566   8.188 -0.2793  1.5871 -1.1707
   27DOPE   C34 3440   6.522   7.689   8.029  0.2320  0.4398  0.1417
   27DOPE   H4X 3441   6.438   7.762   8.037 -3.2904 -3.0977 -0.9359
   27DOPE   H4Y 3442   6.621   7.739   8.025  1.1804 -1.1809  1.5887
   27DOPE   C35 3443   6.508   7.603   7.899  0.2678 -0.0559 -0.5649
   27DOPE   H5X 3444   6.413   7.549   7.916 -0.1459 -0.3243 -3.2363
   27DOPE   H5Y 3445   6.590   7.532   7.876  2.1056  1.6934  0.2869
   27DOPE   C36 3446   6.485   7.698   7.778  1.1115 -0.1649 -0.1509
   27DOPE   H6X 3447   6.576   7.762   7.768  0.6486  0.2520 -2.0258
   27DOPE   H6Y 3448   6.402   7.769   7.802  0.1159 -1.3590  0.0524
   27DOPE   C37 3449   6.473   7.620   7.648  0.0059 -0.6055 -0.4842
   27DOPE   H7X 3450   6.559   7.549   7.641  0.0039 -0.7384  0.7541
   27DOPE   H7Y 3451   6.382   7.556   7.648 -1.9244  1.9562  1.0403
   27DOPE   C38 3452   6.467   7.712   7.524  0.5572  0.2022 -0.4097
   27DOPE   H8X 3453   6.556   7.779   7.533  0.4185  0.3964 -0.4819
   27DOPE   H8Y 3454   6.384   7.785   7.530 -0.5917 -0.8824 -2.1757
   27DOPE   C39 3455   6.454   7.645   7.388 -0.1082  0.5412 -0.9830
   27DOPE   H9X 3456   6.356   7.604   7.361 -0.6245  0.1146  1.3613
   27DOPE  C310 3457   6.549   7.635   7.290  0.2679  0.3429 -0.3584
   27DOPE  H10X 3458   6.510   7.592   7.196 -1.1539  2.3926 -0.7584
   27DOPE  C311 3459   6.689   7.683   7.300 -0.0044  0.6526  0.2811
   27DOPE  H11X 3460   6.702   7.756   7.217 -1.5495  0.5811 -0.0504
   27DOPE  H11Y 3461   6.701   7.745   7.391 -1.5596  1.2144  0.1282
   27DOPE  C312 3462   6.800   7.574   7.289  0.8195 -0.5427  0.6193
   27DOPE  H12X 3463   6.800   7.522   7.388  0.1628 -1.6787  0.0452
   27DOPE  H12Y 3464   6.895   7.628   7.270  1.2708 -0.3603  3.0426
   27DOPE  C313 3465   6.783   7.484   7.171  0.8526 -0.8261 -0.0666
   27DOPE  H13X 3466   6.690   7.423   7.179 -0.6505  1.1288 -1.5290
   27DOPE  H13Y 3467   6.763   7.550   7.083 -1.8055  0.2670  1.2510
   27DOPE  C314 3468   6.887   7.380   7.136 -0.4835  0.4487  0.2035
   27DOPE  H14X 3469   6.921   7.326   7.227  2.3279 -0.9059 -1.5141
   27DOPE  H14Y 3470   6.977   7.431   7.096 -0.5119  0.9808  0.8020
   27DOPE  C315 3471   6.843   7.279   7.027 -1.2033  0.2372  0.4306
   27DOPE  H15X 3472   6.840   7.325   6.926  0.7680  0.4652  0.4248
   27DOPE  H15Y 3473   6.740   7.240   7.041 -0.5845 -0.9703  1.9089
   27DOPE  C316 3474   6.938   7.158   7.011  0.1908  0.7138  0.7278
   27DOPE  H16X 3475   6.889   7.098   6.931 -0.4242  1.0409  0.8583
   27DOPE  H16Y 3476   6.942   7.112   7.112  0.5464  0.7930  0.7515
   27DOPE  C317 3477   7.079   7.195   6.957 -0.4256 -0.0913  0.4329
   27DOPE  H17X 3478   7.130   7.265   7.027  1.4589 -0.2769 -0.6766
   27DOPE  H17Y 3479   7.133   7.097   6.956 -0.3282 -0.0815  2.1493
   27DOPE  C318 3480   7.085   7.259   6.822 -0.0917 -0.0724  0.0600
   27DOPE  H18X 3481   7.072   7.177   6.748 -0.4172 -0.9596  1.0600
   27DOPE  H18Y 3482   7.009   7.339   6.813  0.0335  0.0707  0.2818
   27DOPE  H18Z 3483   7.183   7.309   6.808  1.2368 -2.3421  0.7264
   28DOPE     N 3484   7.339   7.491   8.786 -0.6891  0.5579 -0.1846
   28DOPE   HN1 3485   7.299   7.576   8.830  1.3905  2.6394 -2.0505
   28DOPE   HN2 3486   7.409   7.520   8.715  0.8447 -0.8731  0.6704
   28DOPE   HN3 3487   7.262   7.437   8.740 -0.2772  1.0502 -1.4770
   28DOPE   C12 3488   7.383   7.398   8.900 -0.7466 -0.7288 -0.3439
   28DOPE  H12A 3489   7.297   7.398   8.970 -1.1480 -0.2299 -0.8334
   28DOPE  H12B 3490   7.472   7.441   8.952  0.7260 -1.7002 -1.9491
   28DOPE   C11 3491   7.433   7.258   8.839  0.3841  0.1685 -0.4099
   28DOPE  H11A 3492   7.350   7.200   8.793 -0.5018  0.2726  0.9937
   28DOPE  H11B 3493   7.467   7.186   8.916 -0.6058  0.0643 -0.0621
   28DOPE     P 3494   7.579   7.166   8.651 -0.6321  0.0312  0.0180
   28DOPE   O13 3495   7.581   7.039   8.726 -0.5787 -0.6295  0.0330
   28DOPE   O14 3496   7.705   7.196   8.574 -0.9354  0.0192 -0.6938
   28DOPE   O11 3497   7.451   7.169   8.566 -0.2808  0.4724 -0.3587
   28DOPE   O12 3498   7.547   7.280   8.754  0.3483 -0.4841  0.0598
   28DOPE    C1 3499   7.397   7.276   8.495  0.3462  0.8474 -0.4229
   28DOPE    HA 3500   7.399   7.375   8.546 -1.0058  0.6393  0.0815
   28DOPE    HB 3501   7.289   7.256   8.479  0.1519  0.9283  0.6946
   28DOPE    C2 3502   7.431   7.297   8.343  0.6763  0.7382  0.2217
   28DOPE    HS 3503   7.349   7.360   8.302 -1.4049  0.2969  3.3627
   28DOPE   O21 3504   7.415   7.160   8.288 -0.4719  0.1352 -0.0604
   28DOPE   C21 3505   7.388   7.158   8.156  0.1539  0.0052  0.7015
   28DOPE   O22 3506   7.329   7.248   8.095  0.3302  0.2824 -0.1608
   28DOPE   C22 3507   7.429   7.021   8.103 -0.1877  0.2314  0.1893
   28DOPE   H2R 3508   7.361   6.952   8.157 -1.2562  1.7582  0.8670
   28DOPE   H2S 3509   7.537   7.001   8.117 -0.2099 -1.3348 -1.3938
   28DOPE    C3 3510   7.573   7.362   8.318  0.3187  0.4639  0.2261
   28DOPE    HX 3511   7.649   7.289   8.351  0.1460  0.0186 -0.3461
   28DOPE    HY 3512   7.589   7.448   8.386 -1.0940  0.2710  0.8510
   28DOPE   O31 3513   7.587   7.394   8.180  0.3851 -0.0793  0.4404
   28DOPE   C31 3514   7.565   7.527   8.149 -0.6663  0.4463  0.1723
   28DOPE   O32 3515   7.534   7.612   8.231  0.1448  0.3246  0.2379
   28DOPE   C32 3516   7.609   7.547   8.001  1.0430 -0.2710  0.1210
   28DOPE   H2X 3517   7.712   7.589   8.001  0.5943  1.0068  2.1701
   28DOPE   H2Y 3518   7.617   7.452   7.945 -0.1004 -0.6693  0.6042
   28DOPE   C23 3519   7.396   7.019   7.950  0.0293  0.4158  0.4406
   28DOPE   H3R 3520   7.299   7.069   7.925 -0.7528 -1.2180  0.0928
   28DOPE   H3S 3521   7.395   6.917   7.906 -0.4262  2.3318 -4.7009
   28DOPE   C24 3522   7.507   7.094   7.869  0.2632  0.0219  0.2657
   28DOPE   H4R 3523   7.610   7.059   7.894  0.6131  0.2152 -0.8334
   28DOPE   H4S 3524   7.501   7.198   7.908  0.0124 -0.0973  0.5537
   28DOPE   C25 3525   7.492   7.099   7.717 -0.5417  0.2574 -0.3626
   28DOPE   H5R 3526   7.385   7.112   7.690 -0.5798  1.3329  0.2383
   28DOPE   H5S 3527   7.542   7.015   7.665 -1.9090  0.1997 -1.6572
   28DOPE   C26 3528   7.567   7.225   7.674 -0.3142 -0.0840  0.4635
   28DOPE   H6R 3529   7.521   7.316   7.718 -0.9709 -0.4734  0.5841
   28DOPE   H6S 3530   7.551   7.233   7.564 -2.9957  1.6692  0.8710
   28DOPE   C27 3531   7.724   7.214   7.678 -1.1026  0.4538  0.4183
   28DOPE   H7R 3532   7.756   7.126   7.620 -1.5823 -0.8663  2.0774
   28DOPE   H7S 3533   7.753   7.219   7.785 -0.6649  2.6209  0.2508
   28DOPE   C28 3534   7.782   7.346   7.607 -0.5038  0.8706 -0.4944
   28DOPE   H8R 3535   7.740   7.436   7.657  0.5030 -0.2517  2.6211
   28DOPE   H8S 3536   7.747   7.342   7.502  0.2073  1.2961 -0.7515
   28DOPE   C29 3537   7.929   7.370   7.626  0.4041  0.1574 -0.2173
   28DOPE   H9R 3538   7.960   7.357   7.731 -2.1544  0.4878  0.6695
   28DOPE  C210 3539   8.022   7.376   7.529  0.2310 -0.0151 -0.7721
   28DOPE  H10R 3540   8.126   7.395   7.558  0.3359  1.5048 -1.9932
   28DOPE  C211 3541   8.001   7.385   7.381  0.4391  0.5025  0.2697
   28DOPE  H11R 3542   7.952   7.475   7.338 -3.0168 -1.2785  0.1240
   28DOPE  H11S 3543   7.932   7.306   7.346  0.6484 -0.5470  2.0944
   28DOPE  C212 3544   8.133   7.368   7.301 -0.0408  0.6483 -0.1927
   28DOPE  H12R 3545   8.201   7.443   7.345 -0.0554  0.8734 -0.5509
   28DOPE  H12S 3546   8.112   7.389   7.194 -0.8229 -4.4102 -1.3165
   28DOPE  C213 3547   8.187   7.226   7.323 -0.4329  0.4921 -0.4687
   28DOPE  H13R 3548   8.098   7.160   7.325  0.4621 -0.7574  1.4907
   28DOPE  H13S 3549   8.235   7.215   7.423 -2.8929  1.7824  0.9815
   28DOPE  C214 3550   8.276   7.182   7.208 -0.7455  0.1309  0.1076
   28DOPE  H14R 3551   8.355   7.252   7.171  0.6405  1.2277  4.5217
   28DOPE  H14S 3552   8.228   7.136   7.119  2.3904 -0.6252 -1.3570
   28DOPE  C215 3553   8.362   7.055   7.254  0.6496 -0.9948 -0.7841
   28DOPE  H15R 3554   8.278   6.988   7.282 -0.2745  0.8588  1.1979
   28DOPE  H15S 3555   8.418   7.077   7.348  1.1876  0.1120 -1.3497
   28DOPE  C216 3556   8.483   7.019   7.160  0.4937  0.1970  0.1005
   28DOPE  H16R 3557   8.549   7.103   7.131  1.7559 -1.2468 -1.4100
   28DOPE  H16S 3558   8.434   6.983   7.068 -0.4412  0.9373  0.2923
   28DOPE  C217 3559   8.577   6.918   7.223  0.3212  0.2073 -0.5112
   28DOPE  H17R 3560   8.533   6.822   7.257 -0.3908  1.2624  1.7135
   28DOPE  H17S 3561   8.614   6.961   7.318 -0.2669 -1.7163  0.6470
   28DOPE  C218 3562   8.702   6.877   7.150  0.0129 -0.0958  0.5002
   28DOPE  H18R 3563   8.773   6.814   7.207  0.8529 -0.4023 -0.8525
   28DOPE  H18S 3564   8.756   6.968   7.116 -0.1316 -0.2739 -0.2121
   28DOPE  H18T 3565   8.679   6.821   7.057  0.2376 -0.4764  0.6731
   28DOPE   C33 3566   7.520   7.648   7.923  0.0417  0.3597  0.3014
   28DOPE   H3X 3567   7.515   7.742   7.981 -1.2834  1.3106 -1.2773
   28DOPE   H3Y 3568   7.417   7.606   7.920  0.8817 -1.8413  0.1327
   28DOPE   C34 3569   7.549   7.659   7.776 -0.4243 -0.5304  0.1802
   28DOPE   H4X 3570   7.512   7.566   7.728 -1.3120 -1.0955  1.8829
   28DOPE   H4Y 3571   7.467   7.727   7.743  0.1033 -0.1259 -0.3231
   28DOPE   C35 3572   7.681   7.713   7.720 -0.5045  0.1795  0.8227
   28DOPE   H5X 3573   7.769   7.661   7.763 -0.3100  0.4989  0.8135
   28DOPE   H5Y 3574   7.684   7.819   7.752 -0.6661  0.2066  0.7518
   28DOPE   C36 3575   7.691   7.720   7.566 -0.0025  0.1397  0.3686
   28DOPE   H6X 3576   7.715   7.619   7.527 -1.2530  0.6617 -1.9231
   28DOPE   H6Y 3577   7.780   7.782   7.542  0.6098 -1.0498 -0.5499
   28DOPE   C37 3578   7.569   7.771   7.482  0.0440 -0.0455  0.3133
   28DOPE   H7X 3579   7.475   7.737   7.530  0.4501  1.5478  2.3669
   28DOPE   H7Y 3580   7.580   7.880   7.498 -1.3039  0.3526 -1.2398
   28DOPE   C38 3581   7.581   7.734   7.331 -0.0932 -0.7357  0.0090
   28DOPE   H8X 3582   7.486   7.762   7.283 -1.6572 -1.6784  2.3582
   28DOPE   H8Y 3583   7.595   7.624   7.326 -0.5857 -0.7479 -1.6520
   28DOPE   C39 3584   7.695   7.804   7.271 -0.7165 -0.7751  0.4623
   28DOPE   H9X 3585   7.709   7.902   7.319  0.8005  0.2327 -1.8908
   28DOPE  C310 3586   7.791   7.769   7.184 -0.0236 -0.0682  0.8057
   28DOPE  H10X 3587   7.830   7.848   7.118  0.5495 -1.5324 -0.7014
   28DOPE  C311 3588   7.800   7.628   7.120 -0.0196 -0.3061 -0.1878
   28DOPE  H11X 3589   7.863   7.565   7.186 -2.1057 -0.4447  1.7824
   28DOPE  H11Y 3590   7.699   7.583   7.124 -0.3798  0.5476  0.7570
   28DOPE  C312 3591   7.860   7.612   6.984 -0.5011  0.8174  0.4434
   28DOPE  H12X 3592   7.830   7.684   6.905  0.1257  0.7552  0.1434
   28DOPE  H12Y 3593   7.826   7.516   6.939  2.2931  0.1432 -0.4654
   28DOPE  C313 3594   8.016   7.608   6.995 -0.3802 -0.9070  0.1143
   28DOPE  H13X 3595   8.065   7.707   6.993 -1.6342 -0.1806  2.0810
   28DOPE  H13Y 3596   8.033   7.568   7.097 -1.8291  2.3417  1.7762
   28DOPE  C314 3597   8.077   7.510   6.887  0.0484 -0.0207  0.1390
   28DOPE  H14X 3598   8.025   7.415   6.908 -1.7984  0.6374 -1.1939
   28DOPE  H14Y 3599   8.183   7.486   6.911 -0.8615 -2.7442  1.8049
   28DOPE  C315 3600   8.063   7.553   6.747  0.6467 -0.1158  0.2327
   28DOPE  H15X 3601   7.960   7.589   6.726  1.0871  0.7499 -0.5130
   28DOPE  H15Y 3602   8.065   7.466   6.678 -1.5814  0.5365 -0.7464
   28DOPE  C316 3603   8.170   7.662   6.705  0.2278 -0.0583 -0.5110
   28DOPE  H16X 3604   8.266   7.612   6.732 -0.9740 -2.6572 -0.7615
   28DOPE  H16Y 3605   8.159   7.763   6.750 -0.1398 -0.9103  1.4353
   28DOPE  C317 3606   8.173   7.689   6.552 -0.5856 -0.0753 -0.2376
   28DOPE  H17X 3607   8.074   7.722   6.513 -0.0422  2.8413  0.5729
   28DOPE  H17Y 3608   8.243   7.775   6.548  0.4754 -0.9415 -0.6528
   28DOPE  C318 3609   8.213   7.582   6.459 -0.3160  0.4018 -0.0959
   28DOPE  H18X 3610   8.200   7.631   6.360  0.2687  0.3115 -0.2243
   28DOPE  H18Y 3611   8.315   7.550   6.490 -0.6228 -1.7606 -1.1624
   28DOPE  H18Z 3612   8.149   7.493   6.472 -0.5557  0.7232  1.0432
   29DOPE     N 3613   0.066   1.405   8.748  0.2599  0.3106  0.2124
   29DOPE   HN1 3614   0.012   1.493   8.744 -0.7408 -0.1647  1.9745
   29DOPE   HN2 3615   0.083   1.394   8.851 -1.5132  1.9100  0.7306
   29DOPE   HN3 3616   0.154   1.420   8.694  0.0237 -0.9810 -0.5730
   29DOPE   C12 3617  -0.020   1.305   8.689 -0.0182  1.2420  0.4855
   29DOPE  H12A 3618   0.035   1.209   8.699  0.4823  1.6494  2.0073
   29DOPE  H12B 3619  -0.035   1.327   8.581  0.2126  0.7914  0.3578
   29DOPE   C11 3620  -0.159   1.295   8.756 -0.6011  0.5377  0.2105
   29DOPE  H11A 3621  -0.139   1.267   8.862  1.9118 -3.8330 -1.1739
   29DOPE  H11B 3622  -0.218   1.215   8.708  0.5106  1.0423 -2.1273
   29DOPE     P 3623  -0.370   1.439   8.788  0.2489 -0.1580 -0.1445
   29DOPE   O13 3624  -0.404   1.580   8.825  0.3399 -0.3419  0.5873
   29DOPE   O14 3625  -0.407   1.335   8.892 -0.1605  0.1304 -0.2625
   29DOPE   O11 3626  -0.439   1.401   8.644 -0.0472 -0.3987 -0.6603
   29DOPE   O12 3627  -0.220   1.426   8.752 -0.0782  0.0752  0.4726
   29DOPE    C1 3628  -0.435   1.474   8.526  0.2632  0.4342 -0.1259
   29DOPE    HA 3629  -0.391   1.576   8.533  0.6619  0.1803  1.2576
   29DOPE    HB 3630  -0.537   1.493   8.486  0.3635 -0.5258 -0.8637
   29DOPE    C2 3631  -0.365   1.398   8.413  0.1447  0.0707 -0.6693
   29DOPE    HS 3632  -0.255   1.413   8.410  0.6728 -3.1554 -0.4799
   29DOPE   O21 3633  -0.420   1.426   8.284  0.5215  0.0681 -0.4917
   29DOPE   C21 3634  -0.417   1.559   8.247 -0.0359  0.0932  0.7396
   29DOPE   O22 3635  -0.362   1.642   8.312 -0.6177  0.5328 -0.1379
   29DOPE   C22 3636  -0.502   1.568   8.114 -0.2466  0.2385 -0.2341
   29DOPE   H2R 3637  -0.487   1.670   8.073 -3.1445  0.4776 -0.8943
   29DOPE   H2S 3638  -0.606   1.569   8.151 -0.3154  0.9327 -0.4496
   29DOPE    C3 3639  -0.380   1.243   8.434 -0.0610 -0.1585  0.0550
   29DOPE    HX 3640  -0.486   1.216   8.450 -0.0069 -0.9155 -0.7629
   29DOPE    HY 3641  -0.319   1.219   8.524  1.0894 -0.3359 -0.7387
   29DOPE   O31 3642  -0.321   1.184   8.323 -0.0442 -0.2426  0.4192
   29DOPE   C31 3643  -0.403   1.129   8.229 -0.0885 -0.0159 -0.0603
   29DOPE   O32 3644  -0.523   1.113   8.244  0.5737 -0.7045  0.0999
   29DOPE   C32 3645  -0.320   1.080   8.114  0.5193  0.7740  0.2939
   29DOPE   H2X 3646  -0.238   1.147   8.079 -0.6056  0.9125 -2.2835
   29DOPE   H2Y 3647  -0.261   0.995   8.154  0.9081  0.1486 -1.5179
   29DOPE   C23 3648  -0.468   1.453   8.009 -0.5903 -0.1740 -0.2162
   29DOPE   H3R 3649  -0.516   1.357   8.036 -0.1005 -0.2465  0.4219
   29DOPE   H3S 3650  -0.358   1.444   7.995 -0.2700 -0.1573  1.9022
   29DOPE   C24 3651  -0.534   1.498   7.877  0.0725 -0.2952 -0.0897
   29DOPE   H4R 3652  -0.483   1.589   7.839  0.4064  0.2724  1.5907
   29DOPE   H4S 3653  -0.637   1.538   7.892  0.6291  1.5082 -0.8526
   29DOPE   C25 3654  -0.552   1.386   7.770 -0.0696 -0.0102 -0.8021
   29DOPE   H5R 3655  -0.640   1.421   7.711 -0.5859 -0.3690 -0.2592
   29DOPE   H5S 3656  -0.579   1.291   7.821 -0.3850  1.6891  2.4543
   29DOPE   C26 3657  -0.432   1.357   7.678 -0.9065  0.4960  0.2288
   29DOPE   H6R 3658  -0.353   1.307   7.739 -0.0653  0.7863 -0.5987
   29DOPE   H6S 3659  -0.389   1.451   7.638  0.3408 -0.4663 -0.8074
   29DOPE   C27 3660  -0.479   1.265   7.564 -0.7997 -0.9011  0.3481
   29DOPE   H7R 3661  -0.576   1.307   7.529 -1.0160 -3.0327 -1.8703
   29DOPE   H7S 3662  -0.508   1.165   7.602 -1.6541 -0.2582  1.4458
   29DOPE   C28 3663  -0.363   1.261   7.461  0.0059  0.3373  0.5613
   29DOPE   H8R 3664  -0.262   1.251   7.507  0.9131  2.0102 -0.9462
   29DOPE   H8S 3665  -0.361   1.361   7.414  2.0194  0.9560  1.8163
   29DOPE   C29 3666  -0.389   1.158   7.354  0.6530  0.3751 -0.4979
   29DOPE   H9R 3667  -0.388   1.055   7.390  0.4778  0.6129  0.1897
   29DOPE  C210 3668  -0.433   1.180   7.226 -0.2056 -1.0363  0.1854
   29DOPE  H10R 3669  -0.437   1.094   7.157  0.8343  0.0460 -1.2941
   29DOPE  C211 3670  -0.465   1.314   7.166  0.2124 -0.2589  0.0983
   29DOPE  H11R 3671  -0.402   1.345   7.079 -0.4740 -0.2047 -0.3814
   29DOPE  H11S 3672  -0.456   1.401   7.235  0.4278  0.0877 -0.3552
   29DOPE  C212 3673  -0.607   1.323   7.108  0.0513  0.1695  0.2288
   29DOPE  H12R 3674  -0.632   1.427   7.076 -2.2005 -0.0868  0.9483
   29DOPE  H12S 3675  -0.683   1.299   7.185 -2.8507  2.8014 -1.5427
   29DOPE  C213 3676  -0.640   1.227   6.996 -0.4324 -1.0320  0.3408
   29DOPE  H13R 3677  -0.750   1.233   6.992 -0.4039 -0.9680 -0.6004
   29DOPE  H13S 3678  -0.611   1.123   7.023  0.2437 -0.7516  0.7212
   29DOPE  C214 3679  -0.569   1.270   6.867  0.1037 -0.4050 -0.2921
   29DOPE  H14R 3680  -0.465   1.239   6.890  0.2524 -1.0137 -1.6605
   29DOPE  H14S 3681  -0.584   1.380   6.865  1.0846 -0.2661 -1.4595
   29DOPE  C215 3682  -0.623   1.195   6.740  0.4391  0.2751  0.3950
   29DOPE  H15R 3683  -0.732   1.218   6.729  0.0159 -0.6072  2.3587
   29DOPE  H15S 3684  -0.604   1.086   6.749  1.6778  0.2698 -1.7407
   29DOPE  C216 3685  -0.550   1.229   6.613  0.8347  0.6766  0.1855
   29DOPE  H16R 3686  -0.444   1.197   6.618  0.7142  0.1002 -0.5867
   29DOPE  H16S 3687  -0.564   1.337   6.592 -1.3070  0.4563  0.2467
   29DOPE  C217 3688  -0.616   1.163   6.483 -0.1654  0.4398 -0.5373
   29DOPE  H17R 3689  -0.719   1.202   6.467 -0.4369  0.6618  1.4533
   29DOPE  H17S 3690  -0.621   1.053   6.469  1.7538  0.1741  0.5842
   29DOPE  C218 3691  -0.542   1.218   6.355  0.0294  0.5972  0.2931
   29DOPE  H18R 3692  -0.558   1.327   6.367 -0.4974  0.5458  0.0642
   29DOPE  H18S 3693  -0.582   1.180   6.259 -0.8487  0.8564  0.5509
   29DOPE  H18T 3694  -0.431   1.208   6.359 -0.1489 -1.6152  0.8088
   29DOPE   C33 3695  -0.404   1.027   7.994  0.1091 -0.9461  0.2062
   29DOPE   H3X 3696  -0.464   1.108   7.945 -0.0315 -2.6039 -2.6138
   29DOPE   H3Y 3697  -0.474   0.949   8.031 -0.3635 -0.1889  0.9407
   29DOPE   C34 3698  -0.310   0.973   7.885  0.8513 -0.1650 -0.0328
   29DOPE   H4X 3699  -0.256   1.049   7.825 -0.6535  1.0467  0.0897
   29DOPE   H4Y 3700  -0.257   0.886   7.930 -1.4307 -0.6548  1.9742
   29DOPE   C35 3701  -0.402   0.898   7.783 -0.4031 -0.5729  0.1360
   29DOPE   H5X 3702  -0.469   0.973   7.737  0.4117 -0.4944 -0.9672
   29DOPE   H5Y 3703  -0.468   0.822   7.830  0.7838 -2.0243 -0.4560
   29DOPE   C36 3704  -0.324   0.815   7.686 -0.0694  0.1238  0.1793
   29DOPE   H6X 3705  -0.283   0.726   7.739  0.4616 -0.0134 -0.4453
   29DOPE   H6Y 3706  -0.243   0.881   7.646  0.4292 -1.4490 -1.5025
   29DOPE   C37 3707  -0.412   0.755   7.571 -0.1629 -0.6485  0.2992
   29DOPE   H7X 3708  -0.488   0.692   7.623 -0.4463 -0.8182 -0.3171
   29DOPE   H7Y 3709  -0.464   0.841   7.523  1.5023  0.7015  0.8029
   29DOPE   C38 3710  -0.335   0.669   7.471 -0.1106 -0.0891 -0.1780
   29DOPE   H8X 3711  -0.241   0.724   7.449 -0.2380  1.1493  2.1490
   29DOPE   H8Y 3712  -0.396   0.667   7.378 -0.3228 -1.0796 -0.0295
   29DOPE   C39 3713  -0.329   0.533   7.534 -0.5112  0.4418 -0.3946
   29DOPE   H9X 3714  -0.328   0.535   7.644 -0.0309  2.1110 -0.4100
   29DOPE  C310 3715  -0.345   0.419   7.469  0.7372  0.1777  0.2663
   29DOPE  H10X 3716  -0.341   0.331   7.535 -0.1177  0.4021  0.6345
   29DOPE  C311 3717  -0.388   0.393   7.322  0.0480  0.2091  0.1912
   29DOPE  H11X 3718  -0.439   0.482   7.279 -1.6093 -0.4174  0.8077
   29DOPE  H11Y 3719  -0.299   0.380   7.257  0.0792  1.9729 -0.1553
   29DOPE  C312 3720  -0.492   0.277   7.298 -0.1134 -0.5353  0.1040
   29DOPE  H12X 3721  -0.578   0.314   7.357 -0.5964  0.9168 -1.4333
   29DOPE  H12Y 3722  -0.450   0.182   7.338  1.3293  0.3583  0.7939
   29DOPE  C313 3723  -0.535   0.267   7.152  0.0308  0.5966 -0.7755
   29DOPE  H13X 3724  -0.566   0.366   7.111 -0.9045 -0.0526 -1.6964
   29DOPE  H13Y 3725  -0.454   0.233   7.084 -0.3163  0.9014 -1.3496
   29DOPE  C314 3726  -0.643   0.155   7.132 -0.1219 -0.0142  0.5327
   29DOPE  H14X 3727  -0.741   0.183   7.177 -0.9344  0.5593 -1.5207
   29DOPE  H14Y 3728  -0.607   0.073   7.198 -0.5658  0.3671  1.2617
   29DOPE  C315 3729  -0.649   0.107   6.982 -0.1471 -0.2497 -0.4971
   29DOPE  H15X 3730  -0.665  -0.002   6.972 -1.1208  0.0115 -2.0380
   29DOPE  H15Y 3731  -0.552   0.131   6.933  1.0315  1.8901  2.5878
   29DOPE  C316 3732  -0.770   0.173   6.908 -0.4555 -0.8786  0.0224
   29DOPE  H16X 3733  -0.790   0.279   6.937 -1.9325 -1.2076  0.2988
   29DOPE  H16Y 3734  -0.860   0.117   6.939 -0.2393 -0.6990  1.0147
   29DOPE  C317 3735  -0.753   0.167   6.758 -1.2700  0.5421  0.5167
   29DOPE  H17X 3736  -0.648   0.196   6.737 -0.8317 -0.5172  1.1058
   29DOPE  H17Y 3737  -0.758   0.058   6.737  0.3356  0.4626  0.4134
   29DOPE  C318 3738  -0.848   0.236   6.671 -0.2831 -0.6791 -0.1246
   29DOPE  H18X 3739  -0.835   0.346   6.680  0.7652 -0.8956  1.2562
   29DOPE  H18Y 3740  -0.819   0.211   6.567 -0.4321 -1.4712  0.0228
   29DOPE  H18Z 3741  -0.955   0.211   6.692 -0.5070  0.9283  0.8425
   30DOPE     N 3742   0.103   0.542   8.849 -0.0385  0.6496  0.1485
   30DOPE   HN1 3743   0.089   0.564   8.949  0.7563 -1.7085  0.8383
   30DOPE   HN2 3744   0.079   0.632   8.802  0.7916  0.6914 -0.2222
   30DOPE   HN3 3745   0.031   0.473   8.821 -0.0099  0.4918  0.4593
   30DOPE   C12 3746   0.247   0.502   8.816  0.5026  0.4216  0.6479
   30DOPE  H12A 3747   0.264   0.399   8.853 -1.3020 -0.1639 -0.0750
   30DOPE  H12B 3748   0.324   0.561   8.871  1.3006 -1.4957  1.6665
   30DOPE   C11 3749   0.267   0.499   8.658  0.3362 -0.1712 -0.5180
   30DOPE  H11A 3750   0.206   0.413   8.624  1.8936 -1.4866 -0.0635
   30DOPE  H11B 3751   0.377   0.484   8.653  0.1174 -1.7266 -1.2913
   30DOPE     P 3752   0.342   0.725   8.532 -0.1328 -0.1681  0.5989
   30DOPE   O13 3753   0.470   0.704   8.602 -0.2863  0.3050  0.0576
   30DOPE   O14 3754   0.280   0.860   8.548  0.0631  0.7071 -0.0166
   30DOPE   O11 3755   0.363   0.697   8.379  0.2348 -0.2098 -0.5077
   30DOPE   O12 3756   0.239   0.618   8.586  0.4113 -0.0927  0.2343
   30DOPE    C1 3757   0.309   0.583   8.315 -0.1671  0.7817  0.0594
   30DOPE    HA 3758   0.203   0.566   8.345 -0.5826  0.4510 -1.5128
   30DOPE    HB 3759   0.368   0.490   8.330 -1.7007 -0.4874 -1.3299
   30DOPE    C2 3760   0.297   0.607   8.158  0.3361 -0.4078  0.1915
   30DOPE    HS 3761   0.265   0.514   8.107 -3.2310  1.1432 -0.7167
   30DOPE   O21 3762   0.414   0.666   8.104  0.1536 -0.3093 -0.3462
   30DOPE   C21 3763   0.505   0.590   8.062 -0.6868  0.3701  0.3194
   30DOPE   O22 3764   0.518   0.470   8.087  0.1082 -0.1262  0.0802
   30DOPE   C22 3765   0.608   0.663   7.962 -0.1878  0.4194  0.2092
   30DOPE   H2R 3766   0.687   0.586   7.950 -0.2162  0.6134 -1.4434
   30DOPE   H2S 3767   0.653   0.748   8.017 -0.7056  0.5479  0.4414
   30DOPE    C3 3768   0.184   0.710   8.119  0.3924 -0.5088 -0.6281
   30DOPE    HX 3769   0.199   0.805   8.174  0.7396 -0.2461 -1.1629
   30DOPE    HY 3770   0.085   0.672   8.153 -0.3050  0.8293 -1.1060
   30DOPE   O31 3771   0.174   0.755   7.975  0.1305  0.1332  0.1879
   30DOPE   C31 3772   0.093   0.681   7.906 -0.2011  0.5519 -0.4251
   30DOPE   O32 3773   0.038   0.579   7.945 -0.4514  0.3981  0.1587
   30DOPE   C32 3774   0.089   0.725   7.763 -0.3680 -0.1337 -0.1444
   30DOPE   H2X 3775   0.023   0.814   7.759 -1.2453 -0.6849  1.1941
   30DOPE   H2Y 3776   0.195   0.752   7.741 -0.0836 -1.4982 -0.5263
   30DOPE   C23 3777   0.551   0.707   7.825 -0.1223  0.5559 -0.8329
   30DOPE   H3R 3778   0.458   0.764   7.849  0.0222 -0.8732  4.3435
   30DOPE   H3S 3779   0.540   0.626   7.750  2.6396  0.7039 -1.4819
   30DOPE   C24 3780   0.653   0.807   7.762  0.7748  0.2246 -0.0494
   30DOPE   H4R 3781   0.753   0.762   7.741  1.6643  1.5571  1.1495
   30DOPE   H4S 3782   0.674   0.901   7.817 -0.2461  0.8138 -0.6369
   30DOPE   C25 3783   0.608   0.844   7.618  0.3163 -0.0336 -0.0171
   30DOPE   H5R 3784   0.502   0.876   7.624 -0.1842 -1.6941  0.3937
   30DOPE   H5S 3785   0.598   0.758   7.549  1.5092 -0.7473  0.6568
   30DOPE   C26 3786   0.695   0.945   7.532 -0.3308  0.6489 -0.5714
   30DOPE   H6R 3787   0.799   0.907   7.544 -1.2422 -1.6470  0.6721
   30DOPE   H6S 3788   0.691   1.044   7.581  0.6871 -0.2407  1.4244
   30DOPE   C27 3789   0.655   0.955   7.386  0.2241  0.3164 -0.0073
   30DOPE   H7R 3790   0.549   0.986   7.400 -0.8507 -3.0173  0.1044
   30DOPE   H7S 3791   0.658   0.858   7.332 -0.6150 -0.0139  0.5069
   30DOPE   C28 3792   0.746   1.065   7.313 -0.9737 -0.3291 -0.3118
   30DOPE   H8R 3793   0.850   1.026   7.314 -0.2975  1.3794  1.2083
   30DOPE   H8S 3794   0.753   1.156   7.377  3.8789 -0.4779 -0.2480
   30DOPE   C29 3795   0.701   1.103   7.169  0.1553  0.2497 -0.8380
   30DOPE   H9R 3796   0.691   1.009   7.113  0.6025  0.4579 -1.2701
   30DOPE  C210 3797   0.668   1.219   7.120 -0.1991 -0.1866  0.1919
   30DOPE  H10R 3798   0.637   1.227   7.015  0.5396  0.0527 -0.0185
   30DOPE  C211 3799   0.668   1.345   7.203  0.2462  0.0353  0.4332
   30DOPE  H11R 3800   0.754   1.355   7.272 -1.1240  1.3274  2.0581
   30DOPE  H11S 3801   0.583   1.350   7.275  0.4696 -1.2713  0.8084
   30DOPE  C212 3802   0.661   1.478   7.120 -0.3217 -0.6111 -0.7349
   30DOPE  H12R 3803   0.626   1.560   7.186 -2.4467 -1.3505 -0.8767
   30DOPE  H12S 3804   0.582   1.479   7.042 -0.3563 -0.8187 -0.7037
   30DOPE  C213 3805   0.795   1.528   7.071 -1.2603 -0.6640 -0.1465
   30DOPE  H13R 3806   0.835   1.461   6.992 -1.5247 -0.6543 -0.2878
   30DOPE  H13S 3807   0.864   1.514   7.157 -3.0966 -0.3886  1.4193
   30DOPE  C214 3808   0.812   1.673   7.031  0.6644  0.0993 -0.8245
   30DOPE  H14R 3809   0.760   1.731   7.110  1.5058 -1.1455  0.6852
   30DOPE  H14S 3810   0.754   1.692   6.938  1.0067 -0.2210 -1.1063
   30DOPE  C215 3811   0.955   1.718   7.009 -0.6852  0.1725 -0.3497
   30DOPE  H15R 3812   1.016   1.743   7.099  0.4015  1.8897 -1.4919
   30DOPE  H15S 3813   0.976   1.806   6.944  2.3789 -1.0240 -1.1969
   30DOPE  C216 3814   1.057   1.607   6.957  0.1978  0.2006 -0.2147
   30DOPE  H16R 3815   1.019   1.570   6.860  0.2165  0.5596 -0.3600
   30DOPE  H16S 3816   1.060   1.527   7.034 -1.1618  0.3986  0.0717
   30DOPE  C217 3817   1.200   1.660   6.929 -0.1394 -0.0594 -0.5095
   30DOPE  H17R 3818   1.245   1.716   7.014  0.3013  0.5607 -1.1355
   30DOPE  H17S 3819   1.190   1.737   6.849  1.0764 -0.2321 -0.8524
   30DOPE  C218 3820   1.298   1.551   6.883 -0.5484 -0.1964  0.4938
   30DOPE  H18R 3821   1.335   1.488   6.967  1.2202  0.8101  0.5261
   30DOPE  H18S 3822   1.392   1.591   6.838  0.5569  0.8892  3.4634
   30DOPE  H18T 3823   1.244   1.491   6.807  1.1980 -0.2108 -0.8061
   30DOPE   C33 3824   0.049   0.611   7.664 -0.3391 -0.0255 -0.3596
   30DOPE   H3X 3825  -0.054   0.568   7.661  0.0585 -0.9457 -1.7113
   30DOPE   H3Y 3826   0.116   0.523   7.673 -0.3667 -0.0637 -0.5144
   30DOPE   C34 3827   0.081   0.660   7.525  0.1503  0.4139  0.0908
   30DOPE   H4X 3828   0.008   0.735   7.489  0.5503  0.8775  0.2239
   30DOPE   H4Y 3829   0.187   0.695   7.520 -0.4427  2.1633 -0.8617
   30DOPE   C35 3830   0.067   0.540   7.433  0.5241 -0.2725  1.3245
   30DOPE   H5X 3831  -0.032   0.490   7.440 -1.0365  2.2769 -0.7481
   30DOPE   H5Y 3832   0.154   0.473   7.449  0.8388 -0.9230 -2.2546
   30DOPE   C36 3833   0.092   0.593   7.291 -0.1377 -0.2632  0.4108
   30DOPE   H6X 3834   0.055   0.693   7.259 -0.6299 -0.2498  1.0011
   30DOPE   H6Y 3835   0.020   0.530   7.233  0.1604 -0.4264  0.2174
   30DOPE   C37 3836   0.228   0.560   7.215  0.4393 -0.7463 -0.0773
   30DOPE   H7X 3837   0.313   0.599   7.274  0.6568  1.1792 -1.5378
   30DOPE   H7Y 3838   0.233   0.449   7.210  0.5185 -0.7217 -0.6395
   30DOPE   C38 3839   0.229   0.603   7.066  0.1330 -0.2706 -1.0113
   30DOPE   H8X 3840   0.179   0.703   7.064  0.8709  0.1115 -0.9210
   30DOPE   H8Y 3841   0.160   0.539   7.008 -0.1997 -2.3820  1.5327
   30DOPE   C39 3842   0.373   0.596   7.021 -0.2182  0.4627  0.4506
   30DOPE   H9X 3843   0.409   0.493   7.007 -1.3156  0.1450 -0.1809
   30DOPE  C310 3844   0.453   0.703   7.003 -0.1664  0.5706  0.0564
   30DOPE  H10X 3845   0.557   0.687   6.971  0.1546 -0.5378  1.5692
   30DOPE  C311 3846   0.413   0.846   7.016 -0.5193  0.4300  0.3317
   30DOPE  H11X 3847   0.313   0.864   7.061 -1.5947  0.7469 -2.0183
   30DOPE  H11Y 3848   0.493   0.888   7.080 -0.0039  1.6005 -1.0275
   30DOPE  C312 3849   0.426   0.908   6.876  1.0335 -0.0070 -0.3655
   30DOPE  H12X 3850   0.390   1.012   6.891  1.2417  0.2375 -1.4970
   30DOPE  H12Y 3851   0.353   0.872   6.800  2.8789 -1.9942 -1.3329
   30DOPE  C313 3852   0.557   0.910   6.802 -0.1481  0.3147  0.1498
   30DOPE  H13X 3853   0.636   0.941   6.873  1.5719  2.0440 -2.3529
   30DOPE  H13Y 3854   0.570   0.810   6.756 -3.1445  0.1601 -0.5964
   30DOPE  C314 3855   0.556   1.024   6.694 -0.0517  1.1818  0.3619
   30DOPE  H14X 3856   0.549   1.121   6.747 -1.2129  0.5529  1.4021
   30DOPE  H14Y 3857   0.456   1.023   6.646 -0.0159 -3.7448 -0.1543
   30DOPE  C315 3858   0.678   1.017   6.586  0.4061 -0.3357  0.4626
   30DOPE  H15X 3859   0.767   1.032   6.651 -0.7843 -1.1569  2.3881
   30DOPE  H15Y 3860   0.674   1.107   6.521  1.2694 -0.3026  0.4473
   30DOPE  C316 3861   0.712   0.889   6.509  0.8055  0.3449 -0.2499
   30DOPE  H16X 3862   0.615   0.846   6.475 -0.3056  2.9512 -0.6716
   30DOPE  H16Y 3863   0.760   0.817   6.579  3.2380  1.6195 -0.4936
   30DOPE  C317 3864   0.797   0.912   6.390 -0.4684 -0.3144 -0.1996
   30DOPE  H17X 3865   0.871   0.991   6.413 -1.0894  0.9899 -2.3603
   30DOPE  H17Y 3866   0.857   0.819   6.380  1.8948  0.9548  1.3954
   30DOPE  C318 3867   0.720   0.949   6.267 -0.2728 -0.0189  0.9336
   30DOPE  H18X 3868   0.671   1.048   6.263 -2.2682 -0.9834 -3.0443
   30DOPE  H18Y 3869   0.785   0.946   6.177 -1.2473  0.8974  0.1802
   30DOPE  H18Z 3870   0.635   0.879   6.255 -0.2407  0.2614 -1.4318
   31DOPE     N 3871   2.445   5.635   4.585  0.2183 -0.3643  0.2589
   31DOPE   HN1 3872   2.547   5.629   4.566  0.1074  0.0292 -0.4954
   31DOPE   HN2 3873   2.400   5.561   4.529 -0.9138  1.3295 -1.1950
   31DOPE   HN3 3874   2.416   5.728   4.548  0.0125 -1.1020 -1.5437
   31DOPE   C12 3875   2.422   5.644   4.732  0.0389  0.0363  0.1134
   31DOPE  H12A 3876   2.319   5.676   4.759  0.2785  0.4177  0.5880
   31DOPE  H12B 3877   2.496   5.710   4.782 -1.2230  0.1086  1.9703
   31DOPE   C11 3878   2.460   5.511   4.799 -0.8090  0.3343 -0.2345
   31DOPE  H11A 3879   2.384   5.434   4.772  0.7304 -1.0669 -0.7447
   31DOPE  H11B 3880   2.466   5.529   4.908  1.4870  2.2214 -0.5785
   31DOPE     P 3881   2.630   5.320   4.719  0.1696 -0.1140 -0.4308
   31DOPE   O13 3882   2.766   5.294   4.772  0.2766  0.8532  0.0352
   31DOPE   O14 3883   2.614   5.291   4.574 -0.4918  0.6951  0.3855
   31DOPE   O11 3884   2.531   5.243   4.816 -0.4205 -0.2197  0.8559
   31DOPE   O12 3885   2.590   5.467   4.750  0.5462 -0.2045 -0.6209
   31DOPE    C1 3886   2.552   5.228   4.960  0.4826 -0.6666 -0.2730
   31DOPE    HA 3887   2.453   5.239   5.009 -0.0813  0.6440 -1.6176
   31DOPE    HB 3888   2.618   5.309   4.996  0.3706 -1.5538  2.0800
   31DOPE    C2 3889   2.604   5.092   5.004 -0.3465  0.4773  0.1807
   31DOPE    HS 3890   2.703   5.077   4.954 -0.6252 -2.2058  0.2485
   31DOPE   O21 3891   2.503   4.988   4.970 -0.5440 -0.2699 -0.1033
   31DOPE   C21 3892   2.563   4.869   4.947 -0.3827  0.2490  0.4492
   31DOPE   O22 3893   2.683   4.852   4.965 -0.1050 -0.6157  0.2944
   31DOPE   C22 3894   2.472   4.760   4.905  0.0144 -0.0856  0.5497
   31DOPE   H2R 3895   2.542   4.675   4.892  1.4304  1.0792  0.2182
   31DOPE   H2S 3896   2.436   4.802   4.809  0.0585  0.9716  0.9790
   31DOPE    C3 3897   2.627   5.082   5.155  0.5639 -0.3344 -0.6320
   31DOPE    HX 3898   2.666   4.984   5.192  1.8698 -0.0256 -1.1400
   31DOPE    HY 3899   2.533   5.090   5.214  0.3023 -1.4810 -0.8647
   31DOPE   O31 3900   2.703   5.199   5.195 -0.0531  0.2417  0.0615
   31DOPE   C31 3901   2.827   5.170   5.199 -0.6326 -0.2233 -0.3381
   31DOPE   O32 3902   2.883   5.073   5.155  0.6398 -0.0730  0.0807
   31DOPE   C32 3903   2.895   5.272   5.291  0.5791  0.2702 -0.0321
   31DOPE   H2X 3904   3.000   5.237   5.300  0.4918 -0.6340 -2.0916
   31DOPE   H2Y 3905   2.896   5.373   5.244  2.1152 -0.0722 -0.7981
   31DOPE   C23 3906   2.369   4.730   5.015  0.1467  0.0301 -0.2783
   31DOPE   H3R 3907   2.305   4.655   4.964  1.8506 -0.4899 -1.7387
   31DOPE   H3S 3908   2.301   4.810   5.050 -1.1369 -0.7031 -1.0098
   31DOPE   C24 3909   2.440   4.673   5.138 -0.1585 -0.0553  0.2122
   31DOPE   H4R 3910   2.542   4.636   5.113  0.3538  0.8762  0.8657
   31DOPE   H4S 3911   2.388   4.577   5.158 -2.1846  0.8461 -0.5336
   31DOPE   C25 3912   2.443   4.761   5.258 -0.0823  0.1920  0.3553
   31DOPE   H5R 3913   2.343   4.799   5.287 -1.1998 -2.6491  0.5398
   31DOPE   H5S 3914   2.504   4.852   5.241 -1.8590  1.4646  0.6041
   31DOPE   C26 3915   2.505   4.701   5.390 -0.1297  0.9137 -0.1989
   31DOPE   H6R 3916   2.594   4.647   5.351 -1.6950 -1.2057 -1.0307
   31DOPE   H6S 3917   2.434   4.626   5.431  1.9015 -1.4790 -0.7281
   31DOPE   C27 3918   2.565   4.788   5.495  0.4929 -0.0082  0.3160
   31DOPE   H7R 3919   2.490   4.864   5.525  0.0866 -0.2806 -0.0077
   31DOPE   H7S 3920   2.653   4.845   5.458 -1.2881  2.3712 -0.4405
   31DOPE   C28 3921   2.612   4.702   5.616  0.7839  0.0528 -0.6745
   31DOPE   H8R 3922   2.515   4.677   5.661  1.1530 -0.0678  0.0624
   31DOPE   H8S 3923   2.677   4.770   5.675  0.0966 -1.8780  2.5277
   31DOPE   C29 3924   2.686   4.581   5.578  0.0032  0.3135 -0.1490
   31DOPE   H9R 3925   2.773   4.600   5.513 -0.3018 -1.1305 -1.0199
   31DOPE  C210 3926   2.654   4.455   5.608  0.2519  0.7767 -0.1424
   31DOPE  H10R 3927   2.717   4.371   5.573 -0.5531  0.8547 -1.8743
   31DOPE  C211 3928   2.547   4.416   5.710 -0.1128 -0.1707  0.5547
   31DOPE  H11R 3929   2.458   4.374   5.657  0.0528 -3.9472  2.8910
   31DOPE  H11S 3930   2.510   4.507   5.763  0.0662  1.3594 -1.7751
   31DOPE  C212 3931   2.583   4.291   5.795 -0.2758 -0.1311 -0.1019
   31DOPE  H12R 3932   2.597   4.203   5.730 -2.2465  0.2797 -1.1489
   31DOPE  H12S 3933   2.493   4.259   5.852  0.3152  1.5788  1.9332
   31DOPE  C213 3934   2.703   4.315   5.896  0.3309  0.1865 -0.2704
   31DOPE  H13R 3935   2.664   4.368   5.986 -2.5670  0.9570 -1.8627
   31DOPE  H13S 3936   2.784   4.377   5.853  0.4091  1.5876  1.7443
   31DOPE  C214 3937   2.762   4.185   5.945  0.2906 -0.0426  0.8784
   31DOPE  H14R 3938   2.867   4.209   5.971 -0.0680  0.9894  1.4486
   31DOPE  H14S 3939   2.773   4.102   5.873  1.0349  0.8469 -0.0597
   31DOPE  C215 3940   2.694   4.134   6.077 -0.1110  0.1890  0.2211
   31DOPE  H15R 3941   2.586   4.116   6.057  0.1429 -0.3390 -0.7748
   31DOPE  H15S 3942   2.697   4.208   6.159  1.2548 -0.3190  0.6582
   31DOPE  C216 3943   2.760   4.005   6.128  0.4050 -0.3620  0.1454
   31DOPE  H16R 3944   2.868   4.028   6.142  0.5077  0.0653 -1.2597
   31DOPE  H16S 3945   2.749   3.927   6.049 -0.3216  0.9255 -1.0508
   31DOPE  C217 3946   2.712   3.948   6.261 -0.0892 -0.4285 -0.1271
   31DOPE  H17R 3947   2.778   3.869   6.302 -0.5700 -0.2668  1.0012
   31DOPE  H17S 3948   2.613   3.901   6.249 -0.6029 -0.0062  2.0604
   31DOPE  C218 3949   2.681   4.049   6.369  0.1035 -0.2383 -0.1179
   31DOPE  H18R 3950   2.608   4.123   6.331  1.6986  0.1870 -2.5853
   31DOPE  H18S 3951   2.769   4.104   6.407  0.4615 -0.4994 -0.5535
   31DOPE  H18T 3952   2.638   4.001   6.459 -0.1289 -1.6550 -0.9452
   31DOPE   C33 3953   2.832   5.278   5.432  0.8305 -0.0879  0.0960
   31DOPE   H3X 3954   2.721   5.289   5.430  0.5213 -1.9771  2.3210
   31DOPE   H3Y 3955   2.868   5.370   5.481 -1.1095  1.4024 -1.1062
   31DOPE   C34 3956   2.860   5.149   5.518  0.5217 -0.7820  0.0597
   31DOPE   H4X 3957   2.800   5.067   5.473  1.4651 -0.5505 -1.7164
   31DOPE   H4Y 3958   2.970   5.140   5.503  0.8037  0.3126  1.3663
   31DOPE   C35 3959   2.812   5.160   5.664  0.5189 -0.2569 -0.2833
   31DOPE   H5X 3960   2.869   5.245   5.707 -0.7070 -0.6820  2.3948
   31DOPE   H5Y 3961   2.842   5.067   5.717 -1.6609 -0.7769  0.1395
   31DOPE   C36 3962   2.670   5.197   5.681  0.0117  0.2840 -0.0965
   31DOPE   H6X 3963   2.594   5.125   5.646  0.7994  1.3695 -4.5995
   31DOPE   H6Y 3964   2.652   5.290   5.622  1.2516 -0.4141 -1.6145
   31DOPE   C37 3965   2.631   5.222   5.826 -0.2327  0.1414  0.2522
   31DOPE   H7X 3966   2.708   5.287   5.874 -1.4627 -0.1139  2.7013
   31DOPE   H7Y 3967   2.532   5.269   5.843 -0.3439 -0.1544  0.4131
   31DOPE   C38 3968   2.643   5.098   5.917 -0.3950  0.0352 -0.1680
   31DOPE   H8X 3969   2.626   5.129   6.022 -0.6751 -0.7189  0.0168
   31DOPE   H8Y 3970   2.746   5.063   5.897 -0.3092  0.6611 -0.8911
   31DOPE   C39 3971   2.537   4.993   5.885  0.3381 -0.4475 -0.6447
   31DOPE   H9X 3972   2.541   4.956   5.781 -0.9969  0.1213 -0.9249
   31DOPE  C310 3973   2.446   4.942   5.976 -0.0483 -0.4268  0.0590
   31DOPE  H10X 3974   2.372   4.865   5.951 -2.0907  0.0325  3.9769
   31DOPE  C311 3975   2.421   4.984   6.118  0.0903  0.0325 -0.6081
   31DOPE  H11X 3976   2.517   4.985   6.174 -0.2861  1.8524  0.0573
   31DOPE  H11Y 3977   2.388   5.090   6.120  0.5324  0.2478  3.4496
   31DOPE  C312 3978   2.322   4.897   6.188 -0.2071 -0.2322 -0.1056
   31DOPE  H12X 3979   2.350   4.790   6.193 -0.0186 -0.1312  1.3216
   31DOPE  H12Y 3980   2.222   4.900   6.139 -0.2457  0.4933  0.0087
   31DOPE  C313 3981   2.297   4.940   6.329  1.0522 -0.4925  0.0599
   31DOPE  H13X 3982   2.251   4.856   6.386  1.1877 -0.7911 -0.2630
   31DOPE  H13Y 3983   2.393   4.964   6.380  2.1060 -2.2084 -1.0093
   31DOPE  C314 3984   2.198   5.060   6.343 -0.7927 -0.2937  0.0864
   31DOPE  H14X 3985   2.099   5.040   6.299 -0.7115  2.4489 -1.5879
   31DOPE  H14Y 3986   2.238   5.143   6.280  1.3150 -0.5081  1.0279
   31DOPE  C315 3987   2.197   5.103   6.490  0.3185  0.1091  0.5646
   31DOPE  H15X 3988   2.301   5.130   6.518  0.8455 -0.4250 -0.8118
   31DOPE  H15Y 3989   2.156   5.027   6.560  1.3285 -0.2652  0.7682
   31DOPE  C316 3990   2.103   5.226   6.496  0.3965 -0.0511  0.3998
   31DOPE  H16X 3991   2.001   5.207   6.456  1.9036 -1.8013 -3.0464
   31DOPE  H16Y 3992   2.137   5.294   6.415 -0.7017 -0.5464 -0.5000
   31DOPE  C317 3993   2.127   5.302   6.623  0.1180  1.1526 -0.2229
   31DOPE  H17X 3994   2.091   5.227   6.697 -0.7887  0.9817 -0.8227
   31DOPE  H17Y 3995   2.235   5.323   6.637  0.3389 -0.4010  0.6701
   31DOPE  C318 3996   2.050   5.433   6.631  0.7080  0.2382 -0.4625
   31DOPE  H18X 3997   1.941   5.417   6.617  0.4960  2.5375 -1.9597
   31DOPE  H18Y 3998   2.055   5.480   6.731  1.7737 -2.1643  0.6922
   31DOPE  H18Z 3999   2.068   5.512   6.555 -2.7910 -0.0360 -1.7721
   32DOPE     N 4000   4.788   3.984   4.084  0.0524  0.2024 -0.3868
   32DOPE   HN1 4001   4.712   3.985   4.013 -1.0337  1.5078  0.7279
   32DOPE   HN2 4002   4.885   3.981   4.047  0.0297  0.9867 -0.5371
   32DOPE   HN3 4003   4.774   3.892   4.128  2.5748 -0.4202 -0.7305
   32DOPE   C12 4004   4.773   4.109   4.171 -0.2983  0.4576 -0.4752
   32DOPE  H12A 4005   4.666   4.115   4.198  0.0081  0.6445  0.7827
   32DOPE  H12B 4006   4.809   4.198   4.115  1.3784  0.4365  0.5023
   32DOPE   C11 4007   4.869   4.092   4.295 -0.1014  0.2986 -0.4427
   32DOPE  H11A 4008   4.838   4.000   4.348 -1.2208 -0.5835 -2.5316
   32DOPE  H11B 4009   4.854   4.169   4.374 -0.1472  2.1979 -2.1966
   32DOPE     P 4010   5.119   4.003   4.326 -0.2732  0.0867 -0.2594
   32DOPE   O13 4011   5.257   4.032   4.291  0.4793 -0.2672  0.0041
   32DOPE   O14 4012   5.076   3.864   4.332 -0.0735 -0.1892 -0.1628
   32DOPE   O11 4013   5.090   4.078   4.457 -0.3891 -0.4553  0.1460
   32DOPE   O12 4014   5.004   4.081   4.246  0.2333 -0.4532  0.6804
   32DOPE    C1 4015   5.175   4.073   4.573 -0.8150  0.1543 -0.7466
   32DOPE    HA 4016   5.177   4.171   4.623 -1.8387 -0.1585 -0.0729
   32DOPE    HB 4017   5.282   4.049   4.552 -0.2881  1.0596  0.7706
   32DOPE    C2 4018   5.124   3.977   4.684 -0.5206 -0.3545 -0.1441
   32DOPE    HS 4019   5.122   3.875   4.639 -0.5122  0.4172 -1.9736
   32DOPE   O21 4020   4.998   4.033   4.729 -0.4658  0.3049 -0.0829
   32DOPE   C21 4021   4.912   3.945   4.776 -0.2517  0.5852 -0.6804
   32DOPE   O22 4022   4.927   3.822   4.785 -0.5835  0.0196 -0.1052
   32DOPE   C22 4023   4.789   4.028   4.831 -0.0870 -0.2684  0.8018
   32DOPE   H2R 4024   4.759   4.102   4.755 -0.8362 -0.3157  1.0436
   32DOPE   H2S 4025   4.834   4.080   4.918  1.9869 -0.3536 -0.1574
   32DOPE    C3 4026   5.222   3.956   4.805 -0.7644  0.2417 -0.3259
   32DOPE    HX 4027   5.226   4.057   4.851  0.2905  0.3161 -0.5589
   32DOPE    HY 4028   5.326   3.938   4.771 -1.5789 -0.2168 -2.8318
   32DOPE   O31 4029   5.178   3.870   4.914 -0.6244 -0.2286  0.4973
   32DOPE   C31 4030   5.193   3.740   4.893 -0.3940  0.1872 -0.0358
   32DOPE   O32 4031   5.252   3.686   4.800  0.2777  0.0332  0.3536
   32DOPE   C32 4032   5.121   3.665   5.002  0.0394 -0.0209  0.2089
   32DOPE   H2X 4033   5.140   3.728   5.091 -0.5671  1.4824 -0.7009
   32DOPE   H2Y 4034   5.011   3.666   4.989  0.0393 -1.0749  0.0126
   32DOPE   C23 4035   4.677   3.929   4.876 -0.9770  0.0020  0.0776
   32DOPE   H3R 4036   4.653   3.868   4.786  0.4762 -0.3372 -0.1089
   32DOPE   H3S 4037   4.591   3.996   4.897 -0.3950 -0.1676  3.7311
   32DOPE   C24 4038   4.702   3.850   5.005 -1.0524  0.1577 -0.4995
   32DOPE   H4R 4039   4.706   3.927   5.085  0.6754  0.3238 -0.7143
   32DOPE   H4S 4040   4.794   3.790   4.993 -1.7258 -0.4526 -3.1099
   32DOPE   C25 4041   4.587   3.755   5.039 -0.2334 -0.5186  0.7099
   32DOPE   H5R 4042   4.575   3.691   4.949 -1.0172  1.8685 -0.9877
   32DOPE   H5S 4043   4.500   3.824   5.045  0.3241  0.2323  0.3051
   32DOPE   C26 4044   4.598   3.684   5.172 -0.2768 -0.3088 -0.7949
   32DOPE   H6R 4045   4.497   3.666   5.215  0.1900  0.1301  0.5096
   32DOPE   H6S 4046   4.643   3.761   5.238 -0.0812  0.3454 -1.6707
   32DOPE   C27 4047   4.678   3.556   5.163 -0.3880  0.1981  0.3290
   32DOPE   H7R 4048   4.782   3.571   5.129  0.6157 -0.1908  2.9738
   32DOPE   H7S 4049   4.627   3.490   5.090 -0.4719  1.0224 -0.3843
   32DOPE   C28 4050   4.681   3.494   5.302  0.3744  0.5768  0.4260
   32DOPE   H8R 4051   4.579   3.464   5.334 -0.7442  2.4208 -1.2067
   32DOPE   H8S 4052   4.697   3.578   5.373  0.8235 -0.5956  1.7658
   32DOPE   C29 4053   4.795   3.402   5.319 -0.7525  0.0339  0.2444
   32DOPE   H9R 4054   4.829   3.355   5.226 -1.9171  1.1524 -0.7871
   32DOPE  C210 4055   4.851   3.367   5.437 -0.1524  0.4409 -0.2948
   32DOPE  H10R 4056   4.931   3.291   5.441 -1.2971 -0.8943 -1.5221
   32DOPE  C211 4057   4.801   3.422   5.567 -0.5973  0.9098  0.2101
   32DOPE  H11R 4058   4.735   3.510   5.553  0.5324  1.5980 -1.0267
   32DOPE  H11S 4059   4.897   3.456   5.611  0.2904  0.8375 -1.5888
   32DOPE  C212 4060   4.739   3.323   5.664  0.1570  0.2138 -0.0715
   32DOPE  H12R 4061   4.647   3.280   5.620 -0.3895  2.5730 -1.3754
   32DOPE  H12S 4062   4.695   3.370   5.755  0.2768 -0.7486  0.4964
   32DOPE  C213 4063   4.821   3.199   5.708 -0.0931  0.1041 -0.2404
   32DOPE  H13R 4064   4.912   3.236   5.759 -1.2719  0.8503  1.3968
   32DOPE  H13S 4065   4.848   3.142   5.617  1.5908  1.1836 -0.4561
   32DOPE  C214 4066   4.750   3.109   5.809  0.6139  0.2646  0.4337
   32DOPE  H14R 4067   4.667   3.059   5.754  3.0881  0.3498 -3.8230
   32DOPE  H14S 4068   4.708   3.170   5.892  0.4369  0.7245  0.0143
   32DOPE  C215 4069   4.836   2.999   5.868 -0.1923 -0.3545 -0.5101
   32DOPE  H15R 4070   4.879   2.933   5.790  0.3719  1.3168 -1.6956
   32DOPE  H15S 4071   4.771   2.940   5.935  0.6977 -0.2180  0.4972
   32DOPE  C216 4072   4.951   3.055   5.954  0.1133 -0.2197 -0.2024
   32DOPE  H16R 4073   4.921   3.148   6.007  1.8452  0.0496  0.3921
   32DOPE  H16S 4074   5.035   3.099   5.895  0.8785 -2.7943 -1.1874
   32DOPE  C217 4075   5.002   2.954   6.057  0.6164 -0.5578  1.0653
   32DOPE  H17R 4076   5.032   2.859   6.007  1.1986  0.6444 -1.0140
   32DOPE  H17S 4077   4.905   2.931   6.106 -1.0863 -2.9230 -2.9147
   32DOPE  C218 4078   5.106   3.021   6.141  0.6317  0.4736  0.1619
   32DOPE  H18R 4079   5.121   2.957   6.230  1.7904 -0.6497 -0.8109
   32DOPE  H18S 4080   5.075   3.120   6.183 -2.1970 -0.7000  1.0607
   32DOPE  H18T 4081   5.202   3.032   6.087  1.9390 -3.3728  1.4052
   32DOPE   C33 4082   5.168   3.521   5.015  0.2003 -0.0461 -0.4857
   32DOPE   H3X 4083   5.161   3.471   4.916 -0.9949  3.1620 -2.1730
   32DOPE   H3Y 4084   5.099   3.469   5.085 -0.8815  1.3137 -0.5087
   32DOPE   C34 4085   5.312   3.503   5.070  0.0949 -0.5255  0.0388
   32DOPE   H4X 4086   5.337   3.395   5.069  4.7002  0.3443  0.8974
   32DOPE   H4Y 4087   5.381   3.555   5.000 -0.2616 -0.7416 -0.4798
   32DOPE   C35 4088   5.335   3.540   5.213  0.0893  0.1284  0.1357
   32DOPE   H5X 4089   5.323   3.647   5.237 -0.1469  0.7050 -2.2847
   32DOPE   H5Y 4090   5.445   3.524   5.216  0.1027 -0.2794 -1.5840
   32DOPE   C36 4091   5.268   3.458   5.327  0.8062  0.2829 -0.1682
   32DOPE   H6X 4092   5.271   3.348   5.308  2.1296  0.0906  1.0011
   32DOPE   H6Y 4093   5.161   3.487   5.317  1.1177  1.4811 -0.1810
   32DOPE   C37 4094   5.317   3.497   5.465  0.4261 -0.8396 -0.6970
   32DOPE   H7X 4095   5.404   3.430   5.474 -0.3624 -2.1054 -2.0591
   32DOPE   H7Y 4096   5.346   3.602   5.443 -0.6117 -0.3680  0.0745
   32DOPE   C38 4097   5.211   3.498   5.582  0.1183  0.3462  0.3418
   32DOPE   H8X 4098   5.180   3.392   5.586 -2.8245  0.7730 -4.1828
   32DOPE   H8Y 4099   5.122   3.555   5.547  0.1580 -1.1211 -2.4678
   32DOPE   C39 4100   5.271   3.562   5.705  0.2743  0.2172  0.5098
   32DOPE   H9X 4101   5.323   3.656   5.681 -0.1559  0.1351 -0.8603
   32DOPE  C310 4102   5.279   3.515   5.832  0.3281 -0.0025 -0.5353
   32DOPE  H10X 4103   5.313   3.583   5.912  0.5548  0.2035 -0.8028
   32DOPE  C311 4104   5.231   3.380   5.878 -0.3450  0.3629 -0.1703
   32DOPE  H11X 4105   5.182   3.309   5.808  2.0157 -1.4052 -0.1291
   32DOPE  H11Y 4106   5.325   3.333   5.915  0.4501  0.5902 -1.8360
   32DOPE  C312 4107   5.139   3.411   5.997  0.5461  0.7123 -0.6715
   32DOPE  H12X 4108   5.186   3.465   6.082  0.4565  1.2413 -0.9499
   32DOPE  H12Y 4109   5.108   3.313   6.040  0.1542  0.8244 -0.6930
   32DOPE  C313 4110   4.996   3.475   5.964 -0.0475 -0.2367 -0.4012
   32DOPE  H13X 4111   4.998   3.584   5.947  0.1592 -0.1602  0.0783
   32DOPE  H13Y 4112   4.955   3.420   5.877 -1.3053 -3.0229  1.7859
   32DOPE  C314 4113   4.908   3.456   6.094  0.4567  0.5965  1.0234
   32DOPE  H14X 4114   4.962   3.501   6.180  3.1767  0.8728 -0.6728
   32DOPE  H14Y 4115   4.905   3.346   6.111 -2.6280  0.3093 -0.5870
   32DOPE  C315 4116   4.761   3.514   6.081 -0.3296  0.4811  0.0710
   32DOPE  H15X 4117   4.717   3.476   5.986  3.6118 -0.5485 -1.5250
   32DOPE  H15Y 4118   4.774   3.624   6.068 -0.2570  0.4110 -0.4939
   32DOPE  C316 4119   4.683   3.475   6.209  0.5699  0.0792  0.2214
   32DOPE  H16X 4120   4.727   3.512   6.304 -1.0379 -0.2487  1.1360
   32DOPE  H16Y 4121   4.698   3.365   6.217 -1.0230 -0.1113  1.0591
   32DOPE  C317 4122   4.535   3.508   6.203  0.2849 -0.8339  1.6302
   32DOPE  H17X 4123   4.534   3.618   6.188  0.8687 -0.9494  0.6925
   32DOPE  H17Y 4124   4.485   3.467   6.113  0.0898  0.7863  0.9657
   32DOPE  C318 4125   4.459   3.483   6.334 -0.0930 -0.2694  0.4140
   32DOPE  H18X 4126   4.523   3.485   6.424  1.3386 -0.6147 -0.5664
   32DOPE  H18Y 4127   4.384   3.561   6.360  2.3983  2.4886 -0.1169
   32DOPE  H18Z 4128   4.406   3.385   6.334 -1.0408  0.2073 -0.6113
   33DOPE     N 4129   3.523   3.502   4.332 -0.2175 -0.0741  0.0312
   33DOPE   HN1 4130   3.596   3.496   4.406 -0.0154 -1.1996 -0.2444
   33DOPE   HN2 4131   3.486   3.409   4.303 -0.9317  0.6019 -1.3104
   33DOPE   HN3 4132   3.562   3.535   4.241 -2.7315  1.8394 -0.4441
   33DOPE   C12 4133   3.410   3.591   4.377 -0.4308 -0.1727 -0.1191
   33DOPE  H12A 4134   3.319   3.566   4.318  0.8161  0.3663 -2.3961
   33DOPE  H12B 4135   3.445   3.688   4.336 -1.6479  0.8542  1.1644
   33DOPE   C11 4136   3.388   3.587   4.530  0.2011 -0.0281  0.2741
   33DOPE  H11A 4137   3.294   3.642   4.552 -0.5905 -0.8398 -0.9503
   33DOPE  H11B 4138   3.476   3.625   4.586 -0.0513 -0.8553  1.2691
   33DOPE     P 4139   3.241   3.382   4.625  0.1908 -0.0726 -0.1186
   33DOPE   O13 4140   3.273   3.258   4.693  0.6652 -0.0361 -0.5712
   33DOPE   O14 4141   3.137   3.370   4.518 -0.0430 -0.8137  0.7716
   33DOPE   O11 4142   3.193   3.482   4.732 -0.3240  0.0153  0.1475
   33DOPE   O12 4143   3.364   3.451   4.566 -0.9240 -0.0215 -0.2503
   33DOPE    C1 4144   3.274   3.505   4.848 -0.0514 -0.8937  0.1006
   33DOPE    HA 4145   3.383   3.513   4.829  0.8066 -2.6509  3.4282
   33DOPE    HB 4146   3.260   3.419   4.917  1.9080 -1.8930 -0.6954
   33DOPE    C2 4147   3.232   3.625   4.935 -0.5809 -0.5496  0.3622
   33DOPE    HS 4148   3.294   3.621   5.027  3.8251  1.1024 -2.1966
   33DOPE   O21 4149   3.084   3.624   4.966  0.2276 -0.4707  0.3938
   33DOPE   C21 4150   3.041   3.533   5.046 -0.0404  1.1603  0.1215
   33DOPE   O22 4151   3.108   3.452   5.109 -0.4318  0.4211  0.4694
   33DOPE   C22 4152   2.886   3.538   5.049 -0.1366  0.1469 -0.5706
   33DOPE   H2R 4153   2.850   3.498   4.951 -0.4096  2.5764 -1.5428
   33DOPE   H2S 4154   2.856   3.645   5.033  2.1615  0.6479 -1.9912
   33DOPE    C3 4155   3.277   3.759   4.859 -0.0949  0.2368 -0.7688
   33DOPE    HX 4156   3.221   3.764   4.763 -1.8885  1.3070  0.2546
   33DOPE    HY 4157   3.382   3.749   4.826 -0.2505 -2.2588 -0.7024
   33DOPE   O31 4158   3.237   3.871   4.943 -0.5095  0.3271 -0.5579
   33DOPE   C31 4159   3.308   3.875   5.054 -0.0170  0.4877 -0.5758
   33DOPE   O32 4160   3.402   3.809   5.085 -0.4158  0.4067  0.1391
   33DOPE   C32 4161   3.243   3.975   5.152 -0.9181 -0.1090 -0.0966
   33DOPE   H2X 4162   3.233   4.067   5.090  0.1462  1.5065  2.0045
   33DOPE   H2Y 4163   3.142   3.933   5.172 -0.2619 -2.0106 -0.4786
   33DOPE   C23 4164   2.816   3.484   5.172  0.2580  0.6972  0.2680
   33DOPE   H3R 4165   2.851   3.379   5.185 -2.3293 -0.4077 -1.0275
   33DOPE   H3S 4166   2.709   3.472   5.146  0.3688 -1.6664  0.6813
   33DOPE   C24 4167   2.831   3.574   5.305  0.2849 -0.4316 -0.2160
   33DOPE   H4R 4168   2.813   3.680   5.279 -1.3058 -0.7117 -0.3582
   33DOPE   H4S 4169   2.939   3.571   5.332 -0.1243 -0.8439  1.5227
   33DOPE   C25 4170   2.734   3.538   5.429 -0.2259  0.0664 -0.0721
   33DOPE   H5R 4171   2.739   3.428   5.445 -0.1485 -0.1313 -1.3381
   33DOPE   H5S 4172   2.631   3.550   5.389 -0.4160  1.5612  0.7903
   33DOPE   C26 4173   2.772   3.622   5.549 -0.7224  0.3371  0.0660
   33DOPE   H6R 4174   2.764   3.731   5.530  0.0844  0.3665 -0.1130
   33DOPE   H6S 4175   2.878   3.619   5.582 -0.7391 -0.9788  0.0573
   33DOPE   C27 4176   2.681   3.600   5.664 -0.0676  0.5057 -0.2789
   33DOPE   H7R 4177   2.701   3.497   5.703 -0.7681  0.3092 -0.4298
   33DOPE   H7S 4178   2.578   3.604   5.623 -0.0411  2.6459 -0.2244
   33DOPE   C28 4179   2.699   3.701   5.780  0.3696 -0.3801  0.6447
   33DOPE   H8R 4180   2.710   3.803   5.738 -2.5878 -0.0403  0.5076
   33DOPE   H8S 4181   2.803   3.686   5.816  1.8859  3.7974 -1.3094
   33DOPE   C29 4182   2.589   3.704   5.882  0.4012  0.4333 -0.1408
   33DOPE   H9R 4183   2.519   3.785   5.861 -0.9436 -0.5120  0.5146
   33DOPE  C210 4184   2.570   3.624   5.992  0.4635 -0.2501 -0.4277
   33DOPE  H10R 4185   2.485   3.636   6.061  0.3619  0.1832 -0.6229
   33DOPE  C211 4186   2.670   3.521   6.046 -1.1371  0.6516 -0.0460
   33DOPE  H11R 4187   2.755   3.518   5.975 -0.4343 -0.3680  0.8184
   33DOPE  H11S 4188   2.625   3.422   6.025 -2.0141  0.7936  1.0803
   33DOPE  C212 4189   2.730   3.539   6.189 -0.4491 -0.0818  0.0512
   33DOPE  H12R 4190   2.770   3.642   6.203 -1.1345  0.0446  1.1239
   33DOPE  H12S 4191   2.809   3.462   6.205 -0.3525 -0.0167 -0.1070
   33DOPE  C213 4192   2.627   3.509   6.292  0.7319  0.1887 -0.6030
   33DOPE  H13R 4193   2.597   3.403   6.276  2.2685 -0.5007  0.8468
   33DOPE  H13S 4194   2.532   3.562   6.268  0.2565 -0.1160  0.5091
   33DOPE  C214 4195   2.668   3.538   6.440  0.3379  0.0335  0.4861
   33DOPE  H14R 4196   2.677   3.648   6.451  0.8184 -0.1673  2.3990
   33DOPE  H14S 4197   2.765   3.484   6.452 -0.8741 -2.5803 -0.5511
   33DOPE  C215 4198   2.566   3.499   6.548  0.4265 -0.4784  0.2034
   33DOPE  H15R 4199   2.518   3.400   6.531  0.6735 -0.3074 -1.7227
   33DOPE  H15S 4200   2.483   3.573   6.549  1.9388  1.2917  0.5086
   33DOPE  C216 4201   2.641   3.496   6.687 -0.1088  0.0342  0.1916
   33DOPE  H16R 4202   2.624   3.592   6.741  0.7558 -0.6919  1.8274
   33DOPE  H16S 4203   2.749   3.486   6.666 -0.0353 -2.1187  1.3353
   33DOPE  C217 4204   2.599   3.378   6.777 -0.3195 -0.1034  0.0764
   33DOPE  H17R 4205   2.646   3.380   6.877 -0.7974 -3.4110  0.4562
   33DOPE  H17S 4206   2.623   3.279   6.734  0.6050 -0.1392  0.6669
   33DOPE  C218 4207   2.442   3.376   6.802 -0.4022 -0.5627 -0.4440
   33DOPE  H18R 4208   2.416   3.293   6.872  0.2199 -1.2217 -0.9739
   33DOPE  H18S 4209   2.382   3.367   6.709  1.8624 -1.3089 -1.8873
   33DOPE  H18T 4210   2.423   3.463   6.869  2.4811 -1.0275  1.1298
   33DOPE   C33 4211   3.317   4.004   5.287  0.3140 -0.2760  0.2824
   33DOPE   H3X 4212   3.359   3.913   5.334 -1.7371 -0.9347  0.9741
   33DOPE   H3Y 4213   3.235   4.029   5.358 -0.5326 -3.4389  0.5994
   33DOPE   C34 4214   3.421   4.107   5.284 -0.3383 -0.1358  0.1291
   33DOPE   H4X 4215   3.520   4.074   5.244  0.6258  0.9496  1.4875
   33DOPE   H4Y 4216   3.383   4.178   5.208 -0.3669  0.0813  0.3452
   33DOPE   C35 4217   3.437   4.183   5.415 -0.0664  0.4532  0.5519
   33DOPE   H5X 4218   3.343   4.238   5.436 -0.2168  1.6133 -2.5880
   33DOPE   H5Y 4219   3.517   4.260   5.407 -1.4511  1.8333 -0.5708
   33DOPE   C36 4220   3.480   4.101   5.544 -0.1148 -0.1411 -1.1504
   33DOPE   H6X 4221   3.570   4.048   5.508  0.4613  0.5193 -0.7166
   33DOPE   H6Y 4222   3.394   4.036   5.571  0.1824  0.2429  0.8780
   33DOPE   C37 4223   3.496   4.188   5.673 -0.0635  0.2220 -0.0872
   33DOPE   H7X 4224   3.553   4.281   5.652 -0.4931  0.5949  0.3707
   33DOPE   H7Y 4225   3.395   4.211   5.713 -0.5424  0.1973 -1.2512
   33DOPE   C38 4226   3.573   4.113   5.784  0.2313 -0.1447  0.4314
   33DOPE   H8X 4227   3.667   4.069   5.743 -0.2348 -3.0829  2.1777
   33DOPE   H8Y 4228   3.505   4.030   5.812 -0.0837 -0.0020  0.0862
   33DOPE   C39 4229   3.599   4.195   5.907 -0.0103  0.1265 -0.3013
   33DOPE   H9X 4230   3.641   4.296   5.894 -3.0507  1.6609  0.8484
   33DOPE  C310 4231   3.571   4.150   6.032 -0.0354  0.0709 -0.2271
   33DOPE  H10X 4232   3.596   4.226   6.107  0.7482 -2.1346  1.8731
   33DOPE  C311 4233   3.502   4.026   6.082 -0.1760 -0.4834 -0.3584
   33DOPE  H11X 4234   3.408   4.051   6.135  0.1556  0.3234 -0.1424
   33DOPE  H11Y 4235   3.473   3.961   5.996 -0.6857  1.7025 -1.9040
   33DOPE  C312 4236   3.590   3.951   6.187 -0.5389  0.4939  0.1738
   33DOPE  H12X 4237   3.637   4.024   6.256  0.3842 -1.3841  1.6378
   33DOPE  H12Y 4238   3.669   3.901   6.128  0.7702  0.5748  1.7681
   33DOPE  C313 4239   3.512   3.844   6.260 -0.3990 -0.1484 -0.3771
   33DOPE  H13X 4240   3.436   3.898   6.321  1.2578  0.8065  0.9426
   33DOPE  H13Y 4241   3.462   3.777   6.187 -0.2074 -0.7985  0.0832
   33DOPE  C314 4242   3.614   3.764   6.342 -0.1516  0.1414  0.1063
   33DOPE  H14X 4243   3.673   3.834   6.405 -0.4864  0.7321 -0.2352
   33DOPE  H14Y 4244   3.697   3.715   6.287 -1.6083 -1.2474 -0.9522
   33DOPE  C315 4245   3.552   3.671   6.450 -0.3334 -0.0485  0.0132
   33DOPE  H15X 4246   3.637   3.625   6.505  0.1392 -1.9694 -2.1847
   33DOPE  H15Y 4247   3.488   3.594   6.402 -0.4666  0.4057 -0.5598
   33DOPE  C316 4248   3.460   3.746   6.546 -0.1611  0.2518  0.0037
   33DOPE  H16X 4249   3.381   3.677   6.583 -0.6063  1.7473  2.0344
   33DOPE  H16Y 4250   3.404   3.821   6.486  0.5974  0.1428 -0.8669
   33DOPE  C317 4251   3.525   3.824   6.661  0.4359  0.1166 -0.0525
   33DOPE  H17X 4252   3.616   3.882   6.635 -0.0433  1.6264  1.4814
   33DOPE  H17Y 4253   3.454   3.899   6.702  0.9359  1.1949 -1.1097
   33DOPE  C318 4254   3.575   3.730   6.781  0.2355  0.2765  0.9771
   33DOPE  H18X 4255   3.488   3.683   6.831 -0.3936 -0.1848 -0.4796
   33DOPE  H18Y 4256   3.631   3.646   6.735  0.3359  1.1277 -0.5201
   33DOPE  H18Z 4257   3.638   3.785   6.854  0.7891  0.6344  0.2431
   34DOPE     N 4258   3.056   6.632   4.728 -0.5474 -0.3283  0.3019
   34DOPE   HN1 4259   3.072   6.600   4.826 -2.4517 -3.8971 -0.4219
   34DOPE   HN2 4260   3.119   6.715   4.729 -0.0300 -0.6204 -2.0847
   34DOPE   HN3 4261   2.955   6.643   4.707 -0.5256  0.7953  0.6977
   34DOPE   C12 4262   3.122   6.537   4.635 -0.1528  0.8834 -0.2156
   34DOPE  H12A 4263   3.158   6.591   4.546 -0.8494 -1.1089 -1.7761
   34DOPE  H12B 4264   3.039   6.474   4.598 -0.0283  0.5904 -0.0009
   34DOPE   C11 4265   3.221   6.444   4.702 -0.3393 -0.1428 -0.3535
   34DOPE  H11A 4266   3.252   6.383   4.615  0.4737 -0.6065  0.2428
   34DOPE  H11B 4267   3.170   6.380   4.777  0.4391 -0.9135 -0.4549
   34DOPE     P 4268   3.364   6.562   4.897 -0.2262 -0.0811  0.3207
   34DOPE   O13 4269   3.475   6.662   4.903  0.0802 -0.2415 -0.2916
   34DOPE   O14 4270   3.381   6.445   4.986  0.1187 -0.7035  0.4476
   34DOPE   O11 4271   3.229   6.624   4.944 -0.3265  1.2916  0.0097
   34DOPE   O12 4272   3.337   6.517   4.756 -0.2664 -0.3172  0.2163
   34DOPE    C1 4273   3.216   6.729   5.033 -0.3631 -0.1632  0.0697
   34DOPE    HA 4274   3.116   6.773   5.013  1.1528  2.6263 -2.2533
   34DOPE    HB 4275   3.297   6.802   5.011 -0.8413  0.1795 -0.5847
   34DOPE    C2 4276   3.215   6.686   5.182 -0.1968 -0.4268  1.3076
   34DOPE    HS 4277   3.319   6.651   5.196  0.5685  1.1469 -0.1500
   34DOPE   O21 4278   3.121   6.577   5.184  0.0474 -0.0903  0.2024
   34DOPE   C21 4279   3.141   6.491   5.290 -0.5012  0.1010 -0.2030
   34DOPE   O22 4280   3.231   6.500   5.369  0.0836 -0.2566  0.3428
   34DOPE   C22 4281   3.052   6.373   5.275  0.0277  0.4572 -0.4875
   34DOPE   H2R 4282   3.050   6.361   5.165  0.8936 -0.1375 -0.4536
   34DOPE   H2S 4283   2.951   6.398   5.313 -0.3406 -0.5100 -0.8116
   34DOPE    C3 4284   3.164   6.794   5.282  0.0585 -0.1737  0.8043
   34DOPE    HX 4285   3.240   6.875   5.284 -0.1825  0.0536  0.9564
   34DOPE    HY 4286   3.162   6.758   5.387  0.5043  2.1476  1.6755
   34DOPE   O31 4287   3.026   6.838   5.235  0.1360  0.0660 -0.9068
   34DOPE   C31 4288   2.954   6.911   5.320  0.0620  0.5341 -0.1368
   34DOPE   O32 4289   2.990   6.938   5.432  0.0316  0.2162 -0.4077
   34DOPE   C32 4290   2.830   6.961   5.245  0.2719  0.0588 -0.0409
   34DOPE   H2X 4291   2.835   7.072   5.253  1.2158  0.2395 -2.3024
   34DOPE   H2Y 4292   2.831   6.920   5.141  1.0965  0.6709 -0.2848
   34DOPE   C23 4293   3.109   6.245   5.335 -0.1545  0.7651 -0.5614
   34DOPE   H3R 4294   3.211   6.221   5.296  0.4639  1.6335  0.4658
   34DOPE   H3S 4295   3.056   6.153   5.304  1.0921 -0.8026  1.6575
   34DOPE   C24 4296   3.100   6.241   5.495  0.6669  0.0213 -0.1496
   34DOPE   H4R 4297   2.991   6.260   5.506  0.7370 -0.1084  0.8890
   34DOPE   H4S 4298   3.150   6.323   5.551 -3.2390  1.6003  1.3534
   34DOPE   C25 4299   3.137   6.104   5.554 -0.4883  0.0367 -0.3063
   34DOPE   H5R 4300   3.245   6.080   5.559 -0.3481  0.8260  0.7932
   34DOPE   H5S 4301   3.092   6.022   5.493  1.1664 -1.7222  0.7123
   34DOPE   C26 4302   3.099   6.094   5.708  0.2650 -0.3944 -0.0997
   34DOPE   H6R 4303   2.992   6.122   5.721 -0.8406 -3.5646 -1.4563
   34DOPE   H6S 4304   3.156   6.170   5.766  0.4335 -0.8761  0.3681
   34DOPE   C27 4305   3.111   5.952   5.774 -0.3844  0.6006  0.5636
   34DOPE   H7R 4306   3.215   5.913   5.773 -1.2676 -1.9110 -0.1579
   34DOPE   H7S 4307   3.047   5.893   5.706 -1.2082  3.5168 -1.3545
   34DOPE   C28 4308   3.046   5.932   5.917 -0.6565  0.0666  0.1524
   34DOPE   H8R 4309   3.067   5.825   5.937 -2.6044 -0.7289 -1.6004
   34DOPE   H8S 4310   2.935   5.937   5.904 -0.4141  0.5990 -2.2477
   34DOPE   C29 4311   3.087   6.021   6.027  0.2789 -0.2392 -0.0189
   34DOPE   H9R 4312   3.181   6.073   6.006  0.0632 -0.0210 -0.4660
   34DOPE  C210 4313   3.011   6.053   6.135 -0.4984  0.0879  0.4878
   34DOPE  H10R 4314   3.048   6.116   6.218  1.9299  0.9320 -1.1388
   34DOPE  C211 4315   2.876   5.989   6.171  0.1183  0.5855  0.0899
   34DOPE  H11R 4316   2.874   5.882   6.141 -0.8531 -0.2063  2.6738
   34DOPE  H11S 4317   2.801   6.033   6.102 -1.1399 -0.8458  0.4778
   34DOPE  C212 4318   2.840   5.979   6.314  0.5063  0.1848  0.3090
   34DOPE  H12R 4319   2.917   5.930   6.377 -0.2845  2.3936  3.2321
   34DOPE  H12S 4320   2.744   5.923   6.322 -0.0266  1.2572  1.9113
   34DOPE  C213 4321   2.816   6.118   6.376  0.0256 -0.0157  0.2568
   34DOPE  H13R 4322   2.764   6.186   6.305  1.0887  0.0215 -0.5084
   34DOPE  H13S 4323   2.918   6.161   6.393 -0.2756  0.4615  0.9168
   34DOPE  C214 4324   2.729   6.115   6.504  0.3677  0.4643 -0.1856
   34DOPE  H14R 4325   2.793   6.056   6.573  0.9640  0.9143 -0.3505
   34DOPE  H14S 4326   2.636   6.057   6.482  0.1449  1.2610 -1.4827
   34DOPE  C215 4327   2.709   6.261   6.561  0.3770 -0.4082  0.3489
   34DOPE  H15R 4328   2.653   6.320   6.486  3.6169  2.2028 -0.2632
   34DOPE  H15S 4329   2.812   6.304   6.560  0.2053  0.0089 -0.1562
   34DOPE  C216 4330   2.638   6.276   6.694  0.2174 -0.3057 -0.4835
   34DOPE  H16R 4331   2.653   6.381   6.726 -0.9477 -0.2521 -0.0825
   34DOPE  H16S 4332   2.700   6.222   6.769 -0.8682 -0.3964  0.3697
   34DOPE  C217 4333   2.487   6.250   6.687 -0.7898  0.7642  0.6134
   34DOPE  H17R 4334   2.466   6.173   6.610 -1.5418 -1.0005  2.4891
   34DOPE  H17S 4335   2.429   6.337   6.649 -1.4092 -0.6242 -1.8032
   34DOPE  C218 4336   2.434   6.189   6.818 -0.0822  0.7257  0.0456
   34DOPE  H18R 4337   2.432   6.274   6.889  1.4279  0.2472  0.6812
   34DOPE  H18S 4338   2.503   6.111   6.855  1.0405  1.5848 -0.1887
   34DOPE  H18T 4339   2.332   6.145   6.809  0.0276  0.8239 -2.3579
   34DOPE   C33 4340   2.706   6.917   5.316 -0.3063  0.4179 -0.2813
   34DOPE   H3X 4341   2.617   6.952   5.260 -1.6288 -1.2420  0.6895
   34DOPE   H3Y 4342   2.709   6.960   5.419 -0.2332 -0.2785  0.0115
   34DOPE   C34 4343   2.698   6.757   5.316  0.2490 -0.1851 -0.3412
   34DOPE   H4X 4344   2.711   6.723   5.211 -0.2076  1.7769 -1.0864
   34DOPE   H4Y 4345   2.789   6.734   5.374  0.3863 -0.5245 -0.6873
   34DOPE   C35 4346   2.565   6.700   5.377  0.2202 -0.2457 -0.2345
   34DOPE   H5X 4347   2.526   6.614   5.318 -1.2224  1.3056 -1.6534
   34DOPE   H5Y 4348   2.493   6.784   5.370  1.1218  0.5516 -0.1542
   34DOPE   C36 4349   2.557   6.670   5.527 -0.1803 -0.4443  0.1354
   34DOPE   H6X 4350   2.449   6.654   5.547 -0.3495  0.9692  0.5130
   34DOPE   H6Y 4351   2.588   6.764   5.578  0.1196 -1.8494  2.7459
   34DOPE   C37 4352   2.644   6.549   5.578 -0.2637 -0.1391  0.3537
   34DOPE   H7X 4353   2.728   6.530   5.507  1.4127 -1.3571  2.5630
   34DOPE   H7Y 4354   2.686   6.554   5.680  0.0407 -2.4507  0.3867
   34DOPE   C38 4355   2.547   6.429   5.565 -0.5624  0.0654 -0.1976
   34DOPE   H8X 4356   2.485   6.440   5.474  0.9110  3.8416 -0.9261
   34DOPE   H8Y 4357   2.475   6.430   5.650 -2.0386 -0.5302 -1.4096
   34DOPE   C39 4358   2.618   6.299   5.567  0.7468  0.0651  0.5552
   34DOPE   H9X 4359   2.629   6.260   5.465 -2.1535 -1.0559  0.5860
   34DOPE  C310 4360   2.640   6.223   5.673 -0.0786  0.3179  0.8646
   34DOPE  H10X 4361   2.704   6.135   5.662  1.1055  1.3306 -0.6789
   34DOPE  C311 4362   2.598   6.256   5.812  0.2642  0.1576 -0.0590
   34DOPE  H11X 4363   2.691   6.246   5.872  0.3534  0.7054 -0.1067
   34DOPE  H11Y 4364   2.560   6.360   5.821  0.2265  0.3604 -2.0558
   34DOPE  C312 4365   2.481   6.167   5.858 -0.4156  0.4917 -0.2189
   34DOPE  H12X 4366   2.496   6.060   5.832  0.5049  0.1981  1.3835
   34DOPE  H12Y 4367   2.386   6.189   5.806 -1.0852  0.3523  0.9097
   34DOPE  C313 4368   2.455   6.148   6.011 -0.4068 -0.3974 -0.2121
   34DOPE  H13X 4369   2.547   6.108   6.059 -0.2838  0.3625  0.2153
   34DOPE  H13Y 4370   2.429   6.249   6.051 -2.7194 -0.6584 -0.9372
   34DOPE  C314 4371   2.330   6.062   6.037 -0.7260 -0.1266  0.5063
   34DOPE  H14X 4372   2.340   5.959   5.996  1.0207  0.4333 -0.5931
   34DOPE  H14Y 4373   2.241   6.099   5.982 -0.8173 -0.8254  0.1725
   34DOPE  C315 4374   2.306   6.067   6.188 -0.3600  0.4460  0.0578
   34DOPE  H15X 4375   2.402   6.042   6.238 -0.9267  0.6225  1.2734
   34DOPE  H15Y 4376   2.243   5.980   6.217 -0.2461  0.1399 -0.5971
   34DOPE  C316 4377   2.255   6.196   6.250 -0.1291  0.2748 -0.2461
   34DOPE  H16X 4378   2.168   6.232   6.191 -1.2976 -0.7590  0.7794
   34DOPE  H16Y 4379   2.331   6.273   6.225  0.8664 -1.0618 -1.4833
   34DOPE  C317 4380   2.212   6.199   6.398 -0.0660  0.0732 -0.8788
   34DOPE  H17X 4381   2.133   6.122   6.409  1.1801 -0.9733  1.5819
   34DOPE  H17Y 4382   2.288   6.150   6.464 -1.8011 -1.8602 -0.2240
   34DOPE  C318 4383   2.170   6.341   6.456 -0.8326  0.1448  0.3504
   34DOPE  H18X 4384   2.250   6.417   6.467 -1.9610  1.7345 -1.7546
   34DOPE  H18Y 4385   2.098   6.397   6.393 -1.7537 -0.2956  0.9855
   34DOPE  H18Z 4386   2.121   6.332   6.555 -1.2274 -1.0460  0.0643
   35DOPE     N 4387   7.140   3.692   4.232 -0.8334  0.0289  0.3351
   35DOPE   HN1 4388   7.123   3.752   4.149 -0.4257  1.8499  1.5136
   35DOPE   HN2 4389   7.148   3.760   4.310 -0.4812  0.1912  0.1548
   35DOPE   HN3 4390   7.230   3.644   4.212 -1.1057  0.0664 -1.0799
   35DOPE   C12 4391   7.027   3.597   4.269 -0.0500  0.3958  0.6559
   35DOPE  H12A 4392   7.068   3.517   4.334 -0.2794  1.0607  1.6352
   35DOPE  H12B 4393   6.983   3.547   4.179 -0.0052  2.3840 -0.5193
   35DOPE   C11 4394   6.913   3.673   4.338  0.5565 -0.3580 -0.9734
   35DOPE  H11A 4395   6.837   3.602   4.378  3.6039 -2.9533  0.7362
   35DOPE  H11B 4396   6.860   3.741   4.268 -0.9957 -0.1148  0.3816
   35DOPE     P 4397   6.961   3.730   4.589  0.3288  0.2412  0.0493
   35DOPE   O13 4398   7.013   3.852   4.659  0.5021  0.2944 -0.0890
   35DOPE   O14 4399   7.011   3.595   4.610 -0.1210  0.1098 -0.4847
   35DOPE   O11 4400   6.805   3.730   4.599  0.1768  0.9979 -0.0969
   35DOPE   O12 4401   6.972   3.764   4.439 -0.0327  0.3337 -0.3016
   35DOPE    C1 4402   6.709   3.621   4.605 -0.6463 -0.5938 -0.5249
   35DOPE    HA 4403   6.741   3.530   4.549  2.9504  0.5372 -0.5510
   35DOPE    HB 4404   6.603   3.648   4.586  0.0049  1.6235 -1.3556
   35DOPE    C2 4405   6.696   3.584   4.757  0.5510 -0.5454  0.3702
   35DOPE    HS 4406   6.670   3.680   4.807  0.7008 -1.1017  1.5483
   35DOPE   O21 4407   6.814   3.523   4.810  0.7747  0.2298  0.9174
   35DOPE   C21 4408   6.867   3.570   4.921  0.5848 -0.3408  0.2833
   35DOPE   O22 4409   6.817   3.653   4.998  0.2892  0.2840  0.5510
   35DOPE   C22 4410   6.986   3.487   4.953  0.2826  0.5809  0.0074
   35DOPE   H2R 4411   7.066   3.522   4.885  0.8511 -1.7492 -0.6073
   35DOPE   H2S 4412   6.969   3.378   4.938  0.4711  0.4687  0.6087
   35DOPE    C3 4413   6.579   3.486   4.782 -0.0674  0.1761 -0.0651
   35DOPE    HX 4414   6.607   3.389   4.734  2.3985 -0.5419  2.5333
   35DOPE    HY 4415   6.487   3.519   4.728  0.9157  0.0992 -1.8526
   35DOPE   O31 4416   6.552   3.487   4.920  0.2875  0.1014 -0.4209
   35DOPE   C31 4417   6.566   3.363   4.987  0.1495  0.1417  0.6052
   35DOPE   O32 4418   6.613   3.264   4.938 -0.4036 -0.1758  0.3242
   35DOPE   C32 4419   6.516   3.380   5.126  0.0038 -0.0209 -0.2887
   35DOPE   H2X 4420   6.539   3.484   5.158  2.5986 -0.9302  1.0192
   35DOPE   H2Y 4421   6.407   3.364   5.137  0.5868 -2.7819  2.6358
   35DOPE   C23 4422   7.037   3.524   5.093  0.1474 -0.0164 -0.0215
   35DOPE   H3R 4423   7.058   3.633   5.102  0.2862 -0.1536  1.7132
   35DOPE   H3S 4424   7.141   3.485   5.098  1.4520  2.7522 -2.6382
   35DOPE   C24 4425   6.953   3.477   5.209 -0.4139  0.6453  0.2795
   35DOPE   H4R 4426   6.912   3.377   5.183 -0.5424  1.0178 -1.0180
   35DOPE   H4S 4427   6.865   3.543   5.220 -0.5250  0.1859  2.8788
   35DOPE   C25 4428   7.031   3.475   5.341 -0.2183 -0.2453  0.3296
   35DOPE   H5R 4429   7.108   3.395   5.331 -1.5329 -1.6972  1.2897
   35DOPE   H5S 4430   6.956   3.443   5.416 -2.9030  1.4094 -1.5043
   35DOPE   C26 4431   7.108   3.606   5.369 -0.2055  0.1717  0.2825
   35DOPE   H6R 4432   7.027   3.682   5.381  0.0160  0.5348 -0.4958
   35DOPE   H6S 4433   7.163   3.634   5.277 -0.8360 -2.5728 -1.0471
   35DOPE   C27 4434   7.200   3.603   5.495  0.0301  0.1062  0.0863
   35DOPE   H7R 4435   7.215   3.706   5.535 -2.7364  1.4444 -1.9667
   35DOPE   H7S 4436   7.300   3.573   5.457 -0.0997 -0.0837 -0.1049
   35DOPE   C28 4437   7.150   3.513   5.613 -0.2227 -0.1738 -0.2415
   35DOPE   H8R 4438   7.237   3.520   5.682 -0.9475  0.3342  0.6419
   35DOPE   H8S 4439   7.134   3.407   5.583 -1.1000 -0.3707  0.8411
   35DOPE   C29 4440   7.024   3.575   5.684 -0.5742  0.1782 -0.1512
   35DOPE   H9R 4441   6.928   3.574   5.630 -1.7862  0.9567  1.8904
   35DOPE  C210 4442   7.025   3.649   5.799  0.7323 -0.4731  0.7485
   35DOPE  H10R 4443   6.932   3.701   5.826  1.0211  0.2021  0.4636
   35DOPE  C211 4444   7.136   3.700   5.876 -0.3044  0.0465  0.3056
   35DOPE  H11R 4445   7.173   3.794   5.829 -0.7366  0.8055  1.4340
   35DOPE  H11S 4446   7.214   3.624   5.894  0.3256  1.1130  2.5520
   35DOPE  C212 4447   7.091   3.764   6.015 -1.3924  0.6300  0.2280
   35DOPE  H12R 4448   7.052   3.681   6.078  0.3202 -0.4069 -0.0089
   35DOPE  H12S 4449   7.020   3.849   5.999 -1.7364  0.5339  1.1409
   35DOPE  C213 4450   7.224   3.812   6.084 -0.5226  0.4705  0.5118
   35DOPE  H13R 4451   7.247   3.915   6.050 -0.2646 -0.5211 -2.6154
   35DOPE  H13S 4452   7.304   3.747   6.044 -1.3825 -0.1039 -0.3351
   35DOPE  C214 4453   7.213   3.805   6.237 -0.5565  0.0380  0.3933
   35DOPE  H14R 4454   7.190   3.703   6.276  0.4223 -0.7839 -1.0870
   35DOPE  H14S 4455   7.138   3.885   6.256  1.0779  1.6348  0.3340
   35DOPE  C215 4456   7.338   3.854   6.303 -0.5876 -0.1089 -0.6890
   35DOPE  H15R 4457   7.358   3.958   6.271  0.2034  0.2451  0.8652
   35DOPE  H15S 4458   7.419   3.794   6.255  1.0139  0.5846  1.0029
   35DOPE  C216 4459   7.339   3.834   6.455 -0.5049 -0.5126  0.8024
   35DOPE  H16R 4460   7.438   3.857   6.501 -0.1009  0.3959 -0.4904
   35DOPE  H16S 4461   7.328   3.725   6.477 -0.2351 -0.5488  0.7606
   35DOPE  C217 4462   7.240   3.922   6.522 -0.0174 -0.1715  0.1422
   35DOPE  H17R 4463   7.135   3.906   6.490 -0.5110 -1.8059  2.3151
   35DOPE  H17S 4464   7.260   4.028   6.498 -1.7216 -0.4562 -3.0509
   35DOPE  C218 4465   7.228   3.892   6.678  0.4466 -0.4845  0.8077
   35DOPE  H18R 4466   7.149   3.955   6.723 -0.0123 -1.1870  1.0172
   35DOPE  H18S 4467   7.323   3.922   6.727  0.5809  0.5019 -0.0372
   35DOPE  H18T 4468   7.205   3.784   6.694  1.3799 -1.0984 -1.5633
   35DOPE   C33 4469   6.600   3.297   5.223 -0.4761  0.2156 -0.5714
   35DOPE   H3X 4470   6.703   3.337   5.217  0.0490 -0.3940  2.5451
   35DOPE   H3Y 4471   6.594   3.190   5.194 -0.7896 -0.2267  1.0288
   35DOPE   C34 4472   6.562   3.314   5.373 -0.5590  0.1029  0.1544
   35DOPE   H4X 4473   6.577   3.420   5.403 -0.2211 -0.4749  2.1994
   35DOPE   H4Y 4474   6.453   3.297   5.384 -0.6198  1.5111  2.4517
   35DOPE   C35 4475   6.656   3.230   5.460  0.2484 -0.0932  0.0761
   35DOPE   H5X 4476   6.761   3.256   5.434  1.1542 -0.2643  3.1974
   35DOPE   H5Y 4477   6.627   3.127   5.428  0.3273 -0.3261  0.7392
   35DOPE   C36 4478   6.633   3.245   5.612 -0.0063 -0.5502  0.6481
   35DOPE   H6X 4479   6.670   3.150   5.654  0.2951 -0.8676 -0.3104
   35DOPE   H6Y 4480   6.525   3.254   5.635  0.2944  1.8390  1.4817
   35DOPE   C37 4481   6.718   3.370   5.655  0.7858  0.5055 -0.3404
   35DOPE   H7X 4482   6.828   3.352   5.646  0.9425  0.6846  1.0804
   35DOPE   H7Y 4483   6.710   3.454   5.582 -0.6867  1.1529  0.5258
   35DOPE   C38 4484   6.674   3.440   5.783 -0.7832  0.6941 -0.0884
   35DOPE   H8X 4485   6.564   3.454   5.776 -0.5735  2.1384 -0.8487
   35DOPE   H8Y 4486   6.730   3.536   5.785  2.4502 -1.0808  0.0405
   35DOPE   C39 4487   6.700   3.367   5.911 -0.1025 -0.7810  0.6630
   35DOPE   H9X 4488   6.778   3.290   5.904 -0.0046 -0.6858  0.7009
   35DOPE  C310 4489   6.647   3.403   6.027  0.3023 -0.9900  0.0381
   35DOPE  H10X 4490   6.667   3.352   6.122  3.4425  2.0394  1.2467
   35DOPE  C311 4491   6.564   3.527   6.055 -0.0125 -0.1663  0.1253
   35DOPE  H11X 4492   6.563   3.602   5.973 -1.5134  2.3254  2.2478
   35DOPE  H11Y 4493   6.457   3.508   6.073 -0.7118  3.5358  0.7084
   35DOPE  C312 4494   6.624   3.594   6.187 -0.9020  0.2403 -0.0423
   35DOPE  H12X 4495   6.659   3.511   6.252  0.2447  1.0044  0.3432
   35DOPE  H12Y 4496   6.532   3.640   6.230  0.3221 -0.2131  3.3430
   35DOPE  C313 4497   6.743   3.684   6.180  0.0136  0.4925  0.3718
   35DOPE  H13X 4498   6.825   3.639   6.119 -0.9119  0.3144 -0.7809
   35DOPE  H13Y 4499   6.720   3.776   6.122 -0.4447 -0.5285 -1.1468
   35DOPE  C314 4500   6.784   3.727   6.315 -0.6129  0.3262  0.6395
   35DOPE  H14X 4501   6.864   3.803   6.310  0.6066 -1.0032 -1.6089
   35DOPE  H14Y 4502   6.827   3.643   6.372  1.0550  0.3407 -0.5321
   35DOPE  C315 4503   6.672   3.785   6.405  0.8870 -0.7144 -0.0887
   35DOPE  H15X 4504   6.599   3.707   6.437 -0.1049 -0.4676 -1.6689
   35DOPE  H15Y 4505   6.600   3.848   6.349  0.2345  0.9651  2.4479
   35DOPE  C316 4506   6.728   3.862   6.523  0.0730 -1.2863  0.2457
   35DOPE  H16X 4507   6.792   3.946   6.489 -1.7444  0.2627  0.5068
   35DOPE  H16Y 4508   6.805   3.796   6.567  1.7306  2.2783  3.1626
   35DOPE  C317 4509   6.638   3.917   6.631  0.3477 -0.5233  0.1246
   35DOPE  H17X 4510   6.700   3.978   6.700  0.8706 -0.7925 -0.0929
   35DOPE  H17Y 4511   6.558   3.977   6.584 -0.7593 -0.9672  1.3796
   35DOPE  C318 4512   6.562   3.808   6.709  0.5289 -0.1394  0.1781
   35DOPE  H18X 4513   6.646   3.760   6.765  0.2712  3.3501  4.0013
   35DOPE  H18Y 4514   6.496   3.858   6.783 -0.4667 -1.1073 -0.0212
   35DOPE  H18Z 4515   6.504   3.731   6.654 -0.4903 -0.7519  2.0280
   36DOPE     N 4516   6.113   3.272   4.309 -0.0764  0.5721 -0.4638
   36DOPE   HN1 4517   6.197   3.324   4.342 -0.1568  0.2193  0.3040
   36DOPE   HN2 4518   6.110   3.174   4.343  0.9325  0.6938  0.0335
   36DOPE   HN3 4519   6.137   3.260   4.208  1.8975 -0.2013  0.0590
   36DOPE   C12 4520   5.984   3.341   4.330  0.0783  0.0215  0.1581
   36DOPE  H12A 4521   5.968   3.367   4.437 -0.6687  0.3529 -0.0296
   36DOPE  H12B 4522   5.910   3.262   4.306  0.1863  0.1655 -0.6750
   36DOPE   C11 4523   5.963   3.463   4.237  0.5298  0.3295 -0.5193
   36DOPE  H11A 4524   5.865   3.511   4.258 -0.2438 -1.4416  0.1316
   36DOPE  H11B 4525   5.966   3.426   4.132  2.1056  1.0012 -0.7421
   36DOPE     P 4526   6.058   3.677   4.332 -0.5459 -0.6324  0.2208
   36DOPE   O13 4527   5.959   3.765   4.272 -0.5195 -0.5958  0.5680
   36DOPE   O14 4528   6.203   3.725   4.351  0.1895 -0.0600  0.2470
   36DOPE   O11 4529   6.001   3.629   4.474 -0.0899  0.0507  0.1536
   36DOPE   O12 4530   6.074   3.548   4.245 -0.1350 -0.3010 -0.0000
   36DOPE    C1 4531   5.875   3.653   4.521  0.4834 -0.4519 -0.7964
   36DOPE    HA 4532   5.868   3.604   4.620 -0.6381 -0.9104 -1.0856
   36DOPE    HB 4533   5.792   3.609   4.463 -0.2861 -0.4328  0.2846
   36DOPE    C2 4534   5.843   3.805   4.555 -0.0369  0.5483 -0.1786
   36DOPE    HS 4535   5.880   3.877   4.478  0.6299  1.7318  1.1847
   36DOPE   O21 4536   5.903   3.840   4.679 -0.0760  0.0757  0.0641
   36DOPE   C21 4537   5.926   3.968   4.701 -0.1422 -0.5610 -0.5760
   36DOPE   O22 4538   5.896   4.055   4.624 -0.8727 -0.4742  0.1698
   36DOPE   C22 4539   6.003   3.985   4.828 -0.6158  0.7590 -0.6735
   36DOPE   H2R 4540   6.010   4.095   4.838  0.3608  0.6538 -0.1123
   36DOPE   H2S 4541   6.108   3.951   4.815 -0.6996 -0.0937  0.6753
   36DOPE    C3 4542   5.686   3.814   4.567  0.1183  0.0364  0.0925
   36DOPE    HX 4543   5.648   3.789   4.466 -3.3654 -1.2451  1.5492
   36DOPE    HY 4544   5.671   3.923   4.584  2.1836  0.8268 -2.5731
   36DOPE   O31 4545   5.621   3.736   4.673 -0.9239 -0.5093  0.6034
   36DOPE   C31 4546   5.620   3.786   4.792 -0.2884  0.2249  0.4120
   36DOPE   O32 4547   5.641   3.900   4.819  0.4278  0.0479  0.2121
   36DOPE   C32 4548   5.592   3.675   4.884 -0.0947  0.8310 -0.5548
   36DOPE   H2X 4549   5.557   3.720   4.979  1.0190  2.4910 -0.8756
   36DOPE   H2Y 4550   5.517   3.610   4.835  0.8940  0.5165 -1.7334
   36DOPE   C23 4551   5.940   3.933   4.960  0.5677  0.3499  0.0166
   36DOPE   H3R 4552   5.953   3.823   4.971 -2.8987 -0.2424 -0.8210
   36DOPE   H3S 4553   5.833   3.963   4.961  0.2096 -0.8695  0.1353
   36DOPE   C24 4554   6.002   4.002   5.082 -0.7919  0.2368  0.5496
   36DOPE   H4R 4555   5.985   4.111   5.072  0.5131  0.4930  0.9373
   36DOPE   H4S 4556   6.112   3.988   5.089 -0.9318 -0.8079  0.8254
   36DOPE   C25 4557   5.950   3.957   5.221  0.0587 -0.7624 -0.5296
   36DOPE   H5R 4558   5.964   3.847   5.232 -1.6385 -0.9247  0.3099
   36DOPE   H5S 4559   5.845   3.985   5.240  1.1604  2.2029  2.1105
   36DOPE   C26 4560   6.040   4.030   5.327 -0.1747  0.6765 -0.5224
   36DOPE   H6R 4561   6.012   4.138   5.333 -2.1967  0.1185  1.0100
   36DOPE   H6S 4562   6.151   4.033   5.328 -0.1504 -0.0889  0.5536
   36DOPE   C27 4563   6.006   3.969   5.467  0.0611  0.8032  0.0793
   36DOPE   H7R 4564   6.049   3.868   5.453 -2.7266 -0.2021 -2.1648
   36DOPE   H7S 4565   5.898   3.949   5.479  0.3428 -0.2124  1.0535
   36DOPE   C28 4566   6.061   4.027   5.591  0.3546  0.5885 -0.0855
   36DOPE   H8R 4567   6.012   4.125   5.603 -1.4685 -0.3589  0.5739
   36DOPE   H8S 4568   6.171   4.039   5.580  0.2806  2.3780  0.7932
   36DOPE   C29 4569   6.026   3.945   5.713 -0.4372  0.3567 -0.0681
   36DOPE   H9R 4570   6.101   3.865   5.728  1.7435  2.2319 -0.5182
   36DOPE  C210 4571   5.936   3.972   5.817 -0.2749 -0.0184 -0.1143
   36DOPE  H10R 4572   5.949   3.928   5.917  0.1355 -0.2127 -0.2519
   36DOPE  C211 4573   5.823   4.071   5.816 -0.0955 -0.5601 -0.6960
   36DOPE  H11R 4574   5.743   4.016   5.869  0.9723  0.2483  1.9027
   36DOPE  H11S 4575   5.799   4.101   5.712 -1.1754 -0.7239 -0.5122
   36DOPE  C212 4576   5.842   4.204   5.899  0.0519 -0.2639  0.0212
   36DOPE  H12R 4577   5.747   4.260   5.901  0.0243 -0.2301 -1.3547
   36DOPE  H12S 4578   5.920   4.263   5.846  0.8535 -0.8651  0.5055
   36DOPE  C213 4579   5.887   4.173   6.042 -0.0621 -0.2091  0.1447
   36DOPE  H13R 4580   5.976   4.106   6.042 -0.9235 -1.6128 -3.7947
   36DOPE  H13S 4581   5.813   4.111   6.097  0.8781 -0.0497  1.6633
   36DOPE  C214 4582   5.905   4.303   6.122  0.6691 -0.2140 -1.0084
   36DOPE  H14R 4583   5.825   4.380   6.120  1.7053  1.0282  1.1915
   36DOPE  H14S 4584   5.993   4.358   6.080  1.3676 -0.0707  0.5761
   36DOPE  C215 4585   5.946   4.286   6.267 -0.6966  0.0557 -0.8046
   36DOPE  H15R 4586   6.045   4.238   6.275 -0.0256  1.5952  0.9997
   36DOPE  H15S 4587   5.867   4.228   6.320 -0.7309  0.4576 -0.4085
   36DOPE  C216 4588   5.972   4.418   6.345  0.6612 -0.2005  0.3697
   36DOPE  H16R 4589   5.876   4.474   6.345  1.9912  2.2364 -1.1092
   36DOPE  H16S 4590   6.045   4.484   6.295 -0.6614  0.1454 -1.1959
   36DOPE  C217 4591   6.019   4.397   6.498  0.6243  0.5306  0.4389
   36DOPE  H17R 4592   6.115   4.342   6.503  0.6760  0.5478 -0.2509
   36DOPE  H17S 4593   5.944   4.330   6.544 -1.0631  1.3405 -1.0242
   36DOPE  C218 4594   6.044   4.515   6.594  0.2944 -0.6395  0.2246
   36DOPE  H18R 4595   6.144   4.563   6.590  0.7133 -1.3046  1.9114
   36DOPE  H18S 4596   6.030   4.473   6.695 -2.2480 -0.2558  0.0862
   36DOPE  H18T 4597   5.958   4.584   6.582 -0.7590 -2.0131 -0.4945
   36DOPE   C33 4598   5.723   3.592   4.900  0.0003  0.7000  0.1931
   36DOPE   H3X 4599   5.814   3.654   4.912 -0.0050  0.5942  0.8020
   36DOPE   H3Y 4600   5.745   3.541   4.804 -2.0553 -1.3227  0.6977
   36DOPE   C34 4601   5.701   3.483   5.007  0.7307 -0.1753 -0.1728
   36DOPE   H4X 4602   5.596   3.448   4.993 -0.3252  1.9526  1.7345
   36DOPE   H4Y 4603   5.767   3.399   4.977  1.9002  0.8500 -0.5405
   36DOPE   C35 4604   5.715   3.540   5.147  0.1458  0.6072 -0.2614
   36DOPE   H5X 4605   5.639   3.617   5.172 -1.1468 -0.0334 -1.9816
   36DOPE   H5Y 4606   5.812   3.594   5.143 -0.1774  1.1278 -2.2951
   36DOPE   C36 4607   5.714   3.422   5.253 -0.3551  0.4820  0.8183
   36DOPE   H6X 4608   5.774   3.340   5.207 -0.6522  1.7040 -1.9385
   36DOPE   H6Y 4609   5.612   3.378   5.260 -1.4429  2.6286 -0.5252
   36DOPE   C37 4610   5.769   3.456   5.388 -0.0703  0.1150  0.3923
   36DOPE   H7X 4611   5.762   3.367   5.453 -1.3707  0.6491  1.0088
   36DOPE   H7Y 4612   5.876   3.483   5.378  0.5777 -2.2268  0.4808
   36DOPE   C38 4613   5.683   3.568   5.465 -0.0515 -0.2495 -0.1944
   36DOPE   H8X 4614   5.594   3.515   5.503  1.8066 -1.8238  2.2657
   36DOPE   H8Y 4615   5.652   3.643   5.389 -0.5208 -1.2619 -1.0231
   36DOPE   C39 4616   5.754   3.658   5.567 -0.6608  0.1190  0.5121
   36DOPE   H9X 4617   5.835   3.713   5.518 -0.2649 -1.4495 -0.7111
   36DOPE  C310 4618   5.738   3.666   5.701 -0.4151  0.2201  0.0330
   36DOPE  H10X 4619   5.797   3.746   5.749 -1.0702  0.5651  0.2710
   36DOPE  C311 4620   5.637   3.587   5.789  0.0661 -1.0910 -0.4482
   36DOPE  H11X 4621   5.556   3.658   5.818  0.2751 -0.2910 -1.7406
   36DOPE  H11Y 4622   5.581   3.511   5.731 -0.2293 -1.0571 -0.2092
   36DOPE  C312 4623   5.691   3.525   5.912  0.2391  0.0536 -0.1559
   36DOPE  H12X 4624   5.758   3.441   5.883  0.5089 -0.0114  0.6299
   36DOPE  H12Y 4625   5.606   3.475   5.963  0.3956  2.0305  2.2648
   36DOPE  C313 4626   5.752   3.628   6.011 -0.7419 -0.4433 -0.1509
   36DOPE  H13X 4627   5.823   3.566   6.070 -1.9751 -2.5322 -0.7521
   36DOPE  H13Y 4628   5.809   3.712   5.966  1.1433  0.5222  3.6091
   36DOPE  C314 4629   5.652   3.687   6.101  0.6717 -0.2880 -0.4819
   36DOPE  H14X 4630   5.602   3.601   6.150  1.5284  0.2637  1.4497
   36DOPE  H14Y 4631   5.567   3.741   6.053 -0.9384 -1.0575  1.3667
   36DOPE  C315 4632   5.731   3.766   6.210  0.8516 -0.3096  0.2225
   36DOPE  H15X 4633   5.785   3.845   6.155  1.1609  0.9707  2.2643
   36DOPE  H15Y 4634   5.813   3.709   6.259  2.0486  1.5011  0.3887
   36DOPE  C316 4635   5.645   3.842   6.316 -0.3586 -0.0677  0.1288
   36DOPE  H16X 4636   5.578   3.914   6.264  1.2378  0.1174 -1.7833
   36DOPE  H16Y 4637   5.721   3.886   6.385 -0.1595  0.8098 -0.6324
   36DOPE  C317 4638   5.566   3.738   6.404 -0.7386  0.1914 -0.1868
   36DOPE  H17X 4639   5.464   3.716   6.366 -1.0704 -0.0340  0.7898
   36DOPE  H17Y 4640   5.623   3.643   6.409 -2.6612 -1.0048 -0.1070
   36DOPE  C318 4641   5.540   3.792   6.544  0.7792 -0.3058  0.1683
   36DOPE  H18X 4642   5.635   3.821   6.594 -0.4256 -0.8863  2.9632
   36DOPE  H18Y 4643   5.466   3.875   6.539  0.9193 -0.0584  1.8056
   36DOPE  H18Z 4644   5.510   3.709   6.611  0.7753  0.1071  0.6856
   37DOPE     N 4645   3.044   4.687   4.609 -0.4303  1.0948  0.6608
   37DOPE   HN1 4646   3.014   4.753   4.683 -2.5133 -0.3412  1.1864
   37DOPE   HN2 4647   3.026   4.732   4.517  1.2550  1.3059  0.3974
   37DOPE   HN3 4648   2.974   4.610   4.600 -0.6561  1.2424  1.1462
   37DOPE   C12 4649   3.180   4.628   4.624 -0.0175 -0.6341  0.7057
   37DOPE  H12A 4650   3.250   4.711   4.648 -1.1612  0.5729 -0.0416
   37DOPE  H12B 4651   3.205   4.587   4.524 -1.1725 -0.5126  0.3498
   37DOPE   C11 4652   3.173   4.515   4.730 -0.0284 -1.2090 -0.1637
   37DOPE  H11A 4653   3.108   4.538   4.817 -0.6646  0.2086 -0.9815
   37DOPE  H11B 4654   3.276   4.507   4.772 -0.8315 -1.7984  1.8034
   37DOPE     P 4655   2.982   4.344   4.657  0.3698 -0.0552 -0.1074
   37DOPE   O13 4656   2.973   4.208   4.600  0.0610  0.2141 -0.0328
   37DOPE   O14 4657   2.905   4.444   4.584 -0.3559 -0.7379  0.1000
   37DOPE   O11 4658   2.933   4.334   4.803  0.2597 -0.3806  0.3460
   37DOPE   O12 4659   3.128   4.394   4.668 -0.0628 -0.0016  0.2567
   37DOPE    C1 4660   2.839   4.428   4.859  0.1091  0.1526 -0.6376
   37DOPE    HA 4661   2.771   4.476   4.785  0.7849  0.3688 -1.1349
   37DOPE    HB 4662   2.880   4.508   4.924  2.0645  1.9311 -3.7841
   37DOPE    C2 4663   2.729   4.352   4.948 -1.1482 -0.7229  0.2513
   37DOPE    HS 4664   2.650   4.424   4.979 -1.2014 -1.1297  1.0706
   37DOPE   O21 4665   2.779   4.287   5.062 -0.4307  0.0669 -0.3234
   37DOPE   C21 4666   2.806   4.364   5.165  0.1295 -0.7249 -0.0292
   37DOPE   O22 4667   2.788   4.484   5.172  0.1505  0.3851  0.5700
   37DOPE   C22 4668   2.886   4.291   5.274 -0.3221  0.6823  0.0041
   37DOPE   H2R 4669   2.849   4.347   5.362 -0.1079 -0.9552  1.1813
   37DOPE   H2S 4670   2.995   4.304   5.257 -0.3190 -0.0090 -0.5923
   37DOPE    C3 4671   2.656   4.241   4.866 -0.6081  0.2740  0.4391
   37DOPE    HX 4672   2.734   4.163   4.852  1.5628  2.5795 -1.1466
   37DOPE    HY 4673   2.651   4.263   4.758 -0.1587 -0.0704  0.3443
   37DOPE   O31 4674   2.537   4.184   4.920  0.3057  0.6381 -0.1522
   37DOPE   C31 4675   2.430   4.265   4.913  0.5193  0.1280 -0.3231
   37DOPE   O32 4676   2.430   4.382   4.876 -0.5328  0.0406  0.3546
   37DOPE   C32 4677   2.297   4.203   4.943  0.0441 -0.3030  0.2082
   37DOPE   H2X 4678   2.240   4.205   4.848  0.1290 -2.7233  0.0297
   37DOPE   H2Y 4679   2.317   4.098   4.975 -1.0361 -0.5027  0.2696
   37DOPE   C23 4680   2.851   4.142   5.288  0.2474  0.2638 -0.2141
   37DOPE   H3R 4681   2.884   4.105   5.189 -1.1341 -2.2151  0.1884
   37DOPE   H3S 4682   2.744   4.116   5.304  1.0818 -3.9417 -0.4808
   37DOPE   C24 4683   2.921   4.070   5.401 -0.7339  0.2186 -0.1508
   37DOPE   H4R 4684   3.031   4.084   5.391 -0.7616 -0.4852 -1.7230
   37DOPE   H4S 4685   2.897   3.962   5.399 -1.0899  0.2938 -1.7021
   37DOPE   C25 4686   2.894   4.117   5.547 -0.3690 -0.3806 -1.0978
   37DOPE   H5R 4687   2.803   4.071   5.590 -1.7270  0.6748 -2.6981
   37DOPE   H5S 4688   2.875   4.227   5.543 -0.2632 -0.3653 -1.2028
   37DOPE   C26 4689   3.011   4.102   5.650  0.3959 -0.3505 -0.4142
   37DOPE   H6R 4690   2.977   4.146   5.746 -1.5585 -0.9402 -0.7910
   37DOPE   H6S 4691   3.107   4.151   5.621 -0.3633  0.6554 -1.2943
   37DOPE   C27 4692   3.041   3.951   5.671  0.4332 -0.2922  0.2809
   37DOPE   H7R 4693   3.104   3.918   5.586 -0.1610 -0.4255 -0.1050
   37DOPE   H7S 4694   2.947   3.893   5.658  0.2660 -0.0816  0.5483
   37DOPE   C28 4695   3.123   3.934   5.800 -0.0338  0.5193  0.3577
   37DOPE   H8R 4696   3.073   3.978   5.889 -0.5059  1.0405 -0.1535
   37DOPE   H8S 4697   3.222   3.983   5.792  1.9373 -2.7910  2.4669
   37DOPE   C29 4698   3.152   3.785   5.827  0.5358  0.1174 -0.6013
   37DOPE   H9R 4699   3.189   3.731   5.738  1.7513  0.4211 -0.2992
   37DOPE  C210 4700   3.136   3.725   5.943  0.9313 -0.1572 -0.5429
   37DOPE  H10R 4701   3.155   3.617   5.953 -1.4537 -0.5494  0.5960
   37DOPE  C211 4702   3.115   3.801   6.074  0.0396  0.5729  0.6672
   37DOPE  H11R 4703   3.043   3.886   6.071  1.2112  1.5733  0.4152
   37DOPE  H11S 4704   3.211   3.848   6.103  1.0453 -1.2717  0.4594
   37DOPE  C212 4705   3.068   3.723   6.195  0.2082  0.1488 -1.1956
   37DOPE  H12R 4706   3.131   3.632   6.201  0.7847  0.6009 -0.0515
   37DOPE  H12S 4707   2.965   3.682   6.184 -0.1723  0.3179  1.1539
   37DOPE  C213 4708   3.086   3.786   6.335  0.2105 -0.1784  0.5994
   37DOPE  H13R 4709   3.048   3.889   6.323  0.8504  0.0245  0.2842
   37DOPE  H13S 4710   3.195   3.799   6.353  0.2225  0.3933  0.1486
   37DOPE  C214 4711   3.008   3.707   6.447 -0.1824  0.5614  0.6322
   37DOPE  H14R 4712   3.023   3.597   6.437 -1.4027  0.3806  0.6521
   37DOPE  H14S 4713   2.898   3.709   6.431  0.1112 -0.2629 -1.9792
   37DOPE  C215 4714   3.025   3.753   6.589 -0.3767 -0.4844  0.1592
   37DOPE  H15R 4715   2.999   3.860   6.572 -0.8275 -0.5752  0.2563
   37DOPE  H15S 4716   3.135   3.745   6.601 -0.0647  2.4164  0.0821
   37DOPE  C216 4717   2.943   3.680   6.695  0.4613  0.0583  0.0908
   37DOPE  H16R 4718   2.965   3.571   6.692 -0.9754 -0.2398 -0.3328
   37DOPE  H16S 4719   2.834   3.689   6.672  0.2666  0.0715  0.9638
   37DOPE  C217 4720   2.964   3.723   6.838 -0.4444 -0.2045 -0.2158
   37DOPE  H17R 4721   2.953   3.832   6.854  0.0025 -0.2374  0.4112
   37DOPE  H17S 4722   3.071   3.713   6.869 -0.4068 -1.5816 -0.7197
   37DOPE  C218 4723   2.886   3.645   6.935  0.0471 -0.4025  0.3590
   37DOPE  H18R 4724   2.934   3.549   6.964  0.0004 -0.4104  0.4132
   37DOPE  H18S 4725   2.787   3.603   6.907 -0.4942  0.2680  1.2067
   37DOPE  H18T 4726   2.882   3.697   7.033  0.1872 -0.1036  0.2048
   37DOPE   C33 4727   2.218   4.284   5.052 -0.5749  0.7788  0.9453
   37DOPE   H3X 4728   2.119   4.237   5.069  0.3007 -0.3634  3.1587
   37DOPE   H3Y 4729   2.207   4.388   5.015 -0.5423  0.6925  0.6861
   37DOPE   C34 4730   2.290   4.278   5.182 -0.0091 -0.4872  0.2546
   37DOPE   H4X 4731   2.310   4.173   5.214  1.2551 -0.2193  0.3955
   37DOPE   H4Y 4732   2.393   4.319   5.177 -0.4872  0.7469  0.2715
   37DOPE   C35 4733   2.206   4.355   5.295 -0.1220 -0.1667  0.5323
   37DOPE   H5X 4734   2.101   4.319   5.286 -0.7428  1.8898 -1.4516
   37DOPE   H5Y 4735   2.186   4.460   5.263 -2.1365 -0.9610 -1.0513
   37DOPE   C36 4736   2.258   4.333   5.439  0.5788 -0.0626 -0.5084
   37DOPE   H6X 4737   2.353   4.389   5.451  1.0618 -0.7785 -0.9228
   37DOPE   H6Y 4738   2.273   4.224   5.457 -2.0177 -0.0513  2.4705
   37DOPE   C37 4739   2.156   4.389   5.543 -0.3107  0.2895  0.0641
   37DOPE   H7X 4740   2.057   4.391   5.492  1.0567 -0.9401 -2.8746
   37DOPE   H7Y 4741   2.159   4.329   5.637 -0.1121 -1.1516 -0.8357
   37DOPE   C38 4742   2.173   4.542   5.578 -0.8999  0.1204 -1.2344
   37DOPE   H8X 4743   2.172   4.595   5.480 -1.0298 -1.0600 -1.8827
   37DOPE   H8Y 4744   2.272   4.559   5.627 -1.0800 -1.2611 -0.3496
   37DOPE   C39 4745   2.049   4.577   5.653 -0.3566 -0.1701  0.0479
   37DOPE   H9X 4746   1.957   4.546   5.602 -0.7465 -1.1950  1.3161
   37DOPE  C310 4747   2.034   4.625   5.781  0.1107  0.0843 -0.3229
   37DOPE  H10X 4748   1.934   4.624   5.827 -0.4199  0.0398 -1.4361
   37DOPE  C311 4749   2.144   4.652   5.873 -0.0916  0.0784 -0.5803
   37DOPE  H11X 4750   2.214   4.724   5.825  0.5074  1.5005  2.2419
   37DOPE  H11Y 4751   2.110   4.710   5.961 -0.3385 -0.3789 -0.3759
   37DOPE  C312 4752   2.220   4.532   5.931  0.5048 -0.1460 -0.3239
   37DOPE  H12X 4753   2.300   4.564   6.000  1.0093  0.6839 -1.2600
   37DOPE  H12Y 4754   2.270   4.483   5.844 -0.6163 -0.2769 -0.9198
   37DOPE  C313 4755   2.132   4.431   6.006 -0.7679 -0.2586  0.6168
   37DOPE  H13X 4756   2.054   4.396   5.935 -0.5853  1.2512 -0.3657
   37DOPE  H13Y 4757   2.199   4.348   6.034  0.5251  1.0422  1.5268
   37DOPE  C314 4758   2.063   4.494   6.128 -0.1938  0.3524  0.3353
   37DOPE  H14X 4759   1.989   4.570   6.095 -0.3644  0.4052  0.8236
   37DOPE  H14Y 4760   2.136   4.551   6.191 -0.6857  1.1224  0.2239
   37DOPE  C315 4761   2.001   4.374   6.212  0.1160  0.6824  0.1376
   37DOPE  H15X 4762   2.070   4.287   6.217  2.0039  2.1917  1.2618
   37DOPE  H15Y 4763   1.911   4.342   6.154  1.2259 -2.0135 -0.2582
   37DOPE  C316 4764   1.961   4.403   6.354 -0.4727  0.4057  0.3365
   37DOPE  H16X 4765   1.891   4.489   6.351  0.5139  1.2349  0.4259
   37DOPE  H16Y 4766   2.048   4.445   6.408 -0.3093  0.0651  0.3449
   37DOPE  C317 4767   1.905   4.282   6.442 -0.4557  0.2836 -0.1600
   37DOPE  H17X 4768   1.994   4.221   6.469  0.2812  1.1557 -0.5496
   37DOPE  H17Y 4769   1.866   4.318   6.540  1.0906 -0.4985  0.8018
   37DOPE  C318 4770   1.799   4.198   6.371  0.4501  0.0934 -0.2167
   37DOPE  H18X 4771   1.715   4.265   6.344  0.1325 -0.7128 -1.2885
   37DOPE  H18Y 4772   1.833   4.151   6.276 -2.2913  0.2816 -1.3834
   37DOPE  H18Z 4773   1.762   4.113   6.431 -1.7788 -1.0951 -3.0152
   38DOPE     N 4774   5.913   4.323   4.590  0.2332 -0.0607 -0.5457
   38DOPE   HN1 4775   5.926   4.378   4.677 -1.8299  0.6015 -0.6050
   38DOPE   HN2 4776   5.928   4.221   4.609 -1.2664 -0.4403 -1.2418
   38DOPE   HN3 4777   5.980   4.356   4.517  0.8409 -1.0818 -0.4771
   38DOPE   C12 4778   5.769   4.347   4.550  0.7378  0.0847  0.1523
   38DOPE  H12A 4779   5.709   4.332   4.642  1.0962  0.2053  0.4075
   38DOPE  H12B 4780   5.745   4.270   4.473  0.2394  0.8059 -0.4216
   38DOPE   C11 4781   5.735   4.487   4.500  0.5027  0.2866 -0.4481
   38DOPE  H11A 4782   5.625   4.495   4.487  0.4307  2.6685  1.0122
   38DOPE  H11B 4783   5.777   4.496   4.397  1.1625 -0.2194 -0.2318
   38DOPE     P 4784   5.734   4.735   4.584  0.0490 -0.1863 -0.3252
   38DOPE   O13 4785   5.587   4.741   4.570  0.1459  0.4836  0.0494
   38DOPE   O14 4786   5.818   4.807   4.481  0.0033  0.1675 -0.0012
   38DOPE   O11 4787   5.765   4.776   4.730  0.8008 -0.0915  0.0783
   38DOPE   O12 4788   5.783   4.589   4.586  0.0697  0.3693  0.1700
   38DOPE    C1 4789   5.856   4.704   4.813  0.7358  0.4257 -0.1656
   38DOPE    HA 4790   5.929   4.771   4.864 -0.0966 -0.0224  1.6951
   38DOPE    HB 4791   5.909   4.621   4.763 -0.3800 -0.2928 -0.1860
   38DOPE    C2 4792   5.774   4.635   4.924  0.2684  1.0516 -0.2041
   38DOPE    HS 4793   5.709   4.563   4.870 -3.1712  2.2419  2.0083
   38DOPE   O21 4794   5.692   4.725   4.995  0.4374 -0.2956  0.4807
   38DOPE   C21 4795   5.574   4.669   5.030  0.7688 -0.1324 -0.0762
   38DOPE   O22 4796   5.520   4.576   4.978  0.1600  0.1532  0.5447
   38DOPE   C22 4797   5.526   4.747   5.154  0.2743  0.2539 -0.6743
   38DOPE   H2R 4798   5.551   4.853   5.133  0.7792  0.1525 -0.5937
   38DOPE   H2S 4799   5.592   4.722   5.239  1.7145  1.1949 -1.4618
   38DOPE    C3 4800   5.866   4.543   5.012  0.1882  0.2372  0.6467
   38DOPE    HX 4801   5.922   4.614   5.077  0.8802  1.1824 -0.9447
   38DOPE    HY 4802   5.939   4.488   4.950 -2.7319 -2.6242 -0.5541
   38DOPE   O31 4803   5.788   4.454   5.094  0.2625  0.1907  0.5558
   38DOPE   C31 4804   5.747   4.343   5.036 -0.0373 -0.2857  0.0243
   38DOPE   O32 4805   5.775   4.311   4.922  0.6191  0.5878  0.4251
   38DOPE   C32 4806   5.659   4.261   5.132  0.2763 -0.4239 -0.1296
   38DOPE   H2X 4807   5.725   4.203   5.201 -0.6526 -1.7190 -0.3037
   38DOPE   H2Y 4808   5.593   4.329   5.191 -0.3707 -0.8366 -0.3729
   38DOPE   C23 4809   5.374   4.736   5.189  0.0483 -0.1869  0.2993
   38DOPE   H3R 4810   5.306   4.758   5.103 -1.4532  1.3759  1.8058
   38DOPE   H3S 4811   5.352   4.827   5.248 -1.2268  0.5430 -1.2117
   38DOPE   C24 4812   5.341   4.614   5.270  0.9882 -0.3744 -0.2141
   38DOPE   H4R 4813   5.418   4.618   5.350  0.1600  1.9787  0.5615
   38DOPE   H4S 4814   5.362   4.525   5.207  1.4989  1.1058 -2.2267
   38DOPE   C25 4815   5.197   4.614   5.328  0.0165  0.3429  0.0727
   38DOPE   H5R 4816   5.119   4.597   5.251 -1.0617  1.0210  0.9712
   38DOPE   H5S 4817   5.176   4.716   5.368  0.8188  1.3401 -1.9236
   38DOPE   C26 4818   5.185   4.495   5.420 -0.2001 -0.1041 -0.2901
   38DOPE   H6R 4819   5.265   4.491   5.497 -0.2821 -2.2275 -0.2622
   38DOPE   H6S 4820   5.211   4.413   5.350 -1.4295 -1.3665  0.6755
   38DOPE   C27 4821   5.042   4.472   5.474 -0.1372 -0.1918 -0.4222
   38DOPE   H7R 4822   4.975   4.487   5.387  0.4672 -0.5694 -0.9521
   38DOPE   H7S 4823   5.016   4.551   5.549 -0.7871 -1.2442  0.4941
   38DOPE   C28 4824   5.027   4.334   5.538  0.2349 -0.2211  1.0112
   38DOPE   H8R 4825   5.116   4.319   5.602  3.3168  0.5841 -2.6806
   38DOPE   H8S 4826   5.042   4.263   5.454  2.2041  0.1536  0.9900
   38DOPE   C29 4827   4.897   4.289   5.596  0.4670  0.4407  0.4247
   38DOPE   H9R 4828   4.821   4.250   5.527  0.1729  0.0689  0.9572
   38DOPE  C210 4829   4.857   4.297   5.725 -0.4389 -0.0770 -0.1633
   38DOPE  H10R 4830   4.755   4.264   5.749 -1.3115  1.5546 -1.4289
   38DOPE  C211 4831   4.937   4.351   5.838 -0.1979 -0.5639 -0.0806
   38DOPE  H11R 4832   4.866   4.398   5.908 -0.1469  1.1657 -1.1247
   38DOPE  H11S 4833   5.008   4.431   5.808 -1.1895  0.6993  0.8685
   38DOPE  C212 4834   5.015   4.243   5.916  0.1136 -0.1038  0.4539
   38DOPE  H12R 4835   5.075   4.167   5.863 -1.3064 -2.3670  1.9350
   38DOPE  H12S 4836   4.927   4.184   5.950  0.2069 -2.4209 -2.9044
   38DOPE  C213 4837   5.102   4.304   6.026  0.5302  0.1329 -0.4222
   38DOPE  H13R 4838   5.155   4.395   5.990  0.1267  0.8695  0.7985
   38DOPE  H13S 4839   5.174   4.226   6.060 -1.1795 -0.5996  1.7753
   38DOPE  C214 4840   5.021   4.346   6.150  0.0887 -0.4544  0.1390
   38DOPE  H14R 4841   4.934   4.277   6.155  0.3506 -0.9262 -1.2887
   38DOPE  H14S 4842   4.981   4.449   6.138  0.6341 -0.2589 -0.0183
   38DOPE  C215 4843   5.101   4.344   6.279  0.4503 -0.0580 -0.1260
   38DOPE  H15R 4844   5.171   4.430   6.271  0.2339  0.0472 -1.0155
   38DOPE  H15S 4845   5.155   4.250   6.303 -0.3086 -0.3131  0.6067
   38DOPE  C216 4846   5.007   4.376   6.397  1.3458  0.0863  0.8328
   38DOPE  H16R 4847   4.931   4.453   6.369  1.5704  1.7060  4.0864
   38DOPE  H16S 4848   5.067   4.423   6.479 -0.4156  1.6593  1.3055
   38DOPE  C217 4849   4.934   4.251   6.448 -0.8407  0.0170  0.5907
   38DOPE  H17R 4850   5.001   4.165   6.467 -0.3303  0.1703 -0.4671
   38DOPE  H17S 4851   4.873   4.203   6.368 -0.1718  0.1877 -0.0237
   38DOPE  C218 4852   4.842   4.279   6.568  0.6259  0.1494 -0.0884
   38DOPE  H18R 4853   4.763   4.349   6.534 -0.3600 -1.3645 -1.0139
   38DOPE  H18S 4854   4.889   4.312   6.663 -0.4420 -2.3438  1.4153
   38DOPE  H18T 4855   4.792   4.184   6.599 -2.7305  1.8323  0.1698
   38DOPE   C33 4856   5.568   4.154   5.068 -1.1316  0.1841 -0.4755
   38DOPE   H3X 4857   5.617   4.087   4.993 -2.6644  0.3287 -1.6641
   38DOPE   H3Y 4858   5.501   4.212   5.001 -0.7813  1.6502  0.4213
   38DOPE   C34 4859   5.487   4.078   5.179 -0.3515 -0.1487  0.5473
   38DOPE   H4X 4860   5.443   4.153   5.248 -0.2961 -0.6514  1.1397
   38DOPE   H4Y 4861   5.392   4.039   5.136 -0.4324 -0.3769  0.9248
   38DOPE   C35 4862   5.568   3.975   5.263  0.7651 -0.9433  0.5774
   38DOPE   H5X 4863   5.649   4.034   5.309  0.4308 -0.6170  0.7514
   38DOPE   H5Y 4864   5.613   3.899   5.195  2.7547 -0.2760  1.0889
   38DOPE   C36 4865   5.480   3.890   5.362  0.1408  0.0336  0.1058
   38DOPE   H6X 4866   5.540   3.828   5.432 -0.1530  0.3985  0.6885
   38DOPE   H6Y 4867   5.414   3.817   5.310 -0.5715  0.3721  0.5187
   38DOPE   C37 4868   5.395   3.965   5.466 -0.5298 -0.6003  0.3654
   38DOPE   H7X 4869   5.320   4.013   5.400 -0.1405  1.0233  1.0396
   38DOPE   H7Y 4870   5.332   3.896   5.526 -0.6320 -0.7746  0.0533
   38DOPE   C38 4871   5.474   4.068   5.555  1.1825 -0.3278 -0.2615
   38DOPE   H8X 4872   5.518   4.143   5.486 -0.4359 -0.3335 -1.3748
   38DOPE   H8Y 4873   5.552   4.021   5.618  1.9334  1.7769  0.4479
   38DOPE   C39 4874   5.379   4.136   5.648  0.8958 -0.2453  0.9817
   38DOPE   H9X 4875   5.314   4.205   5.593  2.4191  0.2550 -0.2754
   38DOPE  C310 4876   5.378   4.132   5.783  0.8737 -0.2091  0.4030
   38DOPE  H10X 4877   5.295   4.188   5.829  0.7459  0.4136 -0.5555
   38DOPE  C311 4878   5.477   4.064   5.873  0.5087 -0.5530  0.6698
   38DOPE  H11X 4879   5.504   3.965   5.831 -2.3558 -1.5488  0.9635
   38DOPE  H11Y 4880   5.570   4.124   5.882  0.1106  0.5436 -1.7931
   38DOPE  C312 4881   5.429   4.044   6.018  0.1114 -0.4657  0.2559
   38DOPE  H12X 4882   5.407   4.142   6.065  1.3567 -0.1170  0.1425
   38DOPE  H12Y 4883   5.525   4.009   6.061 -0.3814 -0.8114  1.1017
   38DOPE  C313 4884   5.309   3.949   6.025  0.4169  0.2094  0.6780
   38DOPE  H13X 4885   5.227   3.982   5.956  1.3078 -0.7324 -0.9009
   38DOPE  H13Y 4886   5.328   3.844   5.996  0.9567 -0.1184  2.1388
   38DOPE  C314 4887   5.242   3.940   6.164 -0.1023  0.1817  0.4761
   38DOPE  H14X 4888   5.180   4.029   6.188 -0.2910 -0.0570  0.8862
   38DOPE  H14Y 4889   5.328   3.926   6.233  0.7030 -0.2636 -0.5857
   38DOPE  C315 4890   5.149   3.814   6.176 -0.3200  0.5368 -0.0744
   38DOPE  H15X 4891   5.213   3.723   6.175  0.0095  0.7707 -0.4012
   38DOPE  H15Y 4892   5.076   3.816   6.093 -0.3631 -0.5794 -0.0805
   38DOPE  C316 4893   5.063   3.816   6.305 -0.6586 -0.5005 -0.3716
   38DOPE  H16X 4894   5.007   3.720   6.307 -1.4275 -0.0746  1.6358
   38DOPE  H16Y 4895   4.995   3.903   6.287 -1.6673 -1.5968 -2.1601
   38DOPE  C317 4896   5.142   3.835   6.434 -0.2463 -0.4057  0.0519
   38DOPE  H17X 4897   5.205   3.748   6.463  0.2553 -0.7203 -1.8500
   38DOPE  H17Y 4898   5.226   3.905   6.417  0.0937 -1.1968 -1.6766
   38DOPE  C318 4899   5.056   3.880   6.551 -0.1018 -0.1373  0.4321
   38DOPE  H18X 4900   4.977   3.808   6.580  0.1054 -0.4524  0.2203
   38DOPE  H18Y 4901   5.118   3.895   6.642  0.0443  0.4701  0.2413
   38DOPE  H18Z 4902   5.013   3.980   6.529  0.3503 -0.2702 -1.1466
   39DOPE     N 4903   3.321   5.584   4.431  0.4201 -0.6043  0.2486
   39DOPE   HN1 4904   3.376   5.522   4.494  1.6082  0.9598  0.8017
   39DOPE   HN2 4905   3.342   5.560   4.332 -0.2565 -1.5851  0.3254
   39DOPE   HN3 4906   3.351   5.681   4.451 -2.3575  0.5552 -0.7512
   39DOPE   C12 4907   3.169   5.576   4.473 -0.8830 -0.8064  0.2718
   39DOPE  H12A 4908   3.171   5.588   4.583  2.5289 -1.3468  0.3864
   39DOPE  H12B 4909   3.152   5.468   4.453 -0.9052 -0.6225 -0.7300
   39DOPE   C11 4910   3.071   5.665   4.391  0.4156  0.0090  0.4219
   39DOPE  H11A 4911   3.106   5.646   4.287  2.0348  2.3698  0.4589
   39DOPE  H11B 4912   3.081   5.774   4.411 -0.9878  0.4182 -0.9707
   39DOPE     P 4913   2.829   5.710   4.488  0.1838 -0.0208  0.0341
   39DOPE   O13 4914   2.886   5.729   4.624 -0.2400 -0.0999  0.3038
   39DOPE   O14 4915   2.696   5.646   4.480  0.1162 -0.4380  0.1110
   39DOPE   O11 4916   2.835   5.846   4.405  0.3561  0.3441 -0.0028
   39DOPE   O12 4917   2.927   5.628   4.391  0.3978 -0.0077  0.1626
   39DOPE    C1 4918   2.861   5.975   4.463 -0.4868  0.3152  0.0117
   39DOPE    HA 4919   2.904   6.038   4.382  0.4150 -1.5645 -1.0349
   39DOPE    HB 4920   2.936   5.966   4.545  1.4423  2.7573 -1.3225
   39DOPE    C2 4921   2.732   6.033   4.522  0.4910  0.5608 -0.7640
   39DOPE    HS 4922   2.745   6.142   4.543 -0.2230  0.1789  2.0320
   39DOPE   O21 4923   2.687   5.976   4.652 -0.2106 -0.4035 -0.4458
   39DOPE   C21 4924   2.768   6.017   4.751  1.0458 -0.5509  0.1090
   39DOPE   O22 4925   2.864   6.091   4.743  0.0682 -0.5308 -0.2044
   39DOPE   C22 4926   2.728   5.939   4.876  0.2203  0.5387 -0.0866
   39DOPE   H2R 4927   2.751   5.834   4.849  1.4193  1.1188 -1.4618
   39DOPE   H2S 4928   2.618   5.955   4.882  0.0197 -0.3786 -1.0492
   39DOPE    C3 4929   2.610   6.013   4.424 -0.0139 -0.5995 -0.3841
   39DOPE    HX 4930   2.602   5.903   4.413  0.1752 -0.5741 -0.7872
   39DOPE    HY 4931   2.627   6.058   4.324 -0.6015 -0.2713 -0.3424
   39DOPE   O31 4932   2.500   6.077   4.483  0.0788 -0.1354  0.2281
   39DOPE   C31 4933   2.397   6.012   4.540  0.1931  0.0777 -0.2403
   39DOPE   O32 4934   2.380   5.890   4.546  0.2602  0.4302 -0.2339
   39DOPE   C32 4935   2.330   6.115   4.623  0.9112 -0.3658  0.3278
   39DOPE   H2X 4936   2.409   6.152   4.691 -0.7388 -0.0096  2.1190
   39DOPE   H2Y 4937   2.291   6.194   4.555  0.1619 -0.8297  0.2068
   39DOPE   C23 4938   2.797   5.998   4.998  0.2224 -0.0265 -0.3343
   39DOPE   H3R 4939   2.756   6.100   5.017 -0.3569 -0.1538 -0.8982
   39DOPE   H3S 4940   2.903   6.014   4.969  0.4691 -1.0237 -0.0131
   39DOPE   C24 4941   2.765   5.914   5.131  0.8571  0.1410 -0.2341
   39DOPE   H4R 4942   2.791   5.809   5.108 -0.4212 -0.4138  0.7743
   39DOPE   H4S 4943   2.654   5.922   5.130  0.6086 -2.4285  0.8502
   39DOPE   C25 4944   2.826   5.979   5.260  0.0768 -0.0129 -0.1030
   39DOPE   H5R 4945   2.800   6.086   5.274  2.2442  0.2901  2.5796
   39DOPE   H5S 4946   2.934   5.983   5.234 -0.2289 -0.9582 -1.6020
   39DOPE   C26 4947   2.783   5.910   5.395 -0.5166  0.0375  0.1939
   39DOPE   H6R 4948   2.672   5.913   5.401 -0.5557 -2.1254  1.4837
   39DOPE   H6S 4949   2.817   5.964   5.486 -0.2875  1.4514 -0.6959
   39DOPE   C27 4950   2.829   5.768   5.406  0.9073  0.3933  0.4510
   39DOPE   H7R 4951   2.932   5.760   5.366  0.7118  0.2456 -0.0210
   39DOPE   H7S 4952   2.767   5.710   5.334  1.5193  0.8424 -0.4458
   39DOPE   C28 4953   2.821   5.709   5.546 -0.2988  0.4019 -0.1489
   39DOPE   H8R 4954   2.878   5.770   5.618  1.5935 -0.8575 -0.5120
   39DOPE   H8S 4955   2.874   5.611   5.541  0.0535  0.5872  0.0113
   39DOPE   C29 4956   2.678   5.692   5.588  0.3378 -0.3483 -0.1173
   39DOPE   H9R 4957   2.624   5.623   5.522  2.2237 -0.5707 -1.4882
   39DOPE  C210 4958   2.620   5.739   5.696  0.6403  0.4638 -0.0381
   39DOPE  H10R 4959   2.515   5.709   5.710  0.6520  0.7843  0.8083
   39DOPE  C211 4960   2.681   5.808   5.809 -0.1362 -0.7363  0.2685
   39DOPE  H11R 4961   2.639   5.910   5.819  1.6567  0.0471  0.1932
   39DOPE  H11S 4962   2.791   5.815   5.797 -0.2557 -2.6634 -3.4797
   39DOPE  C212 4963   2.649   5.741   5.939 -0.0228  0.3284 -0.4041
   39DOPE  H12R 4964   2.540   5.724   5.951 -0.0009  0.8671  0.5937
   39DOPE  H12S 4965   2.681   5.802   6.026  0.0828 -1.2657  0.7243
   39DOPE  C213 4966   2.734   5.615   5.953 -0.6181  0.0623  0.3684
   39DOPE  H13R 4967   2.833   5.648   5.913 -0.6376 -1.2988 -0.8894
   39DOPE  H13S 4968   2.711   5.527   5.890 -0.1569 -0.2218  0.5865
   39DOPE  C214 4969   2.729   5.571   6.097  0.4361  0.3703 -0.2165
   39DOPE  H14R 4970   2.750   5.659   6.162 -1.3862  0.3417  0.4464
   39DOPE  H14S 4971   2.818   5.507   6.118 -0.4851 -1.1003 -0.6509
   39DOPE  C215 4972   2.593   5.501   6.135  0.2792 -0.5963  0.3345
   39DOPE  H15R 4973   2.611   5.397   6.099 -0.7065 -0.3372 -0.9906
   39DOPE  H15S 4974   2.503   5.549   6.092  0.4637 -1.6124 -1.2869
   39DOPE  C216 4975   2.571   5.482   6.286  0.0235 -0.3281 -0.2630
   39DOPE  H16R 4976   2.578   5.575   6.346 -1.1207 -0.8173  0.6537
   39DOPE  H16S 4977   2.654   5.416   6.320  0.5321  0.4394  0.0190
   39DOPE  C217 4978   2.436   5.412   6.316  0.4446 -0.3244  0.2294
   39DOPE  H17R 4979   2.431   5.360   6.414  0.8577  1.4810  1.2369
   39DOPE  H17S 4980   2.413   5.329   6.245  0.6429  1.0233 -1.4700
   39DOPE  C218 4981   2.309   5.504   6.304 -0.1954 -0.1074  0.2524
   39DOPE  H18R 4982   2.319   5.588   6.376  0.1835 -0.6172  0.8119
   39DOPE  H18S 4983   2.216   5.446   6.320  0.5930 -1.2003  1.0554
   39DOPE  H18T 4984   2.307   5.541   6.200 -2.4391 -0.3468  0.1761
   39DOPE   C33 4985   2.214   6.063   4.707  0.3622  0.7764  0.1607
   39DOPE   H3X 4986   2.255   5.987   4.777  1.4997  2.0601  0.9575
   39DOPE   H3Y 4987   2.126   6.024   4.651 -1.1926  1.1279  2.2272
   39DOPE   C34 4988   2.154   6.163   4.800  0.3126 -0.6998 -0.9060
   39DOPE   H4X 4989   2.238   6.200   4.862 -0.8112  0.8860 -0.2495
   39DOPE   H4Y 4990   2.114   6.244   4.734  0.8014  0.7042  0.4687
   39DOPE   C35 4991   2.039   6.112   4.885  0.5228 -0.2295 -0.7990
   39DOPE   H5X 4992   1.956   6.092   4.813 -0.7141  3.5277 -0.6522
   39DOPE   H5Y 4993   1.998   6.197   4.945 -1.2150 -0.4354 -1.6410
   39DOPE   C36 4994   2.091   5.990   4.964  0.7740  0.3907 -0.2707
   39DOPE   H6X 4995   2.197   6.010   4.988  0.4544  0.7566  0.9012
   39DOPE   H6Y 4996   2.089   5.910   4.886 -1.0020 -0.1877  0.3193
   39DOPE   C37 4997   1.999   5.964   5.089 -0.2399  0.1952 -0.1010
   39DOPE   H7X 4998   2.011   6.047   5.163 -1.1364  0.2232  0.0232
   39DOPE   H7Y 4999   1.894   5.962   5.053 -0.1743  1.4443 -0.4123
   39DOPE   C38 5000   2.032   5.837   5.171  0.1210  0.6938  0.0064
   39DOPE   H8X 5001   1.999   5.846   5.277  0.6285 -0.0321  0.2423
   39DOPE   H8Y 5002   2.142   5.821   5.181  0.1896  2.2584  2.6500
   39DOPE   C39 5003   1.974   5.713   5.116 -0.0230  0.3956  0.4247
   39DOPE   H9X 5004   1.873   5.690   5.153  0.1460  2.7444  2.6145
   39DOPE  C310 5005   2.047   5.615   5.053  0.9943 -0.5197  0.8757
   39DOPE  H10X 5006   1.998   5.527   5.008  0.7987  1.0766 -2.3053
   39DOPE  C311 5007   2.191   5.615   5.017 -0.4147 -0.0401  0.4576
   39DOPE  H11X 5008   2.212   5.555   4.926 -1.0578 -0.4476  0.5673
   39DOPE  H11Y 5009   2.217   5.717   4.982 -1.0468 -0.0316 -0.0094
   39DOPE  C312 5010   2.275   5.567   5.136  0.6075  0.4343 -0.3703
   39DOPE  H12X 5011   2.251   5.639   5.216 -1.0212 -0.6430  0.1587
   39DOPE  H12Y 5012   2.384   5.577   5.113  1.1101 -0.6184  1.3958
   39DOPE  C313 5013   2.241   5.420   5.180 -0.2253 -0.6777  0.2430
   39DOPE  H13X 5014   2.152   5.438   5.245 -0.3857 -0.8049  0.0613
   39DOPE  H13Y 5015   2.206   5.350   5.101  0.7870 -1.7979  0.7420
   39DOPE  C314 5016   2.361   5.357   5.252 -0.4553  0.1328 -0.4831
   39DOPE  H14X 5017   2.456   5.377   5.198  0.1083  0.1265  0.4825
   39DOPE  H14Y 5018   2.343   5.248   5.264 -1.2980  0.0644 -2.0944
   39DOPE  C315 5019   2.388   5.415   5.395  0.3622  0.0185  0.2010
   39DOPE  H15X 5020   2.423   5.519   5.381 -0.1509  0.2286  0.4788
   39DOPE  H15Y 5021   2.480   5.370   5.440  1.2877  1.7380  0.0912
   39DOPE  C316 5022   2.272   5.405   5.492  0.0026 -0.6783 -0.4016
   39DOPE  H16X 5023   2.205   5.319   5.468 -0.1405 -0.4490 -0.8303
   39DOPE  H16Y 5024   2.222   5.503   5.484 -2.0124 -1.5161  0.9835
   39DOPE  C317 5025   2.324   5.407   5.640  0.6772  0.7780  0.3717
   39DOPE  H17X 5026   2.382   5.312   5.646 -1.7211 -0.7762  0.2567
   39DOPE  H17Y 5027   2.400   5.488   5.644 -0.5959  1.9770  0.8053
   39DOPE  C318 5028   2.218   5.406   5.747  0.6990 -0.6832  0.3257
   39DOPE  H18X 5029   2.150   5.494   5.754  0.3862 -1.0236  1.9688
   39DOPE  H18Y 5030   2.151   5.318   5.733  1.3075 -0.8242 -2.2274
   39DOPE  H18Z 5031   2.267   5.391   5.846  1.6854  0.9669  0.1242
   40DOPE     N 5032   4.388   6.075   4.560  0.3300 -0.1185 -0.3432
   40DOPE   HN1 5033   4.286   6.065   4.578 -0.6775  1.9489 -3.9392
   40DOPE   HN2 5034   4.414   6.021   4.475  1.6562 -1.7247  1.0036
   40DOPE   HN3 5035   4.441   6.027   4.635  0.4612  0.8695  0.2072
   40DOPE   C12 5036   4.414   6.219   4.543  0.0880 -0.5275  0.1757
   40DOPE  H12A 5037   4.370   6.256   4.447  0.8667  0.0412  0.0312
   40DOPE  H12B 5038   4.524   6.232   4.537 -0.1692  1.3959 -1.8642
   40DOPE   C11 5039   4.352   6.309   4.656 -0.3694  0.2740 -0.3335
   40DOPE  H11A 5040   4.404   6.407   4.658 -0.7331  0.4623  0.0336
   40DOPE  H11B 5041   4.356   6.264   4.758  0.3523  1.1631  0.0506
   40DOPE     P 5042   4.094   6.281   4.660  0.2715  0.1299  0.0765
   40DOPE   O13 5043   4.111   6.136   4.660 -0.2634  0.0316  0.2102
   40DOPE   O14 5044   3.984   6.336   4.573  0.3093  0.1261  0.7970
   40DOPE   O11 5045   4.071   6.342   4.809 -0.4169 -0.0298  0.3641
   40DOPE   O12 5046   4.227   6.343   4.615 -0.4297  0.5650  0.2376
   40DOPE    C1 5047   4.096   6.475   4.840  0.2916 -0.2704 -0.3869
   40DOPE    HA 5048   4.021   6.510   4.914  2.3331  2.1612  0.6934
   40DOPE    HB 5049   4.081   6.545   4.756 -2.0404 -0.1410  0.0570
   40DOPE    C2 5050   4.233   6.492   4.925  0.2362  0.2628 -0.3427
   40DOPE    HS 5051   4.315   6.481   4.851  1.2254 -0.3415  0.8216
   40DOPE   O21 5052   4.242   6.381   5.018 -0.1866 -0.3655 -0.1104
   40DOPE   C21 5053   4.363   6.361   5.070 -0.0616  0.0946  0.1956
   40DOPE   O22 5054   4.464   6.430   5.060  0.5661 -0.0984  0.0307
   40DOPE   C22 5055   4.367   6.222   5.129 -0.0875 -0.2125  0.7066
   40DOPE   H2R 5056   4.429   6.163   5.058  0.7536 -0.3008  1.4888
   40DOPE   H2S 5057   4.264   6.180   5.131  0.3104 -1.1840  2.0673
   40DOPE    C3 5058   4.235   6.627   4.998 -0.2503 -0.3658 -0.3449
   40DOPE    HX 5059   4.208   6.696   4.915  1.3072 -1.7167 -2.0710
   40DOPE    HY 5060   4.330   6.663   5.041 -0.0870 -0.8677 -0.2752
   40DOPE   O31 5061   4.130   6.626   5.102 -0.1105  0.2066  0.5995
   40DOPE   C31 5062   4.159   6.606   5.226 -0.3000  0.5255 -0.1746
   40DOPE   O32 5063   4.276   6.600   5.266 -0.1131 -0.2921  0.2962
   40DOPE   C32 5064   4.042   6.581   5.317  0.7692  0.2609  0.1977
   40DOPE   H2X 5065   3.958   6.629   5.261  1.0785  0.8568  0.2429
   40DOPE   H2Y 5066   4.018   6.472   5.319 -2.7457  0.8971 -0.5744
   40DOPE   C23 5067   4.422   6.211   5.275  0.5460 -1.0362  0.0370
   40DOPE   H3R 5068   4.521   6.261   5.271  0.5046 -0.8256  1.2564
   40DOPE   H3S 5069   4.444   6.103   5.294 -0.8305 -1.5498 -1.0714
   40DOPE   C24 5070   4.319   6.259   5.381 -0.3717  0.2594 -0.4968
   40DOPE   H4R 5071   4.228   6.196   5.368  0.0794 -0.9093  1.5714
   40DOPE   H4S 5072   4.288   6.365   5.370 -0.3989  0.2448 -0.5632
   40DOPE   C25 5073   4.363   6.258   5.526 -0.6251  0.6752  0.1199
   40DOPE   H5R 5074   4.451   6.326   5.538  0.1302 -0.3962  0.8886
   40DOPE   H5S 5075   4.402   6.160   5.559 -3.7036  0.0828  2.3578
   40DOPE   C26 5076   4.257   6.300   5.623  0.2122 -0.4025  0.0018
   40DOPE   H6R 5077   4.156   6.258   5.603 -0.2623  0.4881  0.4699
   40DOPE   H6S 5078   4.258   6.410   5.615 -0.8527 -0.2598  1.4444
   40DOPE   C27 5079   4.294   6.272   5.768 -0.1170  0.5718 -0.0913
   40DOPE   H7R 5080   4.401   6.301   5.781  0.0886 -0.4930  0.7513
   40DOPE   H7S 5081   4.283   6.162   5.782  0.5126  0.4704 -0.3157
   40DOPE   C28 5082   4.200   6.340   5.874 -0.6233 -0.3203 -0.6407
   40DOPE   H8R 5083   4.109   6.276   5.878  0.7915 -2.4644 -1.1226
   40DOPE   H8S 5084   4.188   6.446   5.844 -1.6626  0.1227  1.1850
   40DOPE   C29 5085   4.264   6.337   6.009 -0.5836 -0.5142  0.6713
   40DOPE   H9R 5086   4.374   6.340   6.003 -0.6024  3.1701 -0.2190
   40DOPE  C210 5087   4.204   6.347   6.124  0.0292 -0.1211 -0.4729
   40DOPE  H10R 5088   4.265   6.362   6.214  1.0343 -1.0806 -0.9653
   40DOPE  C211 5089   4.051   6.354   6.136 -0.2436 -0.1243  0.1446
   40DOPE  H11R 5090   4.023   6.288   6.221  2.2701 -0.9266  0.4217
   40DOPE  H11S 5091   3.995   6.318   6.047  0.9522 -0.0716 -0.6556
   40DOPE  C212 5092   3.989   6.494   6.157 -0.0080 -0.2039  0.2554
   40DOPE  H12R 5093   3.879   6.477   6.150  0.0966 -0.2140 -1.8323
   40DOPE  H12S 5094   4.012   6.562   6.073 -2.7145  1.9173  1.0845
   40DOPE  C213 5095   4.025   6.555   6.294 -0.3776 -1.0166  0.2753
   40DOPE  H13R 5096   4.136   6.560   6.296 -0.4205  0.4940  2.6963
   40DOPE  H13S 5097   3.991   6.492   6.379 -0.6943 -0.6269  0.4415
   40DOPE  C214 5098   3.973   6.697   6.282  0.0251  0.7697 -0.3751
   40DOPE  H14R 5099   3.875   6.695   6.229 -0.6556 -0.7778  0.8487
   40DOPE  H14S 5100   4.046   6.747   6.214  2.0578 -2.0246 -0.3948
   40DOPE  C215 5101   3.969   6.774   6.417  0.3403  0.6137 -0.1335
   40DOPE  H15R 5102   3.906   6.720   6.490  0.2222  1.5206  0.4660
   40DOPE  H15S 5103   3.917   6.872   6.409 -1.5428 -0.4111 -0.8251
   40DOPE  C216 5104   4.111   6.786   6.483  1.0242  0.2306 -0.7508
   40DOPE  H16R 5105   4.183   6.843   6.421  1.6277  1.9536  1.3986
   40DOPE  H16S 5106   4.148   6.683   6.504 -0.0175  0.2651  1.5222
   40DOPE  C217 5107   4.104   6.852   6.616  0.0325 -0.5192 -0.3859
   40DOPE  H17R 5108   4.107   6.772   6.693 -2.2601 -0.3106 -0.0086
   40DOPE  H17S 5109   4.006   6.903   6.607 -1.1732 -2.8430 -1.3728
   40DOPE  C218 5110   4.227   6.945   6.633  0.2615 -0.0516 -0.3333
   40DOPE  H18R 5111   4.324   6.904   6.599  1.3643  1.8056  0.3963
   40DOPE  H18S 5112   4.240   6.962   6.742  1.2386 -3.0986  0.1197
   40DOPE  H18T 5113   4.216   7.042   6.579 -0.9168 -0.6359 -1.1734
   40DOPE   C33 5114   4.061   6.640   5.462  0.1868 -0.3994  0.2620
   40DOPE   H3X 5115   4.120   6.734   5.455 -0.5915  0.1109  0.3345
   40DOPE   H3Y 5116   4.106   6.556   5.518 -0.2659 -2.9802 -2.9706
   40DOPE   C34 5117   3.923   6.672   5.534 -0.6917  0.4374  0.2724
   40DOPE   H4X 5118   3.895   6.771   5.494  2.5196  0.6583 -1.7178
   40DOPE   H4Y 5119   3.852   6.596   5.495  1.3000 -0.4487 -1.8585
   40DOPE   C35 5120   3.918   6.665   5.683 -0.5376 -0.1881  0.0316
   40DOPE   H5X 5121   4.016   6.680   5.734 -0.4124  0.8840 -0.4977
   40DOPE   H5Y 5122   3.896   6.557   5.701  0.5573 -0.6928 -1.4311
   40DOPE   C36 5123   3.817   6.757   5.755 -0.1977  0.1785  0.0613
   40DOPE   H6X 5124   3.716   6.717   5.729 -0.9278  1.5068  0.7362
   40DOPE   H6Y 5125   3.837   6.862   5.725  0.4665  0.0897  0.1773
   40DOPE   C37 5126   3.832   6.750   5.908  0.3586  0.7872 -0.3195
   40DOPE   H7X 5127   3.814   6.642   5.929 -0.7745  0.5969 -2.0774
   40DOPE   H7Y 5128   3.933   6.775   5.945  1.4637 -0.5671 -2.2236
   40DOPE   C38 5129   3.721   6.836   5.974 -0.3318  0.1144  0.4528
   40DOPE   H8X 5130   3.723   6.932   5.919  2.4685  0.7535  1.4891
   40DOPE   H8Y 5131   3.762   6.870   6.072  1.4422  0.9568 -0.5304
   40DOPE   C39 5132   3.582   6.785   5.973 -0.7007 -0.9862  0.3509
   40DOPE   H9X 5133   3.550   6.715   5.893 -2.4987 -0.4649  0.5808
   40DOPE  C310 5134   3.489   6.804   6.069  0.5791  0.4474  0.5369
   40DOPE  H10X 5135   3.393   6.758   6.043 -0.4176  3.4600 -1.6353
   40DOPE  C311 5136   3.489   6.887   6.193 -0.0597  0.3956 -0.3938
   40DOPE  H11X 5137   3.555   6.973   6.171  0.5751 -0.2417 -1.0406
   40DOPE  H11Y 5138   3.389   6.934   6.206  1.8428  4.2959  2.1173
   40DOPE  C312 5139   3.526   6.801   6.318  0.3458  0.2573 -0.5727
   40DOPE  H12X 5140   3.608   6.734   6.286  0.8944  0.3562  0.5911
   40DOPE  H12Y 5141   3.444   6.738   6.359  1.1786  0.5597  1.6989
   40DOPE  C313 5142   3.591   6.892   6.421  0.4870  0.2762  0.8320
   40DOPE  H13X 5143   3.668   6.957   6.374 -0.3792  0.6440 -0.1053
   40DOPE  H13Y 5144   3.518   6.965   6.463  0.3273 -0.6598  2.2287
   40DOPE  C314 5145   3.642   6.819   6.541 -0.1496 -0.1245  0.1743
   40DOPE  H14X 5146   3.706   6.733   6.512 -0.8492 -0.4012 -0.5624
   40DOPE  H14Y 5147   3.557   6.777   6.599 -0.4947 -0.1214 -0.3291
   40DOPE  C315 5148   3.731   6.914   6.626  0.5555  0.4692  0.3632
   40DOPE  H15X 5149   3.665   7.002   6.644 -3.2209 -2.1411  0.6128
   40DOPE  H15Y 5150   3.814   6.950   6.562 -0.3941  0.7738 -0.7246
   40DOPE  C316 5151   3.776   6.853   6.756  0.4615  0.4690 -0.0422
   40DOPE  H16X 5152   3.842   6.765   6.743 -1.2705 -0.6084 -2.1844
   40DOPE  H16Y 5153   3.685   6.825   6.814 -1.3993  1.3224 -2.3920
   40DOPE  C317 5154   3.838   6.974   6.831  0.2290  0.4037  0.3025
   40DOPE  H17X 5155   3.935   7.001   6.784 -0.6481  0.1954 -1.7256
   40DOPE  H17Y 5156   3.771   7.062   6.831 -1.5938 -0.9190  0.5816
   40DOPE  C318 5157   3.856   6.934   6.983 -0.2688  0.6546 -0.0947
   40DOPE  H18X 5158   3.932   6.853   6.990 -1.1304 -0.0517  2.1715
   40DOPE  H18Y 5159   3.885   7.026   7.039 -0.8102  1.1060 -0.5457
   40DOPE  H18Z 5160   3.758   6.896   7.018  0.9273 -1.2457  1.4322
   41DOPE     N 5161   2.948   7.255   4.770  0.1058  0.0565 -0.1750
   41DOPE   HN1 5162   2.902   7.309   4.694  0.5529 -0.3456 -0.7421
   41DOPE   HN2 5163   2.914   7.288   4.863  4.0218 -0.2640  1.5749
   41DOPE   HN3 5164   3.050   7.269   4.759  0.1402  0.3013  0.4222
   41DOPE   C12 5165   2.929   7.103   4.760  0.0314  0.1679 -0.0091
   41DOPE  H12A 5166   2.824   7.083   4.733  0.0205  0.9606 -0.5998
   41DOPE  H12B 5167   2.947   7.051   4.857  0.5218 -3.2520 -1.7669
   41DOPE   C11 5168   3.013   7.049   4.643 -0.0380  0.0391 -0.2794
   41DOPE  H11A 5169   2.973   7.088   4.547  0.8098 -0.0084 -0.6652
   41DOPE  H11B 5170   3.000   6.939   4.647  0.4756 -0.0411 -0.6250
   41DOPE     P 5171   3.260   6.976   4.717 -0.0401  0.1857 -0.2890
   41DOPE   O13 5172   3.390   7.017   4.655  0.4584 -0.5296  0.0853
   41DOPE   O14 5173   3.222   6.833   4.686  0.2927 -0.0221 -0.0239
   41DOPE   O11 5174   3.263   7.002   4.871  0.2633 -0.3491  0.1252
   41DOPE   O12 5175   3.152   7.081   4.661 -0.2706  0.6521  0.0691
   41DOPE    C1 5176   3.339   7.126   4.903  0.3012 -0.4806 -0.1489
   41DOPE    HA 5177   3.282   7.218   4.881  1.9791  1.4282  2.8299
   41DOPE    HB 5178   3.437   7.130   4.852 -0.5685 -1.5576 -2.0137
   41DOPE    C2 5179   3.369   7.143   5.060 -0.2799 -0.4669 -0.0881
   41DOPE    HS 5180   3.424   7.240   5.069  0.8427 -1.0455 -0.5316
   41DOPE   O21 5181   3.445   7.032   5.117 -0.1766 -0.3256 -0.2710
   41DOPE   C21 5182   3.576   7.046   5.097 -0.4349  0.0303  0.1438
   41DOPE   O22 5183   3.627   7.141   5.046 -0.0058 -0.6620 -0.2450
   41DOPE   C22 5184   3.642   6.920   5.134 -0.7260 -0.8237  0.5349
   41DOPE   H2R 5185   3.740   6.914   5.081 -1.4105 -1.5418 -0.6896
   41DOPE   H2S 5186   3.581   6.834   5.101 -2.5855  0.3976  0.6762
   41DOPE    C3 5187   3.233   7.157   5.134  0.4600  0.2209  0.8440
   41DOPE    HX 5188   3.172   7.064   5.130  1.0044 -0.1989  1.8748
   41DOPE    HY 5189   3.169   7.224   5.074  0.1265 -0.1030  0.8300
   41DOPE   O31 5190   3.245   7.192   5.274  0.2650 -0.0677  0.0276
   41DOPE   C31 5191   3.140   7.244   5.320 -0.0091 -0.7757 -0.3772
   41DOPE   O32 5192   3.039   7.273   5.257  0.1595  0.4421  0.0852
   41DOPE   C32 5193   3.153   7.254   5.471 -0.5203 -0.2294  0.1705
   41DOPE   H2X 5194   3.202   7.159   5.501  0.1180 -0.6846 -2.1577
   41DOPE   H2Y 5195   3.213   7.343   5.499 -1.4197  0.3688  0.2509
   41DOPE   C23 5196   3.668   6.915   5.287 -0.6553 -0.4588 -0.7998
   41DOPE   H3R 5197   3.739   6.995   5.316  0.5856 -1.0265 -2.1154
   41DOPE   H3S 5198   3.711   6.813   5.302 -0.3593 -0.0888  1.1982
   41DOPE   C24 5199   3.539   6.914   5.371  0.4705  0.4631  0.4239
   41DOPE   H4R 5200   3.475   6.835   5.327  1.3650 -2.0975  3.3675
   41DOPE   H4S 5201   3.478   7.007   5.379 -0.8630 -0.4498  1.2443
   41DOPE   C25 5202   3.569   6.852   5.509 -0.5262 -0.3416 -0.2429
   41DOPE   H5R 5203   3.637   6.920   5.566 -0.9940 -1.1627  1.3495
   41DOPE   H5S 5204   3.621   6.755   5.493  1.3686  0.2587  1.6541
   41DOPE   C26 5205   3.451   6.807   5.600 -0.5124  0.4863  0.3288
   41DOPE   H6R 5206   3.488   6.724   5.663  0.3853 -0.0015 -0.7943
   41DOPE   H6S 5207   3.381   6.758   5.529  2.6035 -2.6149 -0.9295
   41DOPE   C27 5208   3.381   6.929   5.669  0.5322  0.6937 -0.6389
   41DOPE   H7R 5209   3.346   6.998   5.590 -0.1088 -0.0434 -1.0067
   41DOPE   H7S 5210   3.460   6.982   5.726  1.4508 -1.3436  0.1014
   41DOPE   C28 5211   3.267   6.885   5.761  0.5176 -0.2174  0.2227
   41DOPE   H8R 5212   3.252   6.974   5.825  1.0429 -0.8981  1.3422
   41DOPE   H8S 5213   3.300   6.805   5.831  2.0640  1.7379  1.8589
   41DOPE   C29 5214   3.138   6.850   5.695 -0.1928  0.3425 -0.3472
   41DOPE   H9R 5215   3.079   6.933   5.653  0.1042 -0.4454 -2.4527
   41DOPE  C210 5216   3.094   6.723   5.673  0.3953 -0.1249 -0.2973
   41DOPE  H10R 5217   2.999   6.710   5.619  1.6139 -1.7153 -2.1722
   41DOPE  C211 5218   3.175   6.598   5.702 -0.4317 -0.1524 -0.5009
   41DOPE  H11R 5219   3.280   6.631   5.691 -0.8771  1.7054  0.4435
   41DOPE  H11S 5220   3.169   6.514   5.630 -0.3509 -0.9956  0.4472
   41DOPE  C212 5221   3.154   6.542   5.845 -0.3260 -0.1226  0.3779
   41DOPE  H12R 5222   3.178   6.626   5.914 -0.8031  0.4134 -0.0984
   41DOPE  H12S 5223   3.236   6.467   5.839  1.3159  1.6620 -0.8458
   41DOPE  C213 5224   3.016   6.478   5.861  1.0580 -0.5509  0.2720
   41DOPE  H13R 5225   3.014   6.368   5.847  2.3158 -0.4261 -1.1370
   41DOPE  H13S 5226   2.947   6.526   5.789  1.6068 -2.2971 -1.5089
   41DOPE  C214 5227   2.964   6.487   6.011 -0.0246  0.5554 -0.0906
   41DOPE  H14R 5228   2.890   6.406   6.027  1.5101 -0.4336  2.4784
   41DOPE  H14S 5229   2.914   6.585   6.026  0.8833  1.2070 -1.0996
   41DOPE  C215 5230   3.064   6.464   6.128 -0.3100 -0.4109  0.1947
   41DOPE  H15R 5231   3.117   6.558   6.156 -0.0577 -0.7896  1.0225
   41DOPE  H15S 5232   3.134   6.379   6.109 -1.8131 -2.1309  1.9436
   41DOPE  C216 5233   2.983   6.412   6.247 -0.4890  0.4846  0.6120
   41DOPE  H16R 5234   2.946   6.313   6.212  0.0726  0.1820  0.8534
   41DOPE  H16S 5235   2.899   6.483   6.263 -1.6839 -0.8713  0.5440
   41DOPE  C217 5236   3.050   6.411   6.381  0.0295  0.0242 -0.1074
   41DOPE  H17R 5237   3.140   6.345   6.378 -1.3685 -1.9776 -2.7357
   41DOPE  H17S 5238   2.987   6.353   6.451  1.1527  0.5500  1.4014
   41DOPE  C218 5239   3.085   6.552   6.443  0.3777  0.0677  0.3147
   41DOPE  H18R 5240   3.143   6.543   6.537  3.1889  2.8824 -0.9707
   41DOPE  H18S 5241   2.986   6.599   6.463  0.2117 -0.5127  0.9058
   41DOPE  H18T 5242   3.134   6.614   6.365 -0.1316  0.0685 -0.0096
   41DOPE   C33 5243   3.009   7.272   5.545 -0.8333  0.0791 -0.0446
   41DOPE   H3X 5244   2.960   7.173   5.551 -1.1265  0.2303  0.0912
   41DOPE   H3Y 5245   2.953   7.346   5.483 -1.3486 -0.5405 -0.3328
   41DOPE   C34 5246   3.028   7.324   5.686  0.0076 -0.0225  0.0392
   41DOPE   H4X 5247   3.065   7.429   5.682 -3.3901  1.2656 -1.1541
   41DOPE   H4Y 5248   2.937   7.328   5.749  0.5786 -3.0638  1.2094
   41DOPE   C35 5249   3.121   7.233   5.766 -0.1458 -0.2341 -0.0032
   41DOPE   H5X 5250   3.224   7.237   5.725 -0.1817 -0.9118 -0.1797
   41DOPE   H5Y 5251   3.087   7.127   5.766 -1.0822  0.0531  0.6056
   41DOPE   C36 5252   3.136   7.280   5.912  0.7341  0.6037 -0.7235
   41DOPE   H6X 5253   3.036   7.272   5.960 -0.0849  0.5807 -2.3628
   41DOPE   H6Y 5254   3.153   7.389   5.918  0.2685  0.6345  0.2350
   41DOPE   C37 5255   3.245   7.210   5.995  0.3482  0.3758  0.2037
   41DOPE   H7X 5256   3.211   7.220   6.101 -2.7060  0.6557 -0.6990
   41DOPE   H7Y 5257   3.236   7.102   5.970 -0.1346  0.2102  1.0657
   41DOPE   C38 5258   3.382   7.271   5.953  0.7796  0.6936 -0.7579
   41DOPE   H8X 5259   3.379   7.382   5.952  1.4889  0.7394  0.3281
   41DOPE   H8Y 5260   3.414   7.247   5.850  1.5008 -1.8120 -0.0214
   41DOPE   C39 5261   3.492   7.208   6.038  0.3940  0.2310  0.0796
   41DOPE   H9X 5262   3.501   7.101   6.015  0.9775  0.5413 -1.2175
   41DOPE  C310 5263   3.569   7.276   6.127  0.3632  0.5472  0.0211
   41DOPE  H10X 5264   3.643   7.214   6.181  2.2454  1.5637 -1.2734
   41DOPE  C311 5265   3.565   7.424   6.160  0.2584 -0.3378  0.6905
   41DOPE  H11X 5266   3.634   7.480   6.093 -0.2809  1.2663  1.4275
   41DOPE  H11Y 5267   3.467   7.470   6.133  0.6482 -0.3650 -0.9256
   41DOPE  C312 5268   3.616   7.442   6.300  0.1448  0.2606  0.9987
   41DOPE  H12X 5269   3.658   7.544   6.301 -1.9369  1.1915 -0.3073
   41DOPE  H12Y 5270   3.689   7.365   6.333  2.1720  1.5091 -0.4068
   41DOPE  C313 5271   3.501   7.436   6.402 -0.1973 -0.1572 -0.5454
   41DOPE  H13X 5272   3.441   7.528   6.386  2.2237  1.6334  0.0511
   41DOPE  H13Y 5273   3.446   7.340   6.400  0.0311 -0.3379  0.9218
   41DOPE  C314 5274   3.550   7.452   6.553  0.7917  0.3820  0.0105
   41DOPE  H14X 5275   3.613   7.543   6.559  0.4878  0.6556 -0.8424
   41DOPE  H14Y 5276   3.619   7.367   6.571  0.5987  0.4648  1.2137
   41DOPE  C315 5277   3.434   7.441   6.657  0.3274 -0.5980 -0.4359
   41DOPE  H15X 5278   3.468   7.437   6.763  1.3859 -0.4375 -0.7619
   41DOPE  H15Y 5279   3.388   7.341   6.641 -1.1878  0.2233 -1.5145
   41DOPE  C316 5280   3.315   7.543   6.640 -0.2156 -0.5297 -0.0136
   41DOPE  H16X 5281   3.264   7.526   6.543  1.3702 -2.0728 -0.6370
   41DOPE  H16Y 5282   3.355   7.647   6.641 -2.1872  0.2846  1.6594
   41DOPE  C317 5283   3.212   7.531   6.754 -1.1488  1.0341 -0.3086
   41DOPE  H17X 5284   3.169   7.429   6.753 -1.8482  1.3202 -0.2463
   41DOPE  H17Y 5285   3.268   7.532   6.850 -1.8892  0.0854  0.1498
   41DOPE  C318 5286   3.099   7.637   6.746  0.2873 -0.3393 -0.3544
   41DOPE  H18X 5287   3.010   7.617   6.810  1.0517 -0.8626  0.5873
   41DOPE  H18Y 5288   3.137   7.741   6.756 -0.1777 -0.2259  0.2988
   41DOPE  H18Z 5289   3.057   7.627   6.644 -0.8786  0.0245  0.0710
   42DOPE     N 5290   3.026   6.658   4.241 -0.1063 -0.0533 -0.5691
   42DOPE   HN1 5291   3.076   6.619   4.159  0.8897 -0.9421  0.4177
   42DOPE   HN2 5292   3.069   6.744   4.280 -1.1704  1.1478 -1.9619
   42DOPE   HN3 5293   3.031   6.574   4.303 -0.6834 -0.6027 -1.2445
   42DOPE   C12 5294   2.876   6.679   4.216 -0.7166 -0.2233 -0.1078
   42DOPE  H12A 5295   2.840   6.581   4.179 -0.5955 -0.6704  0.9426
   42DOPE  H12B 5296   2.868   6.755   4.135 -0.7253  0.0174  0.1168
   42DOPE   C11 5297   2.802   6.715   4.340 -0.1453 -0.4182  0.4040
   42DOPE  H11A 5298   2.696   6.728   4.309  0.1756  2.2334  0.2481
   42DOPE  H11B 5299   2.833   6.814   4.380 -1.1737  0.3792 -0.7162
   42DOPE     P 5300   2.712   6.620   4.561 -0.4194  0.0929 -0.0791
   42DOPE   O13 5301   2.606   6.718   4.535 -0.1848 -0.5107 -1.2710
   42DOPE   O14 5302   2.796   6.651   4.681  0.2334  0.0360 -0.3507
   42DOPE   O11 5303   2.649   6.475   4.579 -0.5632 -0.0853 -0.1277
   42DOPE   O12 5304   2.809   6.612   4.436 -0.0022 -0.7577 -0.3483
   42DOPE    C1 5305   2.519   6.447   4.628  0.2136  0.0294 -0.3258
   42DOPE    HA 5306   2.498   6.344   4.591  1.3902  0.3857 -2.0946
   42DOPE    HB 5307   2.447   6.516   4.579 -3.1675 -1.8205  1.6073
   42DOPE    C2 5308   2.500   6.464   4.786 -0.5594 -0.2093 -0.0176
   42DOPE    HS 5309   2.414   6.397   4.805 -0.3792 -1.4751 -2.9809
   42DOPE   O21 5310   2.482   6.606   4.831  0.0356 -0.3028  0.1999
   42DOPE   C21 5311   2.359   6.643   4.848 -0.3256  0.4809  0.1451
   42DOPE   O22 5312   2.260   6.573   4.841  0.3653  0.2912 -0.1481
   42DOPE   C22 5313   2.353   6.794   4.842 -0.2856  0.3711  0.0596
   42DOPE   H2R 5314   2.257   6.839   4.810  0.2671 -0.5176 -3.1472
   42DOPE   H2S 5315   2.400   6.814   4.743 -2.7783 -0.4488 -1.3682
   42DOPE    C3 5316   2.625   6.408   4.857 -0.7710  0.2551  0.1905
   42DOPE    HX 5317   2.709   6.478   4.838  0.7695 -1.7096 -0.4465
   42DOPE    HY 5318   2.652   6.309   4.815  1.2377  0.3055  1.2332
   42DOPE   O31 5319   2.606   6.396   5.000  0.1950  1.0235 -0.5240
   42DOPE   C31 5320   2.522   6.292   5.029 -0.5493 -1.2473  0.1081
   42DOPE   O32 5321   2.503   6.201   4.952  0.0154 -0.2591 -0.3639
   42DOPE   C32 5322   2.473   6.315   5.175  0.3815  0.9485  0.0634
   42DOPE   H2X 5323   2.533   6.247   5.240 -0.6528  0.2398  0.3059
   42DOPE   H2Y 5324   2.495   6.420   5.204 -1.9456  1.0540  1.6742
   42DOPE   C23 5325   2.417   6.866   4.961  0.0185  0.2136 -0.4118
   42DOPE   H3R 5326   2.452   6.970   4.945 -1.9122  1.2549  1.5506
   42DOPE   H3S 5327   2.507   6.807   4.989 -0.8105 -1.1369 -0.4929
   42DOPE   C24 5328   2.323   6.885   5.084  0.7100  0.3760 -1.0237
   42DOPE   H4R 5329   2.251   6.969   5.075  3.7783  3.4309  0.4865
   42DOPE   H4S 5330   2.396   6.902   5.166  1.5427 -3.4602 -0.7791
   42DOPE   C25 5331   2.250   6.752   5.131  0.0358  0.2592  0.4494
   42DOPE   H5R 5332   2.315   6.661   5.125  0.9801  0.6408  3.2337
   42DOPE   H5S 5333   2.168   6.737   5.058  0.4314 -1.1034  0.2563
   42DOPE   C26 5334   2.189   6.750   5.272 -0.1054 -0.1919 -0.3891
   42DOPE   H6R 5335   2.103   6.820   5.275 -0.9507 -1.1810 -0.8832
   42DOPE   H6S 5336   2.279   6.777   5.331  0.8418 -0.7652 -1.5155
   42DOPE   C27 5337   2.138   6.601   5.310 -0.1584 -0.6506 -0.4285
   42DOPE   H7R 5338   2.220   6.544   5.262 -1.0224  0.2873 -3.2082
   42DOPE   H7S 5339   2.049   6.584   5.246 -0.5979  0.7164 -0.2155
   42DOPE   C28 5340   2.126   6.584   5.459  0.6314  0.1847 -0.0318
   42DOPE   H8R 5341   2.077   6.663   5.518  1.1587  0.6748 -0.2366
   42DOPE   H8S 5342   2.230   6.569   5.497  0.3725 -4.7148 -0.6364
   42DOPE   C29 5343   2.054   6.456   5.465 -0.0880  0.6296  0.1238
   42DOPE   H9R 5344   1.998   6.427   5.375 -0.8843  0.8303  0.5441
   42DOPE  C210 5345   2.067   6.376   5.568  0.1536  0.1401 -0.4840
   42DOPE  H10R 5346   2.012   6.281   5.570  0.6240 -0.1680 -1.6699
   42DOPE  C211 5347   2.169   6.393   5.676 -0.1186 -0.2556 -0.4277
   42DOPE  H11R 5348   2.251   6.468   5.663  0.0827 -0.3747  0.1081
   42DOPE  H11S 5349   2.223   6.297   5.685 -0.0211 -0.3072 -1.4965
   42DOPE  C212 5350   2.103   6.419   5.809 -0.6437 -0.1156 -0.5917
   42DOPE  H12R 5351   2.029   6.337   5.824 -0.4890 -0.5761 -2.1424
   42DOPE  H12S 5352   2.052   6.517   5.815 -0.1174  0.0839  1.2025
   42DOPE  C213 5353   2.195   6.422   5.936 -0.1479 -0.4617 -0.1577
   42DOPE  H13R 5354   2.298   6.452   5.907 -0.9494  1.4057 -1.2064
   42DOPE  H13S 5355   2.215   6.318   5.972  1.7151  0.4840  1.7394
   42DOPE  C214 5356   2.146   6.514   6.048 -0.6823 -0.7483 -0.4441
   42DOPE  H14R 5357   2.163   6.618   6.016  1.4372 -0.8215  0.2654
   42DOPE  H14S 5358   2.215   6.506   6.135 -1.1722 -0.1960  0.0043
   42DOPE  C215 5359   2.001   6.511   6.088 -0.1274 -0.1365 -0.0424
   42DOPE  H15R 5360   1.971   6.406   6.111  1.1330  0.1219  3.3648
   42DOPE  H15S 5361   1.953   6.546   5.995  2.6210  0.4804 -1.3181
   42DOPE  C216 5362   1.955   6.607   6.200 -0.0923 -0.3441  0.2185
   42DOPE  H16R 5363   1.999   6.702   6.162 -2.0527 -0.1557 -1.8117
   42DOPE  H16S 5364   2.002   6.580   6.296  1.2573  1.5696  0.1561
   42DOPE  C217 5365   1.803   6.624   6.206 -0.3171  0.2129 -0.2687
   42DOPE  H17R 5366   1.777   6.671   6.303 -0.2187  1.1625 -0.6812
   42DOPE  H17S 5367   1.754   6.525   6.208  2.7303 -1.3729  1.6902
   42DOPE  C218 5368   1.746   6.719   6.099 -0.0841  0.5394 -0.2377
   42DOPE  H18R 5369   1.804   6.690   6.008  0.5910 -2.9114  1.1149
   42DOPE  H18S 5370   1.778   6.824   6.120 -3.0354  1.6392 -0.8092
   42DOPE  H18T 5371   1.638   6.704   6.081 -0.1122 -1.4972  1.2301
   42DOPE   C33 5372   2.327   6.274   5.192 -0.1955  0.2772 -0.3140
   42DOPE   H3X 5373   2.297   6.204   5.111  1.5967 -2.1156  0.9574
   42DOPE   H3Y 5374   2.256   6.358   5.177  1.5286  1.7728 -0.5008
   42DOPE   C34 5375   2.305   6.214   5.328  0.2901 -0.1045 -0.1687
   42DOPE   H4X 5376   2.333   6.278   5.414 -1.0960  0.1304  0.1377
   42DOPE   H4Y 5377   2.195   6.201   5.337 -0.0151  0.6765 -2.4081
   42DOPE   C35 5378   2.365   6.069   5.339  0.1804  0.4891 -0.3543
   42DOPE   H5X 5379   2.474   6.058   5.322 -0.1068 -0.7395 -1.6357
   42DOPE   H5Y 5380   2.314   6.011   5.259 -0.8435 -1.2280  1.4607
   42DOPE   C36 5381   2.337   5.998   5.471 -0.1963 -0.3897  0.1279
   42DOPE   H6X 5382   2.230   6.013   5.495 -0.5394  1.9273 -2.3374
   42DOPE   H6Y 5383   2.400   6.043   5.551  1.2171 -1.2398 -0.4708
   42DOPE   C37 5384   2.363   5.849   5.472  1.3383  0.1165  0.5245
   42DOPE   H7X 5385   2.331   5.811   5.372  3.0951 -0.8214  0.2825
   42DOPE   H7Y 5386   2.471   5.823   5.481  1.2111 -0.8812 -0.5955
   42DOPE   C38 5387   2.273   5.768   5.570  0.7024  0.3813 -0.1393
   42DOPE   H8X 5388   2.286   5.658   5.558  1.5146  0.6024 -1.4509
   42DOPE   H8Y 5389   2.170   5.780   5.531  0.4046  0.3488  0.6227
   42DOPE   C39 5390   2.271   5.809   5.715  1.0270  0.5708 -0.2920
   42DOPE   H9X 5391   2.364   5.822   5.772  0.2538  2.2102  0.6629
   42DOPE  C310 5392   2.166   5.859   5.778  0.6953 -0.1425  0.0364
   42DOPE  H10X 5393   2.175   5.903   5.878 -1.7897 -1.8388  1.0949
   42DOPE  C311 5394   2.017   5.863   5.733  0.0568  0.2101  1.3401
   42DOPE  H11X 5395   2.010   5.826   5.629  1.0084  0.2147  1.2595
   42DOPE  H11Y 5396   1.945   5.808   5.797 -0.9086  0.9544  0.9216
   42DOPE  C312 5397   1.970   6.008   5.709  0.0034 -0.5396  0.1670
   42DOPE  H12X 5398   2.048   6.053   5.644  0.1768 -2.6188 -1.1505
   42DOPE  H12Y 5399   1.981   6.058   5.808  1.0766 -0.7595  0.1741
   42DOPE  C313 5400   1.828   6.034   5.653  0.2553  0.0242 -0.6148
   42DOPE  H13X 5401   1.753   5.977   5.711 -0.5582  1.6921  0.0456
   42DOPE  H13Y 5402   1.799   6.141   5.655  1.6024  0.4342  2.0763
   42DOPE  C314 5403   1.804   5.989   5.505  0.4574 -0.2676  0.3208
   42DOPE  H14X 5404   1.756   5.889   5.507 -0.8607  0.3431  0.1548
   42DOPE  H14Y 5405   1.899   5.997   5.448  0.1057 -1.3558 -0.4488
   42DOPE  C315 5406   1.707   6.084   5.426 -0.2968 -0.4690 -0.0912
   42DOPE  H15X 5407   1.734   6.192   5.432  1.2726 -0.8317 -0.3072
   42DOPE  H15Y 5408   1.607   6.072   5.473 -0.3135  0.3660  0.1058
   42DOPE  C316 5409   1.697   6.059   5.272 -0.5825  0.0048 -0.1915
   42DOPE  H16X 5410   1.659   5.954   5.265  1.6522 -0.9870  1.4697
   42DOPE  H16Y 5411   1.798   6.062   5.228  0.0115 -0.3891  1.0859
   42DOPE  C317 5412   1.609   6.155   5.191  0.7196  0.1434 -0.1488
   42DOPE  H17X 5413   1.511   6.170   5.242  2.0560  1.5051  2.1909
   42DOPE  H17Y 5414   1.660   6.254   5.193  0.3596  0.3263  0.2362
   42DOPE  C318 5415   1.600   6.121   5.039 -0.0085  1.1554  0.4253
   42DOPE  H18X 5416   1.499   6.151   5.002 -0.7690 -1.9900 -0.2836
   42DOPE  H18Y 5417   1.686   6.167   4.987  0.9696 -1.0322  0.0190
   42DOPE  H18Z 5418   1.606   6.013   5.017 -0.0702  1.3425 -0.5254
   43DOPE     N 5419   1.858   3.616   4.318 -0.3809  0.2303 -0.5553
   43DOPE   HN1 5420   1.961   3.618   4.306 -0.2754 -1.4814 -0.2680
   43DOPE   HN2 5421   1.836   3.555   4.400 -1.1330 -0.5612 -1.3214
   43DOPE   HN3 5422   1.812   3.568   4.238 -0.2669  1.7039 -1.5302
   43DOPE   C12 5423   1.802   3.754   4.340 -1.1742 -0.0642  0.1585
   43DOPE  H12A 5424   1.877   3.825   4.299  1.8960 -3.2941 -0.4101
   43DOPE  H12B 5425   1.809   3.784   4.447 -0.3945 -0.1824  0.1509
   43DOPE   C11 5426   1.664   3.768   4.267 -0.7380  0.3910 -0.0031
   43DOPE  H11A 5427   1.661   3.727   4.164 -1.7734 -2.1567  0.9626
   43DOPE  H11B 5428   1.656   3.879   4.259 -1.0969  0.4925  1.4851
   43DOPE     P 5429   1.470   3.769   4.450  0.2479 -0.2395 -0.0647
   43DOPE   O13 5430   1.372   3.671   4.495 -0.1387 -0.2048 -0.0098
   43DOPE   O14 5431   1.425   3.892   4.382 -0.1955  0.2228  0.2902
   43DOPE   O11 5432   1.576   3.808   4.557 -0.2498 -0.3987  1.0347
   43DOPE   O12 5433   1.559   3.697   4.339  0.5775 -0.3531 -0.0430
   43DOPE    C1 5434   1.621   3.735   4.673 -0.9228 -0.5185 -0.7083
   43DOPE    HA 5435   1.719   3.775   4.707 -0.4924 -2.3919  0.3978
   43DOPE    HB 5436   1.640   3.628   4.651  2.2776 -0.6924  2.1048
   43DOPE    C2 5437   1.534   3.747   4.800  0.2286 -0.3482 -0.5931
   43DOPE    HS 5438   1.426   3.736   4.776  0.2482  0.7969 -1.2752
   43DOPE   O21 5439   1.558   3.875   4.854 -0.7842  0.0054 -0.1410
   43DOPE   C21 5440   1.483   3.977   4.804  0.6991  0.0390  0.3116
   43DOPE   O22 5441   1.394   3.967   4.721 -0.7929 -0.5901  0.5820
   43DOPE   C22 5442   1.521   4.104   4.883 -0.3734  0.1954  0.4028
   43DOPE   H2R 5443   1.486   4.200   4.839 -0.0582  0.1250 -0.0125
   43DOPE   H2S 5444   1.632   4.099   4.878 -0.3076  2.0464 -2.2109
   43DOPE    C3 5445   1.568   3.632   4.908 -0.7346  0.1257  0.2475
   43DOPE    HX 5446   1.677   3.625   4.927 -0.5603  0.1969 -0.6676
   43DOPE    HY 5447   1.548   3.537   4.853  0.8978  0.0799 -0.3017
   43DOPE   O31 5448   1.485   3.645   5.027 -0.2947  0.5067 -0.6473
   43DOPE   C31 5449   1.359   3.617   5.013  0.3303  0.1372 -0.1495
   43DOPE   O32 5450   1.308   3.550   4.921 -0.2633  0.1615  0.0755
   43DOPE   C32 5451   1.284   3.661   5.140 -0.5114 -0.3159 -0.2363
   43DOPE   H2X 5452   1.331   3.610   5.227  0.7589 -0.0827 -0.7502
   43DOPE   H2Y 5453   1.291   3.770   5.159 -2.3876 -0.1667 -0.2697
   43DOPE   C23 5454   1.469   4.099   5.033  0.1387  0.6213  0.2067
   43DOPE   H3R 5455   1.528   4.178   5.083  0.0045  1.4114 -0.8327
   43DOPE   H3S 5456   1.502   4.009   5.090  1.3467  1.0483  0.2031
   43DOPE   C24 5457   1.320   4.133   5.053  0.2734 -0.1497  0.6010
   43DOPE   H4R 5458   1.258   4.045   5.024 -2.3014  1.9324 -0.6605
   43DOPE   H4S 5459   1.284   4.216   4.989  0.5384 -1.0753 -0.7820
   43DOPE   C25 5460   1.291   4.163   5.198  0.6622 -0.1947 -0.3650
   43DOPE   H5R 5461   1.359   4.241   5.240  0.1658 -0.3203  0.7078
   43DOPE   H5S 5462   1.308   4.070   5.256  0.1071 -0.4149 -0.5493
   43DOPE   C26 5463   1.144   4.212   5.227  0.1682  0.1428  0.9886
   43DOPE   H6R 5464   1.053   4.164   5.185  0.5353 -1.1416  1.6273
   43DOPE   H6S 5465   1.147   4.314   5.183 -2.1544 -0.4208 -0.6604
   43DOPE   C27 5466   1.104   4.216   5.369  0.0884 -0.5309 -0.2054
   43DOPE   H7R 5467   1.024   4.293   5.366  0.6824  0.1599  1.0261
   43DOPE   H7S 5468   1.188   4.232   5.440 -1.3890 -1.2944  1.8026
   43DOPE   C28 5469   1.034   4.089   5.424 -0.8042  0.8908  0.4525
   43DOPE   H8R 5470   1.123   4.034   5.459 -0.5448  2.1332  1.8871
   43DOPE   H8S 5471   0.995   4.025   5.342 -0.3065  1.5669 -0.3221
   43DOPE   C29 5472   0.926   4.111   5.525 -0.0766  0.1652 -0.1101
   43DOPE   H9R 5473   0.826   4.101   5.479  1.8027 -2.7633 -4.2151
   43DOPE  C210 5474   0.937   4.160   5.648 -0.6349 -0.5234 -0.5677
   43DOPE  H10R 5475   0.849   4.160   5.714 -1.4673 -0.6366 -1.6582
   43DOPE  C211 5476   1.074   4.203   5.702  0.3400 -0.0473 -0.2692
   43DOPE  H11R 5477   1.110   4.296   5.654  1.2580  0.5377  1.4668
   43DOPE  H11S 5478   1.147   4.122   5.680  0.9295  0.4348 -0.1140
   43DOPE  C212 5479   1.082   4.230   5.862  0.1387 -0.1704  0.0895
   43DOPE  H12R 5480   1.044   4.332   5.885  1.8511  0.3039  0.9739
   43DOPE  H12S 5481   1.188   4.225   5.893  0.7972 -0.0062 -1.9902
   43DOPE  C213 5482   0.993   4.138   5.940 -0.0013 -0.5445  0.4858
   43DOPE  H13R 5483   1.002   4.031   5.911 -2.0003 -1.0879  1.6539
   43DOPE  H13S 5484   0.890   4.177   5.931 -0.1414 -0.8923  0.5732
   43DOPE  C214 5485   1.027   4.146   6.087 -0.3290 -0.3447 -0.0004
   43DOPE  H14R 5486   1.134   4.124   6.111 -0.7629 -2.0289  0.5433
   43DOPE  H14S 5487   0.962   4.084   6.153  2.4770 -1.3936  1.9771
   43DOPE  C215 5488   0.988   4.281   6.137 -0.1095  0.4915 -0.2355
   43DOPE  H15R 5489   0.887   4.305   6.098 -0.7153  0.9198  1.4998
   43DOPE  H15S 5490   1.052   4.359   6.091  0.2304  0.4010  0.0855
   43DOPE  C216 5491   0.989   4.285   6.293 -0.0584 -0.2630  0.3399
   43DOPE  H16R 5492   1.068   4.361   6.312  1.7323 -1.4081 -1.9924
   43DOPE  H16S 5493   1.038   4.192   6.329 -0.2659 -0.6140 -0.2650
   43DOPE  C217 5494   0.855   4.306   6.359  0.3171 -0.0461 -0.1234
   43DOPE  H17R 5495   0.867   4.302   6.469  1.4353 -0.3661 -0.2481
   43DOPE  H17S 5496   0.778   4.227   6.343 -0.6482  0.3133  2.3059
   43DOPE  C218 5497   0.799   4.450   6.337 -0.0130  0.2913  0.0692
   43DOPE  H18R 5498   0.693   4.457   6.371  0.3414 -0.0558  1.2868
   43DOPE  H18S 5499   0.798   4.477   6.229 -1.3670 -1.4562 -0.4080
   43DOPE  H18T 5500   0.860   4.524   6.393  0.4591  0.6629 -0.9161
   43DOPE   C33 5501   1.146   3.622   5.135 -0.5372 -0.0249 -0.0986
   43DOPE   H3X 5502   1.130   3.517   5.103 -0.3058 -0.5496  1.4408
   43DOPE   H3Y 5503   1.082   3.688   5.073 -0.9705  2.3614  2.6779
   43DOPE   C34 5504   1.088   3.634   5.278 -0.4183 -0.1130 -0.2552
   43DOPE   H4X 5505   1.128   3.726   5.326 -0.7307 -0.4821  0.7412
   43DOPE   H4Y 5506   0.979   3.638   5.255  0.0250 -0.3432 -2.5903
   43DOPE   C35 5507   1.118   3.514   5.363  0.2520  0.3629 -0.3372
   43DOPE   H5X 5508   1.224   3.483   5.355 -0.4708 -1.8754 -2.6170
   43DOPE   H5Y 5509   1.068   3.425   5.319  2.4929 -1.0883 -0.1013
   43DOPE   C36 5510   1.086   3.531   5.512 -0.1234 -0.0724 -0.3157
   43DOPE   H6X 5511   0.998   3.468   5.536  1.4175 -1.5264  1.8172
   43DOPE   H6Y 5512   1.060   3.636   5.534  0.3998 -0.5607  3.1742
   43DOPE   C37 5513   1.200   3.479   5.600 -0.1194 -0.1549 -0.2302
   43DOPE   H7X 5514   1.212   3.369   5.603  1.1384 -0.1204 -2.1612
   43DOPE   H7Y 5515   1.300   3.509   5.562 -0.8159  1.2742 -1.0142
   43DOPE   C38 5516   1.192   3.545   5.740 -0.5491 -0.2016  0.1250
   43DOPE   H8X 5517   1.213   3.654   5.736  0.1623 -0.1337  3.3097
   43DOPE   H8Y 5518   1.278   3.500   5.793  1.4001 -0.5491 -3.0750
   43DOPE   C39 5519   1.057   3.525   5.814 -0.2450  0.0062 -0.0668
   43DOPE   H9X 5520   0.967   3.524   5.750  0.5088 -1.6284 -1.1843
   43DOPE  C310 5521   1.038   3.492   5.949 -0.8448 -0.2315  0.0852
   43DOPE  H10X 5522   0.938   3.457   5.976 -0.9890  0.1478  0.0429
   43DOPE  C311 5523   1.152   3.486   6.049  0.7013  0.1248  0.3467
   43DOPE  H11X 5524   1.232   3.422   6.004  1.7921  1.2625  0.6138
   43DOPE  H11Y 5525   1.194   3.588   6.062  2.4693 -0.4462 -0.4974
   43DOPE  C312 5526   1.110   3.448   6.189  0.1380  0.7798  0.0185
   43DOPE  H12X 5527   1.079   3.342   6.184 -0.4423  0.8258  1.9170
   43DOPE  H12Y 5528   1.020   3.503   6.225 -1.1798 -0.0156 -1.8789
   43DOPE  C313 5529   1.222   3.459   6.297 -0.3784 -0.0818 -0.5984
   43DOPE  H13X 5530   1.314   3.401   6.274 -0.9989 -0.9980 -0.7893
   43DOPE  H13Y 5531   1.255   3.566   6.297  0.1343 -0.2318 -1.1291
   43DOPE  C314 5532   1.172   3.417   6.434  0.0323 -0.1986 -0.0243
   43DOPE  H14X 5533   1.150   3.308   6.438 -0.3300 -0.0951  2.9405
   43DOPE  H14Y 5534   1.087   3.481   6.465 -0.0880 -0.0608 -0.6333
   43DOPE  C315 5535   1.280   3.432   6.549  0.5300 -0.8218  0.7793
   43DOPE  H15X 5536   1.310   3.539   6.558  0.2012 -0.5096 -1.3033
   43DOPE  H15Y 5537   1.376   3.395   6.506 -0.3895 -0.1517 -2.0363
   43DOPE  C316 5538   1.228   3.391   6.683  0.0067 -0.0331  0.1979
   43DOPE  H16X 5539   1.128   3.435   6.701 -0.0557 -0.2895  0.4878
   43DOPE  H16Y 5540   1.299   3.407   6.767  0.7575  1.5733 -0.7008
   43DOPE  C317 5541   1.202   3.236   6.690  0.3506 -0.2396  0.1362
   43DOPE  H17X 5542   1.133   3.220   6.776  0.5055 -2.3204 -0.0601
   43DOPE  H17Y 5543   1.148   3.207   6.597 -2.7802 -0.0054  1.7260
   43DOPE  C318 5544   1.326   3.149   6.705 -0.0822  0.0713  0.2987
   43DOPE  H18X 5545   1.385   3.163   6.612  1.7659 -0.1695  1.3866
   43DOPE  H18Y 5546   1.389   3.185   6.790 -2.4106 -0.1048  2.1982
   43DOPE  H18Z 5547   1.298   3.042   6.716 -0.2576  0.1685  0.8525
   44DOPE     N 5548   4.768   2.894   4.510 -0.1678  0.5088 -0.1788
   44DOPE   HN1 5549   4.753   2.837   4.424 -2.6459  0.4013  0.2537
   44DOPE   HN2 5550   4.700   2.866   4.583  0.3866 -1.2872 -0.2994
   44DOPE   HN3 5551   4.740   2.993   4.495  0.4049  0.8827  1.1056
   44DOPE   C12 5552   4.914   2.887   4.558  0.1542 -0.0392  0.4907
   44DOPE  H12A 5553   4.932   2.969   4.631 -1.2449 -0.4196  1.2913
   44DOPE  H12B 5554   4.979   2.898   4.469 -1.1427  2.1029 -0.2486
   44DOPE   C11 5555   4.951   2.757   4.629 -0.5124 -0.4095 -0.0276
   44DOPE  H11A 5556   4.901   2.753   4.728  1.0656  1.0757  0.8905
   44DOPE  H11B 5557   5.062   2.751   4.640 -0.5674 -0.8951  0.3199
   44DOPE     P 5558   4.940   2.490   4.614 -0.2204  0.0585 -0.0194
   44DOPE   O13 5559   5.085   2.461   4.610 -0.0031  0.0169 -0.2311
   44DOPE   O14 5560   4.850   2.386   4.561 -0.1232 -0.4143  0.1571
   44DOPE   O11 5561   4.901   2.516   4.765  0.1407 -0.3577  0.0177
   44DOPE   O12 5562   4.917   2.640   4.552  0.1198 -0.4971 -0.5384
   44DOPE    C1 5563   5.010   2.511   4.860 -0.2264  0.4695  0.5802
   44DOPE    HA 5564   5.085   2.587   4.830 -1.1400  0.6103 -1.5364
   44DOPE    HB 5565   5.052   2.410   4.876 -0.6795  0.0364 -0.7955
   44DOPE    C2 5566   4.971   2.555   5.005  0.3409  0.0076  0.1900
   44DOPE    HS 5567   5.061   2.570   5.069  0.2614 -0.1068  0.3295
   44DOPE   O21 5568   4.887   2.457   5.074  0.2604  0.0415  0.0939
   44DOPE   C21 5569   4.959   2.355   5.120  0.2907  0.2647 -0.7692
   44DOPE   O22 5570   5.078   2.331   5.116  0.6357 -0.6653  0.1398
   44DOPE   C22 5571   4.861   2.283   5.222  0.1753  0.0941  0.3826
   44DOPE   H2R 5572   4.792   2.221   5.161 -1.4143  1.1944  0.9819
   44DOPE   H2S 5573   4.803   2.370   5.259  1.3690  1.1985 -0.2741
   44DOPE    C3 5574   4.909   2.700   4.991 -0.4681  0.4033  0.3558
   44DOPE    HX 5575   4.812   2.702   4.937 -1.4621 -0.4585  2.0305
   44DOPE    HY 5576   4.987   2.753   4.933  0.8558 -0.0357  1.6559
   44DOPE   O31 5577   4.895   2.762   5.125 -0.2116 -0.5023 -0.0936
   44DOPE   C31 5578   4.768   2.754   5.174  0.1278  0.4037 -0.4413
   44DOPE   O32 5579   4.671   2.749   5.106  0.0424  0.2039  0.6181
   44DOPE   C32 5580   4.759   2.755   5.329 -0.3849  0.5457  0.0820
   44DOPE   H2X 5581   4.841   2.824   5.356  1.8556 -0.6407 -3.0586
   44DOPE   H2Y 5582   4.658   2.799   5.342 -1.3365 -1.0177 -1.4973
   44DOPE   C23 5583   4.933   2.218   5.336 -0.4175 -0.2771  0.0439
   44DOPE   H3R 5584   4.972   2.297   5.403 -3.0852  2.3571 -1.2604
   44DOPE   H3S 5585   5.015   2.156   5.295 -0.9505 -0.6668 -0.4521
   44DOPE   C24 5586   4.849   2.127   5.425  0.5553  0.6844  0.5039
   44DOPE   H4R 5587   4.787   2.066   5.357 -0.2981  0.3557  1.5458
   44DOPE   H4S 5588   4.776   2.196   5.472 -1.0149  0.5357 -1.5877
   44DOPE   C25 5589   4.931   2.054   5.540 -0.7098 -0.0642  0.1858
   44DOPE   H5R 5590   4.974   2.136   5.601 -1.0019 -0.4043  0.8608
   44DOPE   H5S 5591   5.011   1.987   5.501 -0.8057  0.2372 -0.5465
   44DOPE   C26 5592   4.835   1.976   5.623 -0.4836 -0.0558 -0.3747
   44DOPE   H6R 5593   4.801   1.895   5.554  0.4593  0.7844 -1.8771
   44DOPE   H6S 5594   4.734   2.017   5.643 -0.9550 -1.6959  0.8530
   44DOPE   C27 5595   4.913   1.924   5.748 -0.1690  0.0294 -0.7743
   44DOPE   H7R 5596   4.939   2.014   5.808 -0.9460 -0.9938  1.1801
   44DOPE   H7S 5597   5.007   1.878   5.712  1.5469  2.0618  0.8262
   44DOPE   C28 5598   4.829   1.850   5.848  0.0432  0.1089  0.4250
   44DOPE   H8R 5599   4.728   1.895   5.839  0.1958  0.2247 -0.8741
   44DOPE   H8S 5600   4.849   1.867   5.956  1.9542 -2.3468  0.5580
   44DOPE   C29 5601   4.822   1.701   5.817 -0.3682 -0.3443  0.0594
   44DOPE   H9R 5602   4.818   1.676   5.710 -0.6737 -1.1754  0.2616
   44DOPE  C210 5603   4.815   1.613   5.916  0.8504  0.2461  0.6438
   44DOPE  H10R 5604   4.825   1.507   5.888  2.8585  1.3796 -3.7649
   44DOPE  C211 5605   4.825   1.642   6.067  0.2806  0.5679  0.5500
   44DOPE  H11R 5606   4.768   1.569   6.127  1.0196 -0.0905  0.4739
   44DOPE  H11S 5607   4.771   1.734   6.099 -1.2518  1.3205 -3.5003
   44DOPE  C212 5608   4.969   1.651   6.113 -0.4102  0.4350 -0.1543
   44DOPE  H12R 5609   4.966   1.676   6.222 -3.6992 -1.1986  0.2765
   44DOPE  H12S 5610   5.011   1.736   6.055 -0.4475  1.3420  1.0982
   44DOPE  C213 5611   5.055   1.536   6.086  0.1437 -0.3439 -0.1399
   44DOPE  H13R 5612   5.072   1.511   5.979  1.4218  0.6438 -0.1971
   44DOPE  H13S 5613   5.031   1.447   6.147  2.0208 -0.8009  0.0021
   44DOPE  C214 5614   5.203   1.563   6.114  0.3809  0.2884  0.2998
   44DOPE  H14R 5615   5.250   1.627   6.037 -0.5830  1.3890  0.5979
   44DOPE  H14S 5616   5.259   1.467   6.110 -1.4517 -1.0184  2.7576
   44DOPE  C215 5617   5.228   1.633   6.246 -0.4917 -0.5396 -0.9742
   44DOPE  H15R 5618   5.149   1.598   6.315 -0.1379  0.6270  0.0629
   44DOPE  H15S 5619   5.216   1.742   6.226  0.0282 -0.5980 -1.6510
   44DOPE  C216 5620   5.374   1.624   6.306  0.5141 -0.4110 -0.4086
   44DOPE  H16R 5621   5.428   1.529   6.287  0.7746 -0.2744 -0.3561
   44DOPE  H16S 5622   5.359   1.625   6.416 -0.1026  2.1970 -0.4418
   44DOPE  C217 5623   5.463   1.745   6.265  0.1736 -0.3766 -0.4690
   44DOPE  H17R 5624   5.412   1.843   6.250  0.0348 -0.6889 -2.1877
   44DOPE  H17S 5625   5.515   1.732   6.168 -1.1303 -0.0454 -1.2398
   44DOPE  C218 5626   5.573   1.778   6.372 -0.8295  0.2182 -0.8110
   44DOPE  H18R 5627   5.649   1.851   6.336 -0.1762  0.6921  1.3806
   44DOPE  H18S 5628   5.630   1.684   6.389 -0.6963  0.4509  0.0842
   44DOPE  H18T 5629   5.531   1.826   6.463 -0.0974 -1.4532  0.4611
   44DOPE   C33 5630   4.757   2.616   5.396  0.6805  0.0993 -0.2252
   44DOPE   H3X 5631   4.859   2.571   5.393  0.6885  0.1609 -2.6834
   44DOPE   H3Y 5632   4.685   2.555   5.338  0.2374  0.0151  0.4019
   44DOPE   C34 5633   4.700   2.611   5.542  0.6860 -0.2633 -0.3183
   44DOPE   H4X 5634   4.760   2.677   5.608  0.2201  1.7120 -1.7791
   44DOPE   H4Y 5635   4.596   2.649   5.551  0.8152 -0.1534  0.8391
   44DOPE   C35 5636   4.702   2.459   5.591  0.3624 -0.3138  0.0477
   44DOPE   H5X 5637   4.807   2.425   5.587  0.5773  0.2870  0.4587
   44DOPE   H5Y 5638   4.643   2.390   5.526 -0.4178 -0.4142  0.8454
   44DOPE   C36 5639   4.647   2.445   5.730 -0.5233  0.4061 -0.7841
   44DOPE   H6X 5640   4.542   2.479   5.742 -0.4464  0.4691 -0.2472
   44DOPE   H6Y 5641   4.722   2.505   5.786 -0.4120 -0.1998 -0.2706
   44DOPE   C37 5642   4.665   2.301   5.786  0.4921 -0.0954 -0.9746
   44DOPE   H7X 5643   4.590   2.234   5.739  0.2927 -2.1551  1.9680
   44DOPE   H7Y 5644   4.758   2.255   5.747  1.4040  0.1597  0.7712
   44DOPE   C38 5645   4.651   2.278   5.941 -0.1964  0.0540  0.2425
   44DOPE   H8X 5646   4.662   2.169   5.964  3.2316  0.0658 -0.7653
   44DOPE   H8Y 5647   4.547   2.303   5.971 -0.7695 -0.8502 -0.9040
   44DOPE   C39 5648   4.756   2.360   6.014  0.2711  0.9056  0.3250
   44DOPE   H9X 5649   4.735   2.468   6.016 -0.7418  0.7115  0.6036
   44DOPE  C310 5650   4.846   2.303   6.093 -0.1923  0.8519  0.3397
   44DOPE  H10X 5651   4.933   2.360   6.130 -1.1857  1.6417  1.5053
   44DOPE  C311 5652   4.842   2.153   6.122 -0.3513 -0.0464  0.0267
   44DOPE  H11X 5653   4.736   2.123   6.139 -1.4225  2.8133 -0.9430
   44DOPE  H11Y 5654   4.886   2.089   6.042  2.2469 -0.0406  1.3447
   44DOPE  C312 5655   4.922   2.142   6.257  0.4651  0.1751  1.1051
   44DOPE  H12X 5656   4.881   2.202   6.341 -0.0670 -0.3369  1.2219
   44DOPE  H12Y 5657   5.026   2.177   6.237  0.0079  0.9587  0.0351
   44DOPE  C313 5658   4.928   1.994   6.303  0.3428 -0.9703  0.7815
   44DOPE  H13X 5659   4.980   1.941   6.220  2.2403 -0.0363  1.3167
   44DOPE  H13Y 5660   4.993   1.993   6.393  3.9205  1.4532 -1.5013
   44DOPE  C314 5661   4.798   1.923   6.319 -0.0741  0.1625 -0.3950
   44DOPE  H14X 5662   4.819   1.816   6.340 -0.5741 -0.0358 -0.9063
   44DOPE  H14Y 5663   4.733   1.928   6.229 -0.2753  1.1094 -0.2063
   44DOPE  C315 5664   4.721   1.972   6.445  0.3267  0.2298  0.7910
   44DOPE  H15X 5665   4.693   2.080   6.441  0.7875  0.4432  2.4168
   44DOPE  H15Y 5666   4.785   1.974   6.536 -0.9391  2.5666  1.7306
   44DOPE  C316 5667   4.593   1.897   6.480  0.0533 -0.0531 -0.1038
   44DOPE  H16X 5668   4.611   1.788   6.464 -0.6376 -0.3333  0.9358
   44DOPE  H16Y 5669   4.512   1.920   6.407 -1.0485  0.5071  1.2522
   44DOPE  C317 5670   4.526   1.931   6.613 -0.0892 -0.2848 -0.3937
   44DOPE  H17X 5671   4.477   2.031   6.614 -1.3236 -0.8299 -1.6888
   44DOPE  H17Y 5672   4.444   1.860   6.638  0.1518 -0.1184  0.9354
   44DOPE  C318 5673   4.613   1.928   6.739 -0.0179 -0.0780  0.0603
   44DOPE  H18X 5674   4.549   1.922   6.830  0.8776 -0.6956  0.6666
   44DOPE  H18Y 5675   4.690   1.848   6.736  0.5510  0.3489  1.9817
   44DOPE  H18Z 5676   4.665   2.026   6.737  0.7420 -0.4598 -1.8918
   45DOPE     N 5677   4.711   1.585   4.807  0.7451 -0.3844 -0.5159
   45DOPE   HN1 5678   4.697   1.674   4.756  1.3898  0.0224  0.0090
   45DOPE   HN2 5679   4.692   1.498   4.753 -1.2934  0.4207 -1.2028
   45DOPE   HN3 5680   4.646   1.596   4.888 -0.1091 -0.8478 -1.1179
   45DOPE   C12 5681   4.846   1.593   4.871 -0.5721  0.5429 -0.0827
   45DOPE  H12A 5682   4.835   1.653   4.964 -1.1041  0.8986 -0.3719
   45DOPE  H12B 5683   4.919   1.655   4.816  3.0150 -0.9765  2.5793
   45DOPE   C11 5684   4.904   1.451   4.886  0.1350 -0.2020  0.4049
   45DOPE  H11A 5685   4.966   1.450   4.979  2.0331 -2.6548 -0.7839
   45DOPE  H11B 5686   4.977   1.423   4.808 -1.1537 -2.0226 -0.2260
   45DOPE     P 5687   4.856   1.199   4.896 -0.4238  0.5978  0.3253
   45DOPE   O13 5688   4.858   1.153   4.750  0.1737  0.0553  0.0913
   45DOPE   O14 5689   4.774   1.117   4.986  0.1847  0.2777 -0.0384
   45DOPE   O11 5690   5.003   1.184   4.944 -0.4972 -0.5674 -0.6136
   45DOPE   O12 5691   4.813   1.350   4.903  0.3294  0.1987 -0.1888
   45DOPE    C1 5692   5.044   1.160   5.077 -0.5333  0.1252 -0.1203
   45DOPE    HA 5693   4.961   1.187   5.146  0.8343  1.2569  1.1472
   45DOPE    HB 5694   5.136   1.215   5.106  0.7314 -0.9922 -1.8539
   45DOPE    C2 5695   5.075   1.010   5.108  0.4027 -0.3242  0.0952
   45DOPE    HS 5696   4.996   0.954   5.053  0.4785  0.1829 -0.5449
   45DOPE   O21 5697   5.069   0.996   5.248 -0.1186  0.1628  0.2583
   45DOPE   C21 5698   5.053   0.873   5.296  0.5920 -0.1046 -0.0145
   45DOPE   O22 5699   4.998   0.782   5.234  0.0817 -0.3974  0.6435
   45DOPE   C22 5700   5.081   0.883   5.449 -0.6853 -0.6080  0.0135
   45DOPE   H2R 5701   5.108   0.987   5.477  0.8904 -1.0475  0.2456
   45DOPE   H2S 5702   5.162   0.816   5.486 -1.4592 -1.4986  0.1408
   45DOPE    C3 5703   5.208   0.966   5.048 -0.0345  0.3451 -0.0215
   45DOPE    HX 5704   5.293   1.023   5.092 -1.9424  3.3301  0.0908
   45DOPE    HY 5705   5.193   0.992   4.941 -1.6691 -4.3013 -1.1751
   45DOPE   O31 5706   5.226   0.815   5.054 -0.7014 -0.0202 -0.2055
   45DOPE   C31 5707   5.319   0.767   4.974 -0.0759  0.5510 -0.3912
   45DOPE   O32 5708   5.375   0.826   4.884  0.1438 -0.0616  0.5661
   45DOPE   C32 5709   5.351   0.624   5.009 -0.5122  0.1241 -0.0551
   45DOPE   H2X 5710   5.254   0.578   5.037 -0.1642 -0.3292  0.4213
   45DOPE   H2Y 5711   5.376   0.575   4.912 -1.0505  1.3137 -0.8179
   45DOPE   C23 5712   4.959   0.820   5.523 -0.1827  0.4950  0.3879
   45DOPE   H3R 5713   4.987   0.793   5.627  2.0600  1.1220  0.0001
   45DOPE   H3S 5714   4.941   0.731   5.458 -2.5774  1.1349  0.0999
   45DOPE   C24 5715   4.842   0.914   5.518  0.2944 -0.0686 -0.8610
   45DOPE   H4R 5716   4.738   0.876   5.504  0.1400  0.7702 -2.1412
   45DOPE   H4S 5717   4.847   0.982   5.431 -1.1343  1.4363  0.1639
   45DOPE   C25 5718   4.849   1.006   5.646 -0.3563 -0.1863  0.2374
   45DOPE   H5R 5719   4.957   1.021   5.667 -0.0428 -1.9128 -0.0202
   45DOPE   H5S 5720   4.814   0.954   5.738  0.1709  1.6064  1.5021
   45DOPE   C26 5721   4.773   1.140   5.634 -0.1727  0.6916  0.0781
   45DOPE   H6R 5722   4.664   1.123   5.628  0.0714 -0.4730 -1.7625
   45DOPE   H6S 5723   4.802   1.189   5.538 -1.8917  0.4177 -0.6104
   45DOPE   C27 5724   4.795   1.229   5.763  0.2500  0.4228 -0.5190
   45DOPE   H7R 5725   4.775   1.328   5.718  0.4883  0.4394 -0.5895
   45DOPE   H7S 5726   4.902   1.228   5.796  0.2962 -0.1303 -0.6768
   45DOPE   C28 5727   4.699   1.212   5.880 -0.2344  0.2203  0.3527
   45DOPE   H8R 5728   4.731   1.283   5.960  1.0754 -1.1934  1.1422
   45DOPE   H8S 5729   4.703   1.111   5.926 -1.9680 -0.2818 -0.5252
   45DOPE   C29 5730   4.552   1.247   5.850 -0.3019 -0.4427  0.8762
   45DOPE   H9R 5731   4.541   1.356   5.843  0.5562 -0.4147 -0.4235
   45DOPE  C210 5732   4.448   1.167   5.814  0.9042  0.3855 -0.5605
   45DOPE  H10R 5733   4.353   1.216   5.786  1.6543  1.8551 -0.6133
   45DOPE  C211 5734   4.440   1.019   5.811 -0.4525  0.0542 -0.1995
   45DOPE  H11R 5735   4.536   0.965   5.800 -0.6433 -0.9258  2.2063
   45DOPE  H11S 5736   4.382   0.984   5.724 -2.4770  0.4059  0.9470
   45DOPE  C212 5737   4.380   0.965   5.945  0.1639  0.2635  0.3859
   45DOPE  H12R 5738   4.276   1.002   5.952 -0.8973 -1.9080 -2.1837
   45DOPE  H12S 5739   4.443   1.008   6.026 -1.3224  0.3938  1.4910
   45DOPE  C213 5740   4.384   0.810   5.951  0.0160 -0.4177 -0.1178
   45DOPE  H13R 5741   4.488   0.773   5.949  0.5317  0.8792  1.3987
   45DOPE  H13S 5742   4.328   0.779   5.859 -0.8248  0.5108  0.0661
   45DOPE  C214 5743   4.305   0.759   6.075  0.5086 -0.3427  0.0496
   45DOPE  H14R 5744   4.222   0.829   6.100  0.1116 -0.2897 -1.3315
   45DOPE  H14S 5745   4.378   0.752   6.159  1.2269 -0.9748 -0.6052
   45DOPE  C215 5746   4.240   0.622   6.059  0.3316  0.2636  0.5310
   45DOPE  H15R 5747   4.319   0.549   6.031  0.9729  1.3815 -0.6517
   45DOPE  H15S 5748   4.157   0.620   5.985 -0.5230 -1.2341  1.4589
   45DOPE  C216 5749   4.179   0.575   6.191 -0.1786  0.0112  0.1196
   45DOPE  H16R 5750   4.254   0.551   6.270  0.3320  1.3825  0.0814
   45DOPE  H16S 5751   4.131   0.482   6.154  1.2604 -0.5464 -0.3898
   45DOPE  C217 5752   4.073   0.675   6.239 -0.1511 -0.4009  0.1461
   45DOPE  H17R 5753   4.019   0.722   6.154 -0.1199 -1.4124 -0.4602
   45DOPE  H17S 5754   4.135   0.743   6.299 -0.9843 -0.0084  0.5803
   45DOPE  C218 5755   3.972   0.602   6.327  0.0022  0.2000 -0.3985
   45DOPE  H18R 5756   3.904   0.678   6.370 -1.1974 -0.9679 -0.1549
   45DOPE  H18S 5757   4.018   0.550   6.414  1.1715  0.3452 -0.9029
   45DOPE  H18T 5758   3.904   0.535   6.270 -2.7110 -0.8046  3.5910
   45DOPE   C33 5759   5.468   0.595   5.109  0.2208  0.4242  0.0202
   45DOPE   H3X 5760   5.561   0.648   5.080 -0.8348  1.5080 -1.5298
   45DOPE   H3Y 5761   5.483   0.485   5.104 -0.9747  0.2960 -1.3985
   45DOPE   C34 5762   5.438   0.617   5.261  0.1420  0.3244 -0.1878
   45DOPE   H4X 5763   5.513   0.562   5.322 -0.9922  0.4640  1.4068
   45DOPE   H4Y 5764   5.441   0.723   5.293 -4.5878  0.0457  2.0899
   45DOPE   C35 5765   5.303   0.555   5.300 -0.1217  0.3401 -0.3302
   45DOPE   H5X 5766   5.315   0.448   5.274  1.8047  1.1431 -3.1699
   45DOPE   H5Y 5767   5.215   0.593   5.243  0.9575  1.1248 -1.5066
   45DOPE   C36 5768   5.290   0.550   5.450  0.2265 -0.0959  0.0887
   45DOPE   H6X 5769   5.274   0.650   5.496 -0.4063 -0.1164 -0.0701
   45DOPE   H6Y 5770   5.383   0.518   5.500  0.2714  1.9242  1.3983
   45DOPE   C37 5771   5.179   0.451   5.487  0.0630 -0.6071  0.7671
   45DOPE   H7X 5772   5.077   0.471   5.446  0.5832 -2.5972 -1.8234
   45DOPE   H7Y 5773   5.204   0.360   5.427 -1.9394 -0.6747 -0.0749
   45DOPE   C38 5774   5.177   0.403   5.632 -0.3768 -0.2999  0.4548
   45DOPE   H8X 5775   5.279   0.379   5.670 -1.2623 -0.7196  2.7113
   45DOPE   H8Y 5776   5.121   0.308   5.639  0.5470 -0.9231 -0.3894
   45DOPE   C39 5777   5.117   0.502   5.725  0.1156 -0.3273 -0.1363
   45DOPE   H9X 5778   5.022   0.550   5.695 -0.1466 -1.5474 -1.3820
   45DOPE  C310 5779   5.150   0.535   5.852 -0.2300 -0.5387  0.0910
   45DOPE  H10X 5780   5.099   0.623   5.894 -0.8952 -1.2809  0.8582
   45DOPE  C311 5781   5.270   0.477   5.932  0.1337 -0.7126 -0.2647
   45DOPE  H11X 5782   5.301   0.374   5.906  0.2881 -0.7321 -0.0021
   45DOPE  H11Y 5783   5.356   0.547   5.934  0.1436 -0.7428  0.4348
   45DOPE  C312 5784   5.236   0.469   6.081 -0.3120 -0.6159 -0.4490
   45DOPE  H12X 5785   5.326   0.429   6.132 -0.5357 -0.5726 -0.0166
   45DOPE  H12Y 5786   5.148   0.403   6.100 -1.3824  0.8320 -0.1419
   45DOPE  C313 5787   5.202   0.599   6.149  0.3174 -0.5125  0.2303
   45DOPE  H13X 5788   5.296   0.659   6.142  0.0599 -0.2455 -1.3020
   45DOPE  H13Y 5789   5.126   0.664   6.102  1.5037  0.7468 -0.0129
   45DOPE  C314 5790   5.170   0.586   6.297 -0.4198 -0.5922  0.0482
   45DOPE  H14X 5791   5.229   0.505   6.346  0.8779 -1.1914 -2.3629
   45DOPE  H14Y 5792   5.067   0.551   6.319 -0.9851  0.7466 -0.3739
   45DOPE  C315 5793   5.196   0.724   6.363 -0.0502 -0.1478 -0.3574
   45DOPE  H15X 5794   5.131   0.801   6.315  0.9763  2.7127  2.4807
   45DOPE  H15Y 5795   5.304   0.748   6.358 -0.2858  1.0611  0.0449
   45DOPE  C316 5796   5.155   0.728   6.518 -0.0486  1.0614  0.4763
   45DOPE  H16X 5797   5.231   0.662   6.563  2.2767  0.6193 -3.6028
   45DOPE  H16Y 5798   5.049   0.698   6.532  0.2750 -0.4089 -0.0476
   45DOPE  C317 5799   5.165   0.864   6.584 -0.3201  0.0051  0.0457
   45DOPE  H17X 5800   5.264   0.909   6.562 -0.2224 -0.3857 -0.3195
   45DOPE  H17Y 5801   5.096   0.937   6.535  0.9751  0.5285 -1.0547
   45DOPE  C318 5802   5.158   0.869   6.735 -0.3637  0.1771  0.3427
   45DOPE  H18X 5803   5.153   0.975   6.769 -2.8847 -0.0586  0.9203
   45DOPE  H18Y 5804   5.064   0.833   6.782  1.3786 -1.8706  2.4757
   45DOPE  H18Z 5805   5.229   0.798   6.783  1.0873 -0.5629 -2.6746
   46DOPE     N 5806   6.026   7.401   4.435 -0.2317  0.6853  0.0770
   46DOPE   HN1 5807   6.007   7.312   4.486  2.9367 -0.9827 -1.3976
   46DOPE   HN2 5808   6.046   7.385   4.334  2.2772 -0.7391  0.7096
   46DOPE   HN3 5809   6.112   7.444   4.474 -0.2685  0.9990 -0.1884
   46DOPE   C12 5810   5.917   7.496   4.465 -0.4593 -0.0986  1.0984
   46DOPE  H12A 5811   5.820   7.446   4.446 -1.0877  0.3736  2.8664
   46DOPE  H12B 5812   5.916   7.578   4.390  0.8614 -1.4872 -0.5413
   46DOPE   C11 5813   5.922   7.562   4.606  0.3533 -0.0262  0.6397
   46DOPE  H11A 5814   5.874   7.662   4.603 -0.4241 -0.4185 -0.6305
   46DOPE  H11B 5815   6.024   7.580   4.646  0.2835 -0.2451  0.9284
   46DOPE     P 5816   5.711   7.523   4.755  0.3922  0.1106 -0.0914
   46DOPE   O13 5817   5.659   7.442   4.865 -0.3774 -0.3141 -0.1368
   46DOPE   O14 5818   5.626   7.535   4.633 -0.2628 -0.4382  0.2022
   46DOPE   O11 5819   5.746   7.666   4.804  0.2378 -0.0919  0.6996
   46DOPE   O12 5820   5.853   7.477   4.704  0.6911 -0.1473  0.4068
   46DOPE    C1 5821   5.854   7.688   4.897 -0.0610  0.0713  0.5010
   46DOPE    HA 5822   5.919   7.770   4.858 -0.4386  0.3133  0.3716
   46DOPE    HB 5823   5.917   7.599   4.919  1.2532  0.7220 -0.5159
   46DOPE    C2 5824   5.799   7.743   5.027  0.7492  0.1438 -0.3055
   46DOPE    HS 5825   5.881   7.790   5.085  2.3047 -1.5198 -1.0684
   46DOPE   O21 5826   5.742   7.638   5.106 -0.3279  0.4778  0.3212
   46DOPE   C21 5827   5.820   7.574   5.184 -0.4782 -0.6143  0.1365
   46DOPE   O22 5828   5.941   7.595   5.196 -0.2846 -0.6294  0.2274
   46DOPE   C22 5829   5.741   7.476   5.271  0.3004 -0.3348  0.4138
   46DOPE   H2R 5830   5.688   7.404   5.206  0.3657  0.3740 -0.4353
   46DOPE   H2S 5831   5.673   7.538   5.333 -1.6611  0.1096 -2.0560
   46DOPE    C3 5832   5.687   7.856   5.014 -0.6536 -0.1924 -0.1208
   46DOPE    HX 5833   5.608   7.819   4.945 -0.1436  0.5229 -1.1174
   46DOPE    HY 5834   5.732   7.938   4.955  3.1935 -0.0209  2.7016
   46DOPE   O31 5835   5.634   7.907   5.140  0.4039  0.1968  0.1386
   46DOPE   C31 5836   5.522   7.846   5.172 -0.0044 -0.7741  0.5651
   46DOPE   O32 5837   5.468   7.759   5.111  0.3760 -0.4301 -0.2094
   46DOPE   C32 5838   5.485   7.893   5.311 -0.1284 -0.3528 -0.4881
   46DOPE   H2X 5839   5.495   8.002   5.328 -2.3032 -0.3718  1.3924
   46DOPE   H2Y 5840   5.382   7.853   5.324  0.7685 -2.4493  0.6503
   46DOPE   C23 5841   5.827   7.394   5.368  0.6686  0.3386 -0.1400
   46DOPE   H3R 5842   5.915   7.343   5.324  0.0831 -2.0856  1.2878
   46DOPE   H3S 5843   5.758   7.318   5.411  0.4552  0.1902 -0.7378
   46DOPE   C24 5844   5.869   7.476   5.498  0.1086 -0.2823  0.4072
   46DOPE   H4R 5845   5.792   7.545   5.538 -1.8323 -1.2498 -1.5042
   46DOPE   H4S 5846   5.958   7.536   5.468  1.7404 -2.9861 -0.5039
   46DOPE   C25 5847   5.896   7.382   5.609 -0.0666 -0.2956 -0.4247
   46DOPE   H5R 5848   5.962   7.295   5.588 -2.1147 -2.3284  1.0639
   46DOPE   H5S 5849   5.800   7.331   5.632  0.5445 -1.4516 -0.3621
   46DOPE   C26 5850   5.938   7.457   5.732 -0.5780  0.4148  0.0024
   46DOPE   H6R 5851   5.854   7.519   5.769 -0.2970  0.6976  0.1718
   46DOPE   H6S 5852   6.024   7.524   5.713  0.1787  0.4361  2.9123
   46DOPE   C27 5853   5.963   7.357   5.846 -0.5256  0.0151 -0.1146
   46DOPE   H7R 5854   6.042   7.284   5.815  0.5480  1.2092 -0.2707
   46DOPE   H7S 5855   5.873   7.301   5.879  1.2396 -2.2150  1.2565
   46DOPE   C28 5856   6.021   7.423   5.976  0.3265  0.0722 -0.0453
   46DOPE   H8R 5857   6.106   7.485   5.940  0.7181 -0.4197  0.0267
   46DOPE   H8S 5858   6.061   7.340   6.037 -0.5897  0.5599  1.2647
   46DOPE   C29 5859   5.919   7.510   6.046  0.2540  0.2721 -0.4384
   46DOPE   H9R 5860   5.873   7.583   5.979  1.3516  1.0410 -0.3788
   46DOPE  C210 5861   5.889   7.515   6.178 -0.4307  0.5424 -0.4368
   46DOPE  H10R 5862   5.825   7.590   6.225 -1.8208 -1.9628  1.9412
   46DOPE  C211 5863   5.947   7.436   6.292 -0.1665 -0.4449 -0.5584
   46DOPE  H11R 5864   6.004   7.503   6.361 -2.7544 -0.1635  1.4501
   46DOPE  H11S 5865   6.015   7.352   6.267 -0.6672 -1.4163  1.2210
   46DOPE  C212 5866   5.831   7.366   6.373 -0.1057 -0.3843 -0.2428
   46DOPE  H12R 5867   5.788   7.286   6.309  0.3885  0.0926 -1.1896
   46DOPE  H12S 5868   5.754   7.445   6.391  0.8368  0.2689  1.1482
   46DOPE  C213 5869   5.861   7.313   6.515  0.5251 -0.0878 -0.2290
   46DOPE  H13R 5870   5.901   7.395   6.578  0.0562 -0.2122  0.2417
   46DOPE  H13S 5871   5.933   7.228   6.521  0.3988 -0.1159  1.4418
   46DOPE  C214 5872   5.739   7.252   6.578  0.3980 -0.2369 -0.3132
   46DOPE  H14R 5873   5.736   7.149   6.536  0.0750 -0.9490  1.3646
   46DOPE  H14S 5874   5.643   7.299   6.546 -1.5203 -2.8389  1.1790
   46DOPE  C215 5875   5.749   7.249   6.727  0.3261  0.2133 -0.4179
   46DOPE  H15R 5876   5.720   7.352   6.758 -0.5272  0.4206 -1.8629
   46DOPE  H15S 5877   5.850   7.217   6.763 -0.3114 -0.7318  0.6014
   46DOPE  C216 5878   5.657   7.148   6.800  0.7570  0.2027 -0.5454
   46DOPE  H16R 5879   5.574   7.129   6.729 -0.2244  0.1930  0.5712
   46DOPE  H16S 5880   5.612   7.185   6.895 -1.8305 -3.3100 -0.2169
   46DOPE  C217 5881   5.722   7.014   6.825 -0.8769  0.0111 -0.0911
   46DOPE  H17R 5882   5.762   7.024   6.928  0.8094  0.6563 -0.7768
   46DOPE  H17S 5883   5.804   6.993   6.752 -0.0493 -0.1541  0.8548
   46DOPE  C218 5884   5.626   6.899   6.839  0.3855  0.1700  0.0769
   46DOPE  H18R 5885   5.541   6.928   6.904  0.9040 -0.0538  0.8833
   46DOPE  H18S 5886   5.667   6.800   6.868 -0.9775 -0.9316 -1.6051
   46DOPE  H18T 5887   5.589   6.881   6.736 -0.7665 -0.0324  0.5169
   46DOPE   C33 5888   5.573   7.820   5.421  0.2848  0.2319 -0.0849
   46DOPE   H3X 5889   5.682   7.823   5.398  0.1153 -1.0443 -1.2232
   46DOPE   H3Y 5890   5.534   7.716   5.431 -2.1798  1.1870  0.9193
   46DOPE   C34 5891   5.550   7.885   5.556  0.6341  0.6338 -0.5334
   46DOPE   H4X 5892   5.578   7.992   5.546  0.5855  0.7524  0.4952
   46DOPE   H4Y 5893   5.440   7.887   5.571  0.8394  0.4519  1.1988
   46DOPE   C35 5894   5.603   7.796   5.668 -0.4276  0.0563 -0.2811
   46DOPE   H5X 5895   5.712   7.812   5.683 -0.0365 -3.8142  2.5848
   46DOPE   H5Y 5896   5.593   7.690   5.635  0.6438 -0.4800  1.0301
   46DOPE   C36 5897   5.530   7.822   5.797 -0.2196  0.1496 -0.6009
   46DOPE   H6X 5898   5.420   7.817   5.788 -0.3133 -0.7958  0.7940
   46DOPE   H6Y 5899   5.562   7.920   5.839 -2.0240  0.6408 -0.2937
   46DOPE   C37 5900   5.559   7.723   5.904  0.1478 -0.0554 -0.6311
   46DOPE   H7X 5901   5.512   7.622   5.897 -0.1453  0.0210  0.1204
   46DOPE   H7Y 5902   5.668   7.704   5.910  0.0795 -0.2493  0.2255
   46DOPE   C38 5903   5.498   7.779   6.041 -0.3676  0.2331 -0.2199
   46DOPE   H8X 5904   5.394   7.814   6.026 -0.3835  0.0439 -0.5583
   46DOPE   H8Y 5905   5.557   7.870   6.064  1.3532 -0.4103 -1.8797
   46DOPE   C39 5906   5.519   7.674   6.152  0.3146 -0.5752 -0.3461
   46DOPE   H9X 5907   5.601   7.602   6.140  1.9832  1.0384  0.8206
   46DOPE  C310 5908   5.439   7.643   6.256  1.2807  0.8947 -0.4043
   46DOPE  H10X 5909   5.486   7.574   6.328 -0.6932 -1.3219 -1.1209
   46DOPE  C311 5910   5.305   7.694   6.291 -0.4498 -0.8870 -0.2571
   46DOPE  H11X 5911   5.270   7.761   6.209  0.4190 -0.0738  0.0171
   46DOPE  H11Y 5912   5.226   7.621   6.318 -1.7453  0.3276 -0.6391
   46DOPE  C312 5913   5.319   7.783   6.422  1.1829  0.0256  0.4083
   46DOPE  H12X 5914   5.400   7.859   6.418  1.2193 -0.0109  0.4431
   46DOPE  H12Y 5915   5.340   7.712   6.505  0.4468 -1.4727 -0.6300
   46DOPE  C313 5916   5.188   7.843   6.459 -0.0675 -0.1767  0.7116
   46DOPE  H13X 5917   5.150   7.911   6.379  0.5261  1.4041  1.7102
   46DOPE  H13Y 5918   5.115   7.760   6.467 -0.9343  0.4096 -0.6857
   46DOPE  C314 5919   5.184   7.927   6.600  0.6958 -0.6002 -0.5143
   46DOPE  H14X 5920   5.278   7.985   6.612  0.3366 -0.1143  0.0005
   46DOPE  H14Y 5921   5.189   7.858   6.687  0.7461 -0.9936 -0.8284
   46DOPE  C315 5922   5.062   8.018   6.607  0.6552 -0.0669 -0.1869
   46DOPE  H15X 5923   4.965   7.964   6.607  0.3073  0.5195 -1.3542
   46DOPE  H15Y 5924   5.055   8.077   6.513  2.1910  0.2909 -0.0975
   46DOPE  C316 5925   5.070   8.122   6.721 -0.1423  1.0702 -0.7763
   46DOPE  H16X 5926   4.978   8.182   6.736  0.1834  1.3246  0.2592
   46DOPE  H16Y 5927   5.146   8.193   6.684  0.1580  1.7202  0.9708
   46DOPE  C317 5928   5.103   8.056   6.860  0.5220 -0.2879  0.4820
   46DOPE  H17X 5929   5.054   7.956   6.861  0.1323 -0.1449 -1.2488
   46DOPE  H17Y 5930   5.212   8.036   6.868  0.6889  0.4307  0.0700
   46DOPE  C318 5931   5.045   8.130   6.983 -0.6394 -0.2527  0.2973
   46DOPE  H18X 5932   4.935   8.142   6.980 -0.4202  2.4448  0.3480
   46DOPE  H18Y 5933   5.082   8.079   7.075 -1.3132  0.6512  1.0931
   46DOPE  H18Z 5934   5.092   8.231   6.987 -0.8964 -0.1481  0.7001
   47DOPE     N 5935   1.541   7.018   4.654 -0.0368 -0.0590 -0.1954
   47DOPE   HN1 5936   1.480   7.081   4.598  0.9169 -1.0581 -2.5085
   47DOPE   HN2 5937   1.634   7.034   4.610  0.6703  0.6631  1.4854
   47DOPE   HN3 5938   1.514   6.919   4.637 -1.1290  0.0536  0.7838
   47DOPE   C12 5939   1.546   7.050   4.797 -0.1898  0.4567 -0.5400
   47DOPE  H12A 5940   1.611   6.974   4.844  1.0220  2.6690  1.6062
   47DOPE  H12B 5941   1.448   7.049   4.849  1.1616 -0.8105  2.1935
   47DOPE   C11 5942   1.598   7.194   4.811  0.3660  0.2142 -0.2888
   47DOPE  H11A 5943   1.698   7.194   4.763  0.4406  1.6787 -0.1887
   47DOPE  H11B 5944   1.630   7.221   4.914  1.1371 -2.5950  0.3035
   47DOPE     P 5945   1.420   7.379   4.831 -0.2116 -0.1649 -0.2602
   47DOPE   O13 5946   1.344   7.290   4.920 -0.4633 -0.2740 -0.8625
   47DOPE   O14 5947   1.354   7.469   4.738  0.3539  0.6044  0.1851
   47DOPE   O11 5948   1.521   7.464   4.910 -0.4339 -0.5715 -0.6347
   47DOPE   O12 5949   1.513   7.289   4.749 -0.6063  0.0883 -0.5194
   47DOPE    C1 5950   1.514   7.605   4.918  0.1170  1.0022  0.8255
   47DOPE    HA 5951   1.407   7.635   4.918 -0.8415 -2.0626  1.1778
   47DOPE    HB 5952   1.567   7.657   4.836  1.4901  1.2464  1.8370
   47DOPE    C2 5953   1.575   7.653   5.045 -0.4802  0.6511  0.5150
   47DOPE    HS 5954   1.582   7.764   5.042  0.2386  0.6504  1.6481
   47DOPE   O21 5955   1.711   7.614   5.038  0.0090  0.5239  0.7993
   47DOPE   C21 5956   1.801   7.685   5.096  0.0876  0.1952 -0.1991
   47DOPE   O22 5957   1.782   7.805   5.129 -0.2593  0.0283  0.0090
   47DOPE   C22 5958   1.924   7.604   5.124  0.3080  0.5810 -0.2929
   47DOPE   H2R 5959   1.999   7.655   5.188 -0.9124  0.6941  1.1077
   47DOPE   H2S 5960   1.970   7.573   5.027  0.5954 -1.6057  0.4739
   47DOPE    C3 5961   1.513   7.598   5.169  0.4348  0.0281 -0.3139
   47DOPE    HX 5962   1.511   7.486   5.170  0.0467  0.0353  0.0096
   47DOPE    HY 5963   1.408   7.633   5.180  0.8111  0.6480  1.9248
   47DOPE   O31 5964   1.581   7.640   5.292  0.6212 -0.3702  0.4419
   47DOPE   C31 5965   1.537   7.735   5.368  0.1772  0.1671 -0.0515
   47DOPE   O32 5966   1.422   7.775   5.379 -0.3956 -0.0079 -0.7234
   47DOPE   C32 5967   1.660   7.781   5.453 -0.0909  0.4630  0.1240
   47DOPE   H2X 5968   1.680   7.697   5.522 -0.0096 -0.2035 -0.6894
   47DOPE   H2Y 5969   1.756   7.776   5.398  0.9007 -0.2104  1.8376
   47DOPE   C23 5970   1.878   7.476   5.209 -0.0147 -0.5487  0.1845
   47DOPE   H3R 5971   1.795   7.424   5.156  0.5790 -0.1804 -1.1208
   47DOPE   H3S 5972   1.839   7.513   5.307  1.6978  1.9931 -0.0133
   47DOPE   C24 5973   1.995   7.390   5.243 -0.6651 -0.5226  0.5334
   47DOPE   H4R 5974   2.063   7.453   5.303  2.2430 -1.7383 -1.2803
   47DOPE   H4S 5975   2.054   7.365   5.152 -0.2913  2.9003 -0.3236
   47DOPE   C25 5976   1.962   7.259   5.313  0.3576  0.6673  0.0147
   47DOPE   H5R 5977   1.897   7.192   5.252  1.2682 -0.0423 -0.1883
   47DOPE   H5S 5978   1.902   7.280   5.404  0.6152  0.4077  0.2442
   47DOPE   C26 5979   2.091   7.173   5.325 -0.6799  0.7664 -0.0991
   47DOPE   H6R 5980   2.155   7.185   5.235 -0.1181  0.9345  0.3146
   47DOPE   H6S 5981   2.062   7.065   5.323 -2.1318  1.1454 -0.3765
   47DOPE   C27 5982   2.165   7.201   5.458  0.6356 -0.8064 -0.0149
   47DOPE   H7R 5983   2.088   7.193   5.538 -0.6669 -2.5453 -1.3474
   47DOPE   H7S 5984   2.209   7.302   5.447  1.0940 -0.6283  2.7261
   47DOPE   C28 5985   2.284   7.102   5.488  0.0701 -0.7828  0.5879
   47DOPE   H8R 5986   2.244   6.998   5.498 -0.7499 -0.5113  0.1884
   47DOPE   H8S 5987   2.330   7.125   5.586  0.2883  1.1425  0.0703
   47DOPE   C29 5988   2.395   7.123   5.388  0.1690  0.2352  0.0475
   47DOPE   H9R 5989   2.390   7.058   5.300  1.3442  0.3422 -0.1097
   47DOPE  C210 5990   2.494   7.214   5.407  0.3815 -0.8092  0.3048
   47DOPE  H10R 5991   2.567   7.225   5.325 -0.6977 -1.6243 -0.8124
   47DOPE  C211 5992   2.514   7.311   5.520  0.0276 -0.1120 -0.0895
   47DOPE  H11R 5993   2.417   7.353   5.552 -0.9854 -1.9723 -0.5699
   47DOPE  H11S 5994   2.584   7.389   5.485  1.6359 -0.1702  2.6798
   47DOPE  C212 5995   2.596   7.249   5.631 -0.0479  0.1074  0.2087
   47DOPE  H12R 5996   2.698   7.229   5.591 -1.0498 -2.6368 -1.2363
   47DOPE  H12S 5997   2.561   7.152   5.671  1.1030 -1.0400 -1.4079
   47DOPE  C213 5998   2.612   7.342   5.751 -0.1412  0.4322 -0.2289
   47DOPE  H13R 5999   2.689   7.304   5.821 -0.1831  0.0684 -0.3796
   47DOPE  H13S 6000   2.514   7.355   5.803  0.2656  2.3277  0.1583
   47DOPE  C214 6001   2.650   7.500   5.732 -1.2527  0.2047 -0.5278
   47DOPE  H14R 6002   2.564   7.549   5.682 -1.0440  1.2019  0.0631
   47DOPE  H14S 6003   2.746   7.502   5.675 -0.5517 -0.6228  0.5765
   47DOPE  C215 6004   2.677   7.565   5.870  0.1771  0.2302  0.1412
   47DOPE  H15R 6005   2.745   7.501   5.930 -0.9224  1.0722  2.4047
   47DOPE  H15S 6006   2.583   7.566   5.929  0.6752 -0.5207  0.9669
   47DOPE  C216 6007   2.739   7.706   5.861 -0.2768 -0.3372 -0.2968
   47DOPE  H16R 6008   2.672   7.778   5.809 -0.6817  0.0996  0.8079
   47DOPE  H16S 6009   2.834   7.689   5.806  0.3415 -1.3947  1.0452
   47DOPE  C217 6010   2.769   7.768   5.995  0.2457  0.2333 -0.8562
   47DOPE  H17R 6011   2.816   7.689   6.058 -1.4962 -0.6862 -0.6605
   47DOPE  H17S 6012   2.681   7.808   6.049 -0.5382 -1.6129 -0.7055
   47DOPE  C218 6013   2.876   7.881   5.974 -0.1302  0.4123  0.4645
   47DOPE  H18R 6014   2.959   7.854   5.905 -1.7289  1.7473 -2.1413
   47DOPE  H18S 6015   2.918   7.917   6.070 -0.1354 -0.4175  0.7838
   47DOPE  H18T 6016   2.827   7.965   5.920 -1.0551 -0.3000  0.1515
   47DOPE   C33 6017   1.646   7.919   5.522 -0.5927  0.3134 -0.1785
   47DOPE   H3X 6018   1.565   7.909   5.598 -1.3769  1.2431 -0.8631
   47DOPE   H3Y 6019   1.604   7.995   5.453 -2.6650 -0.4502  0.1812
   47DOPE   C34 6020   1.781   7.968   5.581  0.6450  0.0774  0.1592
   47DOPE   H4X 6021   1.840   7.988   5.489 -1.4110  2.2520 -0.8084
   47DOPE   H4Y 6022   1.764   8.065   5.633 -2.2781 -0.5147  0.4942
   47DOPE   C35 6023   1.855   7.868   5.672  0.0246  0.7201  0.1250
   47DOPE   H5X 6024   1.875   7.777   5.611 -1.6135  0.5887 -0.2596
   47DOPE   H5Y 6025   1.778   7.848   5.750  1.0814 -0.3411  0.9338
   47DOPE   C36 6026   1.981   7.932   5.737  0.2431  0.7869  0.1334
   47DOPE   H6X 6027   1.960   8.039   5.758 -1.3692  0.4351  0.4740
   47DOPE   H6Y 6028   2.058   7.939   5.657  2.4018 -0.1534  2.0354
   47DOPE   C37 6029   2.044   7.868   5.864  0.0916 -0.6616  0.1749
   47DOPE   H7X 6030   2.098   7.951   5.914 -1.1029 -0.8626  1.8919
   47DOPE   H7Y 6031   1.966   7.855   5.942  1.3019 -1.2255  1.3364
   47DOPE   C38 6032   2.124   7.738   5.846  0.2032  0.5791  0.1784
   47DOPE   H8X 6033   2.073   7.663   5.781  1.7538  1.2831 -1.9377
   47DOPE   H8Y 6034   2.120   7.700   5.951  0.7315 -1.9273 -0.6441
   47DOPE   C39 6035   2.267   7.753   5.798 -0.1101 -0.1541 -0.1527
   47DOPE   H9X 6036   2.284   7.745   5.690  2.1819 -0.3217  0.1717
   47DOPE  C310 6037   2.367   7.797   5.872 -0.2778  0.4149 -0.0253
   47DOPE  H10X 6038   2.467   7.815   5.829 -0.7421  2.1310 -0.4532
   47DOPE  C311 6039   2.359   7.819   6.026 -0.1995  0.0483 -0.6064
   47DOPE  H11X 6040   2.256   7.796   6.061 -0.6163  1.6612 -0.7030
   47DOPE  H11Y 6041   2.426   7.744   6.074 -0.7711  1.0435  1.9119
   47DOPE  C312 6042   2.395   7.958   6.081 -0.1069 -0.4551  0.0357
   47DOPE  H12X 6043   2.312   8.025   6.048  1.2304  0.4120 -1.7225
   47DOPE  H12Y 6044   2.490   7.988   6.032  1.6044 -4.1197  0.8004
   47DOPE  C313 6045   2.412   7.965   6.236 -0.1891  0.6135  0.7987
   47DOPE  H13X 6046   2.307   7.982   6.269 -0.5884  0.3890 -0.3130
   47DOPE  H13Y 6047   2.446   7.863   6.265 -0.1870  0.7372  1.2354
   47DOPE  C314 6048   2.509   8.069   6.291 -0.1011 -0.4975 -0.4221
   47DOPE  H14X 6049   2.608   8.047   6.246 -1.0866 -0.4119 -2.7949
   47DOPE  H14Y 6050   2.513   8.061   6.401  0.0349  1.0943 -0.2959
   47DOPE  C315 6051   2.469   8.212   6.238 -0.3517 -0.6845 -0.1410
   47DOPE  H15X 6052   2.374   8.235   6.291  0.8670  2.3523  0.9071
   47DOPE  H15Y 6053   2.454   8.211   6.128  0.6314  1.3498 -0.3240
   47DOPE  C316 6054   2.576   8.322   6.264  0.5976 -0.7542  0.0450
   47DOPE  H16X 6055   2.597   8.335   6.372  1.1238  1.0451 -0.2363
   47DOPE  H16Y 6056   2.532   8.424   6.248 -0.3400 -0.7913  2.0713
   47DOPE  C317 6057   2.710   8.298   6.186 -0.0831  0.3697 -0.1420
   47DOPE  H17X 6058   2.770   8.388   6.212 -0.7656  0.3697  1.5974
   47DOPE  H17Y 6059   2.763   8.208   6.222 -0.1229 -0.1793 -1.4109
   47DOPE  C318 6060   2.697   8.290   6.041  0.4409 -0.0315  0.0624
   47DOPE  H18X 6061   2.603   8.335   6.002  0.0588 -0.9125 -0.0589
   47DOPE  H18Y 6062   2.790   8.322   5.990  1.1838 -1.2911  0.5822
   47DOPE  H18Z 6063   2.683   8.186   6.003  0.6666  0.1031 -0.4033
   48DOPE     N 6064   7.536   3.136   4.309 -0.5027  0.1620 -0.2952
   48DOPE   HN1 6065   7.578   3.133   4.214  1.3554  0.4496  0.4662
   48DOPE   HN2 6066   7.491   3.043   4.322 -0.2560  0.3522  2.6239
   48DOPE   HN3 6067   7.472   3.217   4.302  0.1904  0.7485  0.0168
   48DOPE   C12 6068   7.645   3.169   4.407 -0.2549 -0.6625  0.2848
   48DOPE  H12A 6069   7.652   3.280   4.409  3.2259 -0.7275 -1.3711
   48DOPE  H12B 6070   7.747   3.150   4.368  1.3976  4.3991  1.2819
   48DOPE   C11 6071   7.618   3.111   4.545  0.6713  0.6216 -0.2789
   48DOPE  H11A 6072   7.589   3.004   4.538  0.2092  0.5623  1.8183
   48DOPE  H11B 6073   7.539   3.170   4.596 -1.5750 -1.2986 -1.3307
   48DOPE     P 6074   7.807   3.017   4.704  0.5138 -0.4493 -0.1707
   48DOPE   O13 6075   7.876   3.089   4.814  0.6380  0.2352 -0.2121
   48DOPE   O14 6076   7.875   2.935   4.602  0.3061  0.2735 -0.7306
   48DOPE   O11 6077   7.683   2.943   4.763  0.1456 -0.4152  0.3747
   48DOPE   O12 6078   7.731   3.132   4.625  0.1012  0.5387  0.0675
   48DOPE    C1 6079   7.588   3.005   4.848 -0.1508  0.9963  0.0948
   48DOPE    HA 6080   7.485   2.975   4.818 -0.2655 -0.0723  1.4689
   48DOPE    HB 6081   7.589   3.116   4.842 -0.6386  1.1147  1.6664
   48DOPE    C2 6082   7.601   2.955   5.002 -0.4074 -0.0671 -0.7622
   48DOPE    HS 6083   7.523   3.012   5.055  3.4047  3.1349  1.9864
   48DOPE   O21 6084   7.734   2.991   5.054 -0.0651  0.3928 -0.3362
   48DOPE   C21 6085   7.750   3.118   5.082 -0.2897  0.5221 -0.4508
   48DOPE   O22 6086   7.662   3.201   5.078 -0.0676 -0.0217 -0.0740
   48DOPE   C22 6087   7.890   3.141   5.121 -0.2039 -0.4669  0.2283
   48DOPE   H2R 6088   7.929   3.211   5.044 -1.7556  0.7400  0.4926
   48DOPE   H2S 6089   7.948   3.047   5.115  0.0709 -0.2923  0.1227
   48DOPE    C3 6090   7.569   2.806   5.023  0.2737  0.5846  0.8454
   48DOPE    HX 6091   7.645   2.755   4.961 -1.7326 -1.7930  0.1529
   48DOPE    HY 6092   7.474   2.779   4.971  0.5226  1.7054 -0.2182
   48DOPE   O31 6093   7.572   2.774   5.165 -0.2381 -0.3799 -0.5188
   48DOPE   C31 6094   7.683   2.733   5.210 -0.0973  0.6301  0.3403
   48DOPE   O32 6095   7.781   2.696   5.152 -0.1306 -0.0019  0.0940
   48DOPE   C32 6096   7.676   2.730   5.361 -0.0078  0.2132 -0.4159
   48DOPE   H2X 6097   7.755   2.663   5.402 -0.3819  1.0020  1.6974
   48DOPE   H2Y 6098   7.686   2.833   5.400 -2.1561 -0.4676  2.2372
   48DOPE   C23 6099   7.890   3.225   5.252  0.1614  0.1465 -0.1729
   48DOPE   H3R 6100   7.826   3.180   5.332 -0.0124  1.4045  0.4169
   48DOPE   H3S 6101   7.856   3.329   5.234 -0.1097 -0.2345 -2.1323
   48DOPE   C24 6102   8.039   3.233   5.303 -0.0663 -0.5832  0.0592
   48DOPE   H4R 6103   8.108   3.276   5.227  0.3641 -3.5546 -1.3767
   48DOPE   H4S 6104   8.072   3.128   5.321  1.1879 -0.2689 -0.3157
   48DOPE   C25 6105   8.046   3.303   5.438 -0.3804  0.0640  0.0156
   48DOPE   H5R 6106   7.991   3.242   5.513 -1.0739  0.5652 -0.0778
   48DOPE   H5S 6107   7.979   3.391   5.432 -0.5519 -0.0366  0.3922
   48DOPE   C26 6108   8.188   3.333   5.476 -0.7881 -0.6531 -0.3321
   48DOPE   H6R 6109   8.230   3.410   5.408  1.3768 -1.1675  0.3354
   48DOPE   H6S 6110   8.259   3.248   5.482  1.0366  0.7506 -1.1620
   48DOPE   C27 6111   8.181   3.401   5.608  0.8531  0.2937 -0.1377
   48DOPE   H7R 6112   8.120   3.345   5.681  1.8864  0.6913  1.0706
   48DOPE   H7S 6113   8.121   3.492   5.588 -0.1255 -0.1609  0.6935
   48DOPE   C28 6114   8.322   3.451   5.675 -0.0129  0.1319 -0.2268
   48DOPE   H8R 6115   8.387   3.361   5.670  1.2041  1.0544 -1.8035
   48DOPE   H8S 6116   8.298   3.468   5.782  1.4704 -0.1983  0.1791
   48DOPE   C29 6117   8.380   3.581   5.625  0.1604  0.3026  0.4745
   48DOPE   H9R 6118   8.419   3.591   5.522  0.5483  0.4423  0.6330
   48DOPE  C210 6119   8.423   3.682   5.703 -0.2689 -0.0216  0.9241
   48DOPE  H10R 6120   8.466   3.771   5.654  0.9633 -1.1457 -0.1305
   48DOPE  C211 6121   8.412   3.684   5.850  0.0278 -0.0965  0.3101
   48DOPE  H11R 6122   8.426   3.590   5.907 -0.4530 -0.2271  0.2190
   48DOPE  H11S 6123   8.308   3.715   5.872  0.2902 -0.1485  1.7306
   48DOPE  C212 6124   8.507   3.789   5.918  0.2214  0.5271 -0.0470
   48DOPE  H12R 6125   8.483   3.889   5.875  2.0741  1.4573  0.9814
   48DOPE  H12S 6126   8.610   3.754   5.895 -0.5082 -1.2955 -0.6953
   48DOPE  C213 6127   8.501   3.796   6.072  0.0775  0.2841  1.0404
   48DOPE  H13R 6128   8.573   3.873   6.107  1.1816  0.3977 -1.3057
   48DOPE  H13S 6129   8.540   3.695   6.100  1.0080 -0.1221 -1.4235
   48DOPE  C214 6130   8.360   3.809   6.136 -0.8141 -0.2800 -0.1421
   48DOPE  H14R 6131   8.296   3.728   6.095  0.7938 -1.1761 -0.9675
   48DOPE  H14S 6132   8.316   3.900   6.091 -1.4334  0.6263  2.1410
   48DOPE  C215 6133   8.355   3.813   6.290  0.6161  0.3155  0.0234
   48DOPE  H15R 6134   8.423   3.731   6.321  0.4927  0.7688  1.5560
   48DOPE  H15S 6135   8.251   3.787   6.321 -0.1121 -0.3832 -2.6531
   48DOPE  C216 6136   8.404   3.943   6.347  0.1677  0.2829 -0.0188
   48DOPE  H16R 6137   8.355   4.035   6.309  0.5556  1.0754  1.3356
   48DOPE  H16S 6138   8.506   3.947   6.302  0.3837 -0.8456  0.3264
   48DOPE  C217 6139   8.408   3.954   6.498 -0.4403  0.6482 -0.4215
   48DOPE  H17R 6140   8.483   4.027   6.537  0.7911 -0.5888 -0.3788
   48DOPE  H17S 6141   8.434   3.855   6.541 -3.2271  0.5398  1.2389
   48DOPE  C218 6142   8.267   3.996   6.538  0.2624  0.6254 -1.2493
   48DOPE  H18R 6143   8.270   4.107   6.542 -1.1553  0.6739  2.1019
   48DOPE  H18S 6144   8.240   3.974   6.644 -2.2348  0.4772 -1.8714
   48DOPE  H18T 6145   8.183   3.971   6.470 -0.2818  2.5774 -1.3719
   48DOPE   C33 6146   7.539   2.678   5.422 -0.1866 -0.6388  0.2621
   48DOPE   H3X 6147   7.536   2.567   5.427 -1.6740 -0.5775  2.2827
   48DOPE   H3Y 6148   7.456   2.728   5.368  1.0343  1.4677  0.2646
   48DOPE   C34 6149   7.521   2.737   5.564  0.0105  0.1630 -0.4397
   48DOPE   H4X 6150   7.616   2.715   5.617 -2.3140 -0.6081  3.8981
   48DOPE   H4Y 6151   7.520   2.848   5.558  0.2047  0.0875 -3.5648
   48DOPE   C35 6152   7.397   2.665   5.630 -0.1112 -1.1116  0.6140
   48DOPE   H5X 6153   7.401   2.559   5.598  1.0562 -1.5104  1.9365
   48DOPE   H5Y 6154   7.305   2.722   5.606  0.6145  0.0741  0.6029
   48DOPE   C36 6155   7.414   2.649   5.778 -0.3315 -0.0938  0.1574
   48DOPE   H6X 6156   7.447   2.746   5.821  0.0399 -0.6555  1.1745
   48DOPE   H6Y 6157   7.506   2.588   5.793  0.0356  0.1610 -0.9305
   48DOPE   C37 6158   7.295   2.598   5.853  0.3606  0.6781  0.4235
   48DOPE   H7X 6159   7.211   2.665   5.822 -0.2391  0.7373  2.0708
   48DOPE   H7Y 6160   7.270   2.492   5.833  0.0952  1.0015 -1.0969
   48DOPE   C38 6161   7.299   2.625   6.011 -0.3879 -0.6379 -0.5137
   48DOPE   H8X 6162   7.193   2.634   6.044 -0.0607 -0.1042  0.4460
   48DOPE   H8Y 6163   7.360   2.714   6.036  4.0251 -3.7050  0.7440
   48DOPE   C39 6164   7.361   2.499   6.074 -0.2248  0.1800  0.0770
   48DOPE   H9X 6165   7.418   2.438   6.002  0.6504 -0.3464  1.1721
   48DOPE  C310 6166   7.360   2.456   6.203 -0.2684  0.8391  1.3025
   48DOPE  H10X 6167   7.415   2.365   6.231  0.0763  0.9780  1.0873
   48DOPE  C311 6168   7.285   2.519   6.313 -0.3755 -1.2134 -0.7505
   48DOPE  H11X 6169   7.344   2.522   6.407  0.2994  0.0922 -1.1950
   48DOPE  H11Y 6170   7.250   2.619   6.282 -1.7477 -1.1037  0.9843
   48DOPE  C312 6171   7.152   2.448   6.331  0.0849  1.1196  0.3563
   48DOPE  H12X 6172   7.165   2.343   6.366 -0.1439  0.9166 -0.1541
   48DOPE  H12Y 6173   7.103   2.442   6.231  0.7083  1.6073  0.0158
   48DOPE  C313 6174   7.052   2.526   6.416  0.4431  0.8200  0.8841
   48DOPE  H13X 6175   7.107   2.555   6.507  1.3122  1.4375  0.1793
   48DOPE  H13Y 6176   7.026   2.615   6.355  2.4105 -0.4577 -2.0443
   48DOPE  C314 6177   6.922   2.442   6.445 -0.2607 -0.1372  0.4040
   48DOPE  H14X 6178   6.889   2.398   6.349 -0.1450  1.7885 -0.5483
   48DOPE  H14Y 6179   6.832   2.504   6.464 -0.3875 -0.2559  0.1847
   48DOPE  C315 6180   6.935   2.331   6.548 -0.1357 -0.1188  0.2513
   48DOPE  H15X 6181   6.944   2.378   6.648 -2.4814 -1.0233  0.9464
   48DOPE  H15Y 6182   7.028   2.275   6.525 -2.0809 -2.5022 -2.6092
   48DOPE  C316 6183   6.822   2.227   6.536  0.0324  0.6734  0.5222
   48DOPE  H16X 6184   6.804   2.185   6.435  1.8141  1.6420 -0.2411
   48DOPE  H16Y 6185   6.731   2.279   6.575  0.5607  1.2650  0.9808
   48DOPE  C317 6186   6.842   2.105   6.625 -0.5042  0.0895 -0.1510
   48DOPE  H17X 6187   6.937   2.049   6.610 -0.6811 -0.0921 -0.6156
   48DOPE  H17Y 6188   6.844   2.143   6.730  2.0720 -0.1113 -0.0558
   48DOPE  C318 6189   6.741   1.997   6.603 -1.2910  0.1998 -0.1359
   48DOPE  H18X 6190   6.730   1.921   6.684 -2.7636  0.7561  0.2152
   48DOPE  H18Y 6191   6.642   2.048   6.599 -1.7929 -0.6379  0.9713
   48DOPE  H18Z 6192   6.762   1.943   6.508  0.0946 -1.3704  0.9847
   49DOPE     N 6193   2.064   7.204   4.659  0.2804 -0.2594 -0.4941
   49DOPE   HN1 6194   2.058   7.257   4.748 -2.0735 -1.8039  0.3829
   49DOPE   HN2 6195   2.010   7.249   4.582  0.1571  2.8106  1.2216
   49DOPE   HN3 6196   2.014   7.113   4.672 -2.6661  1.1846 -0.7464
   49DOPE   C12 6197   2.199   7.160   4.614  0.0402  0.2028  0.2733
   49DOPE  H12A 6198   2.188   7.081   4.537  1.6553 -0.1789  0.3940
   49DOPE  H12B 6199   2.253   7.105   4.694 -1.1834 -0.4071  0.6971
   49DOPE   C11 6200   2.287   7.265   4.545 -0.1362 -0.1605  0.4994
   49DOPE  H11A 6201   2.225   7.324   4.474  1.2434  0.1506 -0.4835
   49DOPE  H11B 6202   2.367   7.213   4.489 -0.3023 -0.3402  0.4301
   49DOPE     P 6203   2.451   7.462   4.574 -0.0721  0.1336 -0.1745
   49DOPE   O13 6204   2.400   7.528   4.447 -0.2177  0.4929 -0.3584
   49DOPE   O14 6205   2.577   7.385   4.559 -0.1348 -0.6725 -0.0116
   49DOPE   O11 6206   2.474   7.570   4.683  0.8024  0.1488  0.0884
   49DOPE   O12 6207   2.353   7.355   4.633  1.0037  0.0894  0.1899
   49DOPE    C1 6208   2.471   7.519   4.820  0.4608 -0.3897  0.2928
   49DOPE    HA 6209   2.558   7.452   4.839 -0.2206 -1.5414 -0.5381
   49DOPE    HB 6210   2.377   7.463   4.836  0.8993 -0.9843  0.8621
   49DOPE    C2 6211   2.471   7.640   4.924 -0.1251  0.3913 -0.4968
   49DOPE    HS 6212   2.427   7.601   5.019  1.6598  0.6027  0.4474
   49DOPE   O21 6213   2.386   7.751   4.888  0.3509 -0.1198  0.5030
   49DOPE   C21 6214   2.257   7.716   4.884  0.1163  0.0431  0.1224
   49DOPE   O22 6215   2.213   7.612   4.927  1.0551 -0.4916  0.2486
   49DOPE   C22 6216   2.173   7.823   4.831 -0.2543  0.2758  0.3286
   49DOPE   H2R 6217   2.073   7.775   4.828 -0.2286  0.2537 -0.8414
   49DOPE   H2S 6218   2.198   7.849   4.726 -1.0668  1.9799  0.5242
   49DOPE    C3 6219   2.611   7.703   4.964  0.3258  0.6161 -0.1898
   49DOPE    HX 6220   2.667   7.737   4.874  1.2066  1.4671  0.6628
   49DOPE    HY 6221   2.667   7.614   5.001 -0.8291 -0.5129 -1.0545
   49DOPE   O31 6222   2.603   7.802   5.067  0.2624 -0.7749  0.8343
   49DOPE   C31 6223   2.585   7.923   5.011  0.0059  0.1314 -0.8365
   49DOPE   O32 6224   2.575   7.953   4.895  0.6915  0.4048 -0.1874
   49DOPE   C32 6225   2.581   8.030   5.118  0.1204 -0.2811  0.3060
   49DOPE   H2X 6226   2.478   8.052   5.152 -0.1141 -0.7247 -0.1057
   49DOPE   H2Y 6227   2.634   7.998   5.211 -0.9485 -0.6720  0.7912
   49DOPE   C23 6228   2.185   7.953   4.923 -0.1283  0.2821 -0.5818
   49DOPE   H3R 6229   2.140   8.043   4.876 -1.4793  0.1559  0.4211
   49DOPE   H3S 6230   2.295   7.963   4.935  0.4387 -0.7081 -3.7997
   49DOPE   C24 6231   2.129   7.935   5.067  0.2924  1.0701 -0.3772
   49DOPE   H4R 6232   2.195   7.861   5.118  0.4004  0.7395 -0.9919
   49DOPE   H4S 6233   2.025   7.898   5.063  0.3276  1.0191 -0.8733
   49DOPE   C25 6234   2.149   8.068   5.145  0.0867  0.2008 -0.5366
   49DOPE   H5R 6235   2.106   8.152   5.086 -1.3394 -0.7140 -0.8592
   49DOPE   H5S 6236   2.256   8.089   5.163  0.1716  0.1751 -0.9972
   49DOPE   C26 6237   2.072   8.065   5.274  0.6819 -0.8973 -0.2934
   49DOPE   H6R 6238   2.112   7.978   5.330  0.3809 -0.9792 -0.2076
   49DOPE   H6S 6239   1.972   8.037   5.235 -0.4101  0.1010  1.6325
   49DOPE   C27 6240   2.064   8.196   5.355  0.3396 -0.1626 -0.4394
   49DOPE   H7R 6241   1.981   8.182   5.428  0.2564 -1.2058 -0.7209
   49DOPE   H7S 6242   2.028   8.282   5.295 -0.1198  0.7121  1.0303
   49DOPE   C28 6243   2.189   8.250   5.437 -0.1184 -0.0008 -0.0297
   49DOPE   H8R 6244   2.166   8.350   5.479 -1.4681 -0.6773  0.9069
   49DOPE   H8S 6245   2.274   8.267   5.367  2.0668  2.1889  2.9143
   49DOPE   C29 6246   2.241   8.141   5.528  0.1384  0.6572 -1.1086
   49DOPE   H9R 6247   2.254   8.041   5.484  0.1677 -0.1428  0.6628
   49DOPE  C210 6248   2.244   8.147   5.663 -0.4103 -0.4424 -0.6091
   49DOPE  H10R 6249   2.262   8.057   5.724 -0.7450 -0.6590 -0.8229
   49DOPE  C211 6250   2.189   8.262   5.752 -0.4715 -0.0502 -0.2206
   49DOPE  H11R 6251   2.120   8.217   5.826  1.4475 -1.4410  0.8143
   49DOPE  H11S 6252   2.134   8.338   5.693  0.3648  0.6917 -0.0737
   49DOPE  C212 6253   2.292   8.345   5.822  0.6264 -0.1992  0.0846
   49DOPE  H12R 6254   2.365   8.392   5.753  0.0324  0.5439 -0.0488
   49DOPE  H12S 6255   2.352   8.286   5.894 -1.5293  0.3270  2.4802
   49DOPE  C213 6256   2.222   8.452   5.901  0.0629 -0.3102  0.1441
   49DOPE  H13R 6257   2.140   8.402   5.957  0.6001 -2.0429 -0.5543
   49DOPE  H13S 6258   2.162   8.527   5.845 -0.6502  1.5168  3.1108
   49DOPE  C214 6259   2.312   8.545   5.988 -0.3059 -0.2883  0.1560
   49DOPE  H14R 6260   2.377   8.608   5.925  1.9780 -0.3796  2.2558
   49DOPE  H14S 6261   2.374   8.481   6.055  0.9022 -0.8876 -1.4953
   49DOPE  C215 6262   2.231   8.647   6.071  0.1244 -0.1676 -0.9873
   49DOPE  H15R 6263   2.170   8.710   6.003  1.0570  0.5312 -1.1941
   49DOPE  H15S 6264   2.307   8.707   6.124 -0.3367 -1.4361  1.2557
   49DOPE  C216 6265   2.137   8.594   6.180 -0.2724 -0.3451 -0.4739
   49DOPE  H16R 6266   2.207   8.526   6.233  0.2111 -1.7655 -2.7947
   49DOPE  H16S 6267   2.059   8.532   6.132  2.5151 -3.5920 -1.1343
   49DOPE  C217 6268   2.084   8.712   6.271  0.7667  0.5477 -0.2020
   49DOPE  H17R 6269   2.111   8.801   6.211 -0.2824  0.1177 -1.3709
   49DOPE  H17S 6270   2.135   8.722   6.369  3.8832  0.1276 -1.6703
   49DOPE  C218 6271   1.933   8.717   6.292  0.5107  0.0799 -0.3460
   49DOPE  H18R 6272   1.895   8.782   6.374 -2.7922 -1.0704 -0.8063
   49DOPE  H18S 6273   1.907   8.613   6.322 -0.4753  0.2475 -0.5979
   49DOPE  H18T 6274   1.875   8.736   6.200  0.2596 -3.5107 -1.0674
   49DOPE   C33 6275   2.658   8.168   5.082 -0.3017 -0.6306 -0.1168
   49DOPE   H3X 6276   2.631   8.206   4.981  0.8370  0.2844 -0.1050
   49DOPE   H3Y 6277   2.768   8.152   5.074 -0.6406 -3.3362 -0.1737
   49DOPE   C34 6278   2.638   8.275   5.187  0.3676 -0.3847 -0.1700
   49DOPE   H4X 6279   2.726   8.342   5.175 -0.2848  0.2555 -1.7187
   49DOPE   H4Y 6280   2.542   8.328   5.169  0.7015 -0.0696 -1.1233
   49DOPE   C35 6281   2.657   8.222   5.327 -0.0753 -0.6057 -0.3756
   49DOPE   H5X 6282   2.744   8.154   5.336  1.9760  2.0962  2.3262
   49DOPE   H5Y 6283   2.570   8.161   5.357  0.2050 -0.1229  1.5174
   49DOPE   C36 6284   2.691   8.330   5.429  0.5390 -0.6710 -0.5858
   49DOPE   H6X 6285   2.784   8.376   5.388  1.8415 -2.5337  0.0817
   49DOPE   H6Y 6286   2.724   8.282   5.524  1.4037 -0.8773 -0.9717
   49DOPE   C37 6287   2.576   8.435   5.452 -0.9690  0.3783  0.4908
   49DOPE   H7X 6288   2.567   8.507   5.367  1.7857  0.6680  0.3514
   49DOPE   H7Y 6289   2.480   8.379   5.454 -0.4337 -0.6928 -1.1328
   49DOPE   C38 6290   2.587   8.508   5.585 -0.9264 -1.0746  0.5570
   49DOPE   H8X 6291   2.584   8.431   5.665 -0.6268 -0.7254  0.9105
   49DOPE   H8Y 6292   2.493   8.565   5.599 -0.9349 -1.2462  1.2483
   49DOPE   C39 6293   2.707   8.598   5.593 -0.3025  0.7230  0.4293
   49DOPE   H9X 6294   2.727   8.654   5.501 -0.0005  2.2921  1.4111
   49DOPE  C310 6295   2.778   8.634   5.705  0.6275  0.0495 -0.1478
   49DOPE  H10X 6296   2.870   8.694   5.693  1.4146 -1.0317  0.2607
   49DOPE  C311 6297   2.754   8.602   5.850 -0.4408 -0.0388 -0.5218
   49DOPE  H11X 6298   2.675   8.524   5.856 -0.0779 -0.4563 -1.1137
   49DOPE  H11Y 6299   2.842   8.551   5.893 -1.4318 -2.2558 -0.9961
   49DOPE  C312 6300   2.706   8.724   5.931  0.6961  0.2002 -0.5503
   49DOPE  H12X 6301   2.619   8.778   5.888  0.4921  2.1702  2.0959
   49DOPE  H12Y 6302   2.793   8.793   5.935  0.8887  0.0399 -1.6725
   49DOPE  C313 6303   2.667   8.674   6.070  0.4061  0.7886  0.2835
   49DOPE  H13X 6304   2.572   8.621   6.048  1.4375 -1.0476  0.0266
   49DOPE  H13Y 6305   2.741   8.592   6.088 -0.8603 -0.5393 -0.3369
   49DOPE  C314 6306   2.647   8.784   6.169  0.6067  0.3314 -0.1990
   49DOPE  H14X 6307   2.574   8.860   6.134 -0.7506 -1.2009 -0.8258
   49DOPE  H14Y 6308   2.743   8.839   6.184  1.1872 -1.3089  3.0433
   49DOPE  C315 6309   2.591   8.729   6.304  1.6517  0.3643  0.4280
   49DOPE  H15X 6310   2.636   8.636   6.345 -0.3057 -0.4655  0.7802
   49DOPE  H15Y 6311   2.486   8.700   6.282  1.6197  1.3978 -0.9160
   49DOPE  C316 6312   2.592   8.828   6.425 -0.6037  0.0727 -1.1949
   49DOPE  H16X 6313   2.527   8.786   6.504  2.2805 -4.3782 -0.8301
   49DOPE  H16Y 6314   2.563   8.931   6.395  0.6389  0.0669 -2.5313
   49DOPE  C317 6315   2.731   8.834   6.489 -0.2663  0.4847 -0.4549
   49DOPE  H17X 6316   2.757   8.728   6.511 -0.2607  1.0418  2.7849
   49DOPE  H17Y 6317   2.806   8.874   6.417  0.6719 -2.7012 -1.4330
   49DOPE  C318 6318   2.732   8.907   6.625  0.3209 -0.2375 -0.4298
   49DOPE  H18X 6319   2.697   8.844   6.710  0.0244  1.1861  0.5494
   49DOPE  H18Y 6320   2.835   8.931   6.658  0.1695 -1.0759  0.6895
   49DOPE  H18Z 6321   2.684   9.008   6.627  1.8790  0.5675  2.8273
   50DOPE     N 6322   0.322   4.370   4.505 -0.2945 -0.0271  0.2908
   50DOPE   HN1 6323   0.422   4.343   4.493 -0.8226 -1.7612 -0.5645
   50DOPE   HN2 6324   0.283   4.397   4.413  0.9279  0.1609 -0.1911
   50DOPE   HN3 6325   0.320   4.455   4.565 -1.8152  0.3149 -0.2041
   50DOPE   C12 6326   0.218   4.271   4.558 -0.0180 -0.2084  0.9735
   50DOPE  H12A 6327   0.269   4.195   4.621  1.5636 -1.1047 -1.2476
   50DOPE  H12B 6328   0.178   4.207   4.476  1.6736  0.3224 -0.3189
   50DOPE   C11 6329   0.101   4.339   4.628 -0.1014  0.4623  0.1734
   50DOPE  H11A 6330   0.135   4.401   4.714 -0.6117 -1.0819  1.5363
   50DOPE  H11B 6331   0.044   4.258   4.677 -0.3466  0.3950 -0.2216
   50DOPE     P 6332  -0.133   4.409   4.545  0.3992 -0.3800 -0.1147
   50DOPE   O13 6333  -0.201   4.281   4.564  0.5568  0.5068 -0.2686
   50DOPE   O14 6334  -0.191   4.497   4.437 -0.0779  0.0764 -0.4935
   50DOPE   O11 6335  -0.147   4.498   4.678 -0.1423  0.4558 -0.0636
   50DOPE   O12 6336   0.022   4.401   4.522 -0.3301  0.4219 -0.0923
   50DOPE    C1 6337  -0.097   4.629   4.681 -0.1324  0.0579  0.3813
   50DOPE    HA 6338  -0.175   4.705   4.659 -2.1228 -1.5592  1.5039
   50DOPE    HB 6339  -0.013   4.637   4.608  0.0207  0.2981  0.5831
   50DOPE    C2 6340  -0.038   4.640   4.825  0.5841 -0.2660 -0.4101
   50DOPE    HS 6341   0.023   4.548   4.836  0.7203  0.0612  2.0303
   50DOPE   O21 6342  -0.141   4.639   4.926  0.0282 -0.3154  0.3258
   50DOPE   C21 6343  -0.096   4.602   5.046  0.5125 -0.1170  0.2741
   50DOPE   O22 6344   0.013   4.551   5.066 -0.7474  0.4307 -0.4481
   50DOPE   C22 6345  -0.202   4.625   5.150  1.0936 -0.0084  0.4847
   50DOPE   H2R 6346  -0.289   4.558   5.134  0.1396  1.3074  0.0159
   50DOPE   H2S 6347  -0.237   4.729   5.134 -1.6636 -0.8865  0.2584
   50DOPE    C3 6348   0.046   4.771   4.836  0.3720  0.1157 -0.2774
   50DOPE    HX 6349  -0.025   4.856   4.834 -0.5663 -0.6486 -0.2050
   50DOPE    HY 6350   0.116   4.774   4.750 -1.1285  2.3336 -1.5002
   50DOPE   O31 6351   0.124   4.789   4.963 -0.0194  0.1625  0.1076
   50DOPE   C31 6352   0.237   4.714   4.973  0.3027  0.2342 -0.2804
   50DOPE   O32 6353   0.283   4.631   4.897  0.1669 -0.1939 -0.6061
   50DOPE   C32 6354   0.318   4.769   5.087 -0.1273  1.0024  0.4698
   50DOPE   H2X 6355   0.423   4.741   5.061 -0.2314  1.0213  0.0333
   50DOPE   H2Y 6356   0.331   4.879   5.097  1.1386  0.7788  1.5946
   50DOPE   C23 6357  -0.156   4.612   5.297 -0.2274 -0.0379 -0.7607
   50DOPE   H3R 6358  -0.091   4.698   5.323 -0.3286 -0.5086  1.1398
   50DOPE   H3S 6359  -0.094   4.526   5.327 -0.8275 -0.4366 -0.6498
   50DOPE   C24 6360  -0.279   4.609   5.393  0.0830 -0.2128 -0.7631
   50DOPE   H4R 6361  -0.352   4.537   5.352  0.0405 -1.4451  1.3100
   50DOPE   H4S 6362  -0.320   4.712   5.379 -1.6705 -0.8333 -0.4789
   50DOPE   C25 6363  -0.257   4.586   5.539  0.1410  0.6232 -0.4699
   50DOPE   H5R 6364  -0.160   4.632   5.567 -0.3077  2.0942 -1.2758
   50DOPE   H5S 6365  -0.245   4.477   5.558 -1.6439  0.6330  1.0287
   50DOPE   C26 6366  -0.374   4.653   5.621  0.0242  0.2014 -0.0840
   50DOPE   H6R 6367  -0.473   4.635   5.573 -0.0286 -1.0052  0.4531
   50DOPE   H6S 6368  -0.370   4.763   5.637  1.7062 -0.1675  2.4707
   50DOPE   C27 6369  -0.383   4.600   5.765 -0.0192  0.8261 -0.1930
   50DOPE   H7R 6370  -0.285   4.613   5.815 -0.8034 -0.1503  1.6769
   50DOPE   H7S 6371  -0.404   4.491   5.762  1.9116  0.4059 -3.1315
   50DOPE   C28 6372  -0.491   4.671   5.846  0.9435  0.0612  0.2724
   50DOPE   H8R 6373  -0.579   4.691   5.780  1.8519  3.6107 -0.0916
   50DOPE   H8S 6374  -0.461   4.774   5.875  0.1614  0.3374  0.1430
   50DOPE   C29 6375  -0.550   4.597   5.971  0.0750 -0.6617 -0.7660
   50DOPE   H9R 6376  -0.648   4.549   5.955 -1.1808  2.0572 -2.0858
   50DOPE  C210 6377  -0.512   4.624   6.097 -0.7705  0.4169 -1.3747
   50DOPE  H10R 6378  -0.547   4.560   6.178 -1.5964  2.0510 -0.3802
   50DOPE  C211 6379  -0.397   4.716   6.136  0.4022  0.4719 -0.2408
   50DOPE  H11R 6380  -0.327   4.750   6.056  2.4791  0.4576  1.4739
   50DOPE  H11S 6381  -0.338   4.665   6.216 -1.6429 -1.4651  0.1130
   50DOPE  C212 6382  -0.449   4.838   6.211  0.1536 -0.3456  0.4539
   50DOPE  H12R 6383  -0.512   4.900   6.143 -0.8825 -3.6221 -1.8082
   50DOPE  H12S 6384  -0.367   4.903   6.249  0.1998  0.0886 -0.3634
   50DOPE  C213 6385  -0.543   4.811   6.329  0.4942  0.4186  0.2725
   50DOPE  H13R 6386  -0.502   4.744   6.407 -0.8142 -1.0529 -0.2493
   50DOPE  H13S 6387  -0.636   4.767   6.286 -0.2200  2.3497 -0.2662
   50DOPE  C214 6388  -0.585   4.938   6.393  0.4184 -0.8343  0.1120
   50DOPE  H14R 6389  -0.674   4.909   6.453 -1.3130 -1.0155 -2.3589
   50DOPE  H14S 6390  -0.625   5.011   6.318 -1.3719 -3.0474 -1.2234
   50DOPE  C215 6391  -0.481   5.002   6.489  1.1441  0.9169 -0.6423
   50DOPE  H15R 6392  -0.403   5.050   6.425 -0.5188  1.3682 -2.4462
   50DOPE  H15S 6393  -0.427   4.923   6.546  0.2213 -0.1052 -1.1487
   50DOPE  C216 6394  -0.550   5.113   6.561  0.0885 -0.4843 -0.0575
   50DOPE  H16R 6395  -0.612   5.069   6.642  0.4903  0.5178  0.8195
   50DOPE  H16S 6396  -0.615   5.172   6.493  0.2912  2.4482  2.0500
   50DOPE  C217 6397  -0.446   5.214   6.624 -0.8894 -0.3113 -0.8372
   50DOPE  H17R 6398  -0.374   5.244   6.545  1.4851 -0.1997  1.2284
   50DOPE  H17S 6399  -0.384   5.165   6.702 -2.0345 -2.7504 -1.3733
   50DOPE  C218 6400  -0.507   5.339   6.677  0.9172 -0.3446 -0.3029
   50DOPE  H18R 6401  -0.590   5.370   6.610  0.3772 -0.8493  0.1284
   50DOPE  H18S 6402  -0.441   5.427   6.693  1.1769 -0.4769 -0.6547
   50DOPE  H18T 6403  -0.551   5.319   6.777 -1.5456  0.9826 -1.0543
   50DOPE   C33 6404   0.282   4.713   5.223  0.2678 -0.4188 -0.1904
   50DOPE   H3X 6405   0.271   4.603   5.218 -0.6359 -0.3783  0.4942
   50DOPE   H3Y 6406   0.180   4.756   5.239  0.0072 -1.0491 -0.1340
   50DOPE   C34 6407   0.379   4.758   5.326 -0.6576  0.1976 -0.0780
   50DOPE   H4X 6408   0.480   4.714   5.313 -1.8548 -2.5501 -0.8144
   50DOPE   H4Y 6409   0.394   4.866   5.309 -0.0045  0.0334 -0.5584
   50DOPE   C35 6410   0.333   4.743   5.469 -0.3973 -0.7520  0.0247
   50DOPE   H5X 6411   0.351   4.635   5.490 -0.6281 -0.8357 -0.2094
   50DOPE   H5Y 6412   0.223   4.752   5.470 -0.3581 -0.3048  0.2150
   50DOPE   C36 6413   0.396   4.836   5.567  0.4364  0.6180 -0.4301
   50DOPE   H6X 6414   0.347   4.931   5.534 -1.8821  0.2900  1.7305
   50DOPE   H6Y 6415   0.503   4.846   5.542 -0.1168  2.4862 -2.3456
   50DOPE   C37 6416   0.362   4.814   5.712 -0.6570 -1.0104 -0.2479
   50DOPE   H7X 6417   0.253   4.805   5.728 -1.2381  2.1018 -1.6263
   50DOPE   H7Y 6418   0.397   4.714   5.744  1.1815 -0.4150 -0.2386
   50DOPE   C38 6419   0.415   4.928   5.804 -0.5116 -0.0864  0.3150
   50DOPE   H8X 6420   0.396   5.025   5.755  0.3066  0.7170  1.5503
   50DOPE   H8Y 6421   0.525   4.918   5.797 -0.0881  3.1016  1.3135
   50DOPE   C39 6422   0.381   4.905   5.943  0.2705  0.1087  0.3747
   50DOPE   H9X 6423   0.388   4.801   5.978 -0.1198  0.1235  0.5138
   50DOPE  C310 6424   0.379   4.999   6.044 -0.1480  0.6401  0.2686
   50DOPE  H10X 6425   0.367   4.966   6.148  1.2089 -1.1067 -0.0755
   50DOPE  C311 6426   0.402   5.144   6.016  0.0811 -0.1374  0.2444
   50DOPE  H11X 6427   0.471   5.183   6.094 -1.6257  2.6102  0.5359
   50DOPE  H11Y 6428   0.457   5.159   5.921 -1.4364 -2.2652 -1.0574
   50DOPE  C312 6429   0.274   5.228   5.996  0.6276 -0.4557 -0.1766
   50DOPE  H12X 6430   0.228   5.197   5.900 -1.2935 -0.5359  0.7295
   50DOPE  H12Y 6431   0.304   5.333   5.976 -2.2886  0.8352  1.5685
   50DOPE  C313 6432   0.182   5.218   6.116  0.1595  0.4734  0.2402
   50DOPE  H13X 6433   0.090   5.281   6.107 -0.5049 -0.1176  2.2594
   50DOPE  H13Y 6434   0.147   5.113   6.128  1.1977 -0.0011 -0.6970
   50DOPE  C314 6435   0.263   5.257   6.242 -0.7552  0.2849  0.1816
   50DOPE  H14X 6436   0.318   5.349   6.212 -0.1784  0.5047  1.7939
   50DOPE  H14Y 6437   0.325   5.171   6.274 -1.9207 -0.0989  1.4851
   50DOPE  C315 6438   0.159   5.278   6.357 -0.1546  0.0630  0.2649
   50DOPE  H15X 6439   0.116   5.176   6.366  2.2389 -1.0555 -0.1578
   50DOPE  H15Y 6440   0.071   5.335   6.320 -0.0252 -0.9887 -1.8146
   50DOPE  C316 6441   0.223   5.345   6.479 -0.4475  0.2445  0.2810
   50DOPE  H16X 6442   0.273   5.436   6.440 -2.1225  1.8371  1.6955
   50DOPE  H16Y 6443   0.301   5.278   6.522 -0.4524 -0.1605 -0.3241
   50DOPE  C317 6444   0.123   5.382   6.586 -0.3026 -0.3693  0.4857
   50DOPE  H17X 6445   0.175   5.432   6.670  0.8065  0.8707 -0.9011
   50DOPE  H17Y 6446   0.060   5.464   6.545  3.4825  2.4925 -0.1493
   50DOPE  C318 6447   0.033   5.272   6.635  0.9911  0.2974 -0.6178
   50DOPE  H18X 6448  -0.027   5.303   6.724 -0.7385 -2.2947 -0.7769
   50DOPE  H18Y 6449  -0.046   5.245   6.561 -1.6921  2.3751  1.2753
   50DOPE  H18Z 6450   0.092   5.185   6.669 -0.3502 -0.2271  0.4671
   51DOPE     N 6451   5.254   7.342   5.073 -0.3257 -0.5267  0.0211
   51DOPE   HN1 6452   5.274   7.276   5.151 -0.2875  2.7722  3.1060
   51DOPE   HN2 6453   5.232   7.293   4.984 -1.6189 -0.0966  0.0908
   51DOPE   HN3 6454   5.333   7.410   5.077 -1.6464  1.2284 -1.6591
   51DOPE   C12 6455   5.123   7.407   5.119 -0.5885 -0.7926 -0.7700
   51DOPE  H12A 6456   5.105   7.497   5.056  0.7491 -0.8994 -1.3239
   51DOPE  H12B 6457   5.138   7.454   5.219 -1.3264  2.4327 -2.0453
   51DOPE   C11 6458   5.001   7.309   5.133 -0.1471  0.2842  0.8921
   51DOPE  H11A 6459   4.921   7.369   5.182 -1.5382 -0.9580  0.2268
   51DOPE  H11B 6460   5.025   7.224   5.201 -0.9651  1.4441  2.7155
   51DOPE     P 6461   4.894   7.354   4.907 -0.2500  0.3094 -0.0404
   51DOPE   O13 6462   4.811   7.283   4.808 -0.4375 -0.1912 -0.5901
   51DOPE   O14 6463   4.987   7.452   4.856 -0.2658 -0.5530  0.2710
   51DOPE   O11 6464   4.797   7.434   5.000 -0.6133  0.2602 -1.0621
   51DOPE   O12 6465   4.964   7.255   5.005 -0.2960 -0.5079 -0.5217
   51DOPE    C1 6466   4.662   7.399   5.031 -0.5874 -0.4096 -0.4257
   51DOPE    HA 6467   4.655   7.412   5.141  2.1250  0.7493 -0.2948
   51DOPE    HB 6468   4.640   7.293   5.006 -2.5236  0.1360 -1.1482
   51DOPE    C2 6469   4.567   7.508   4.967 -0.7763  1.3979  0.0638
   51DOPE    HS 6470   4.598   7.498   4.861  1.7681 -1.3567  0.9107
   51DOPE   O21 6471   4.595   7.647   5.017  0.5287 -0.1351 -0.5462
   51DOPE   C21 6472   4.541   7.739   4.945  0.6383 -0.0851 -0.8355
   51DOPE   O22 6473   4.474   7.724   4.845 -0.0885 -0.0677  0.2032
   51DOPE   C22 6474   4.581   7.875   5.003  0.0277 -0.7665  0.5720
   51DOPE   H2R 6475   4.598   7.942   4.916 -3.5143 -0.8643 -0.3478
   51DOPE   H2S 6476   4.671   7.846   5.061  1.0732 -1.3609 -1.2514
   51DOPE    C3 6477   4.421   7.453   4.982  0.4771  0.1170 -0.2383
   51DOPE    HX 6478   4.416   7.359   4.923 -1.9636  0.1612 -0.1924
   51DOPE    HY 6479   4.358   7.530   4.932  1.8449  0.0255 -2.2409
   51DOPE   O31 6480   4.384   7.425   5.122  0.4753  0.1224  0.4986
   51DOPE   C31 6481   4.317   7.528   5.189 -0.1366 -0.2660 -0.3172
   51DOPE   O32 6482   4.279   7.633   5.134 -0.1950 -0.1441  0.1092
   51DOPE   C32 6483   4.287   7.484   5.335  0.1847 -0.0429  0.8006
   51DOPE   H2X 6484   4.181   7.453   5.326 -0.2892  1.6237  0.1112
   51DOPE   H2Y 6485   4.354   7.398   5.354 -0.5327 -0.5026  1.2733
   51DOPE   C23 6486   4.481   7.939   5.105 -0.1972  0.7370 -0.1919
   51DOPE   H3R 6487   4.454   7.870   5.188  0.3975  1.6626  0.7961
   51DOPE   H3S 6488   4.385   7.968   5.057 -0.5553  2.2588  1.3102
   51DOPE   C24 6489   4.523   8.072   5.159  0.4157  0.0066 -0.2568
   51DOPE   H4R 6490   4.437   8.132   5.195  0.4386 -0.1896  0.1313
   51DOPE   H4S 6491   4.579   8.127   5.081 -0.4793 -0.6195 -1.3673
   51DOPE   C25 6492   4.620   8.067   5.283 -0.2804  0.1389  0.1792
   51DOPE   H5R 6493   4.657   8.172   5.279 -0.3118  0.2277 -4.5694
   51DOPE   H5S 6494   4.705   7.999   5.261 -1.8612 -1.7852 -0.2457
   51DOPE   C26 6495   4.571   8.007   5.411  0.2242 -0.4201  0.2742
   51DOPE   H6R 6496   4.541   7.901   5.394 -0.7280 -0.2485  0.7941
   51DOPE   H6S 6497   4.482   8.065   5.444 -0.2369 -0.8260 -0.2312
   51DOPE   C27 6498   4.678   8.011   5.522 -0.0049  0.1867 -0.4148
   51DOPE   H7R 6499   4.758   7.936   5.504 -0.8729 -1.2229  1.2642
   51DOPE   H7S 6500   4.614   7.987   5.610 -0.2344 -0.0094 -0.6324
   51DOPE   C28 6501   4.741   8.151   5.539 -0.2134  0.1211  0.3294
   51DOPE   H8R 6502   4.770   8.195   5.441 -0.9056 -1.9742 -0.8903
   51DOPE   H8S 6503   4.827   8.145   5.610 -0.6475  2.0953  1.0775
   51DOPE   C29 6504   4.659   8.259   5.605 -0.3373 -0.3454 -0.3963
   51DOPE   H9R 6505   4.597   8.312   5.532  0.7908 -0.6724 -1.6368
   51DOPE  C210 6506   4.660   8.289   5.737  0.5108  0.0983 -0.6895
   51DOPE  H10R 6507   4.599   8.373   5.773  0.5211  0.7767 -2.1814
   51DOPE  C211 6508   4.748   8.232   5.841  0.5564  0.5936 -0.2342
   51DOPE  H11R 6509   4.849   8.203   5.807  0.8143  0.6570  0.4524
   51DOPE  H11S 6510   4.694   8.142   5.879 -1.3730  1.8917  0.2880
   51DOPE  C212 6511   4.778   8.331   5.954 -0.9314 -1.0134 -0.7039
   51DOPE  H12R 6512   4.686   8.387   5.981 -1.4365 -1.0978 -2.1946
   51DOPE  H12S 6513   4.845   8.415   5.924 -0.5665 -0.6315  1.0479
   51DOPE  C213 6514   4.831   8.273   6.082 -0.1067 -0.1419 -0.0919
   51DOPE  H13R 6515   4.860   8.352   6.154  2.3843 -1.0672  0.0287
   51DOPE  H13S 6516   4.918   8.206   6.064 -0.4393 -0.9038  1.0354
   51DOPE  C214 6517   4.722   8.187   6.155 -0.4504  0.1668  0.0653
   51DOPE  H14R 6518   4.713   8.094   6.095 -1.1154 -1.0487  1.9514
   51DOPE  H14S 6519   4.621   8.234   6.158 -0.0479  1.1981  4.3507
   51DOPE  C215 6520   4.758   8.161   6.306  0.1934 -0.4087 -0.3508
   51DOPE  H15R 6521   4.764   8.262   6.351  0.0090  0.2093 -1.6575
   51DOPE  H15S 6522   4.852   8.102   6.308 -0.0768 -0.9051 -1.2635
   51DOPE  C216 6523   4.648   8.093   6.390 -0.4217  0.3318  0.0935
   51DOPE  H16R 6524   4.682   8.068   6.493  0.4516 -0.1881 -0.3113
   51DOPE  H16S 6525   4.629   7.989   6.355  1.3170  0.3326 -0.9647
   51DOPE  C217 6526   4.513   8.159   6.415  0.2380  0.5524  0.0433
   51DOPE  H17R 6527   4.431   8.091   6.449  1.2784 -0.6076  0.2882
   51DOPE  H17S 6528   4.487   8.204   6.317  2.7530  3.6979  0.6459
   51DOPE  C218 6529   4.532   8.263   6.525  0.3173 -0.2701  0.1921
   51DOPE  H18R 6530   4.585   8.353   6.485 -2.4945  0.9022 -1.2094
   51DOPE  H18S 6531   4.580   8.210   6.609  2.4837 -1.3031 -1.5815
   51DOPE  H18T 6532   4.430   8.291   6.559  0.3703  2.5647 -1.6075
   51DOPE   C33 6533   4.310   7.601   5.429 -0.0290  0.0313  0.3719
   51DOPE   H3X 6534   4.268   7.701   5.403 -0.8230 -0.1723  0.8556
   51DOPE   H3Y 6535   4.420   7.616   5.429 -0.0433  0.3182 -0.9359
   51DOPE   C34 6536   4.287   7.574   5.582 -0.4929 -0.6011  0.0082
   51DOPE   H4X 6537   4.344   7.650   5.639 -2.3635  0.1943  0.9155
   51DOPE   H4Y 6538   4.178   7.588   5.600 -0.7635  0.8735 -2.3124
   51DOPE   C35 6539   4.334   7.438   5.627 -0.5744  0.7732 -0.0822
   51DOPE   H5X 6540   4.445   7.435   5.630 -0.5996 -0.6023  0.4416
   51DOPE   H5Y 6541   4.292   7.359   5.561 -0.7959  0.9525 -0.1572
   51DOPE   C36 6542   4.292   7.403   5.771 -0.6137 -0.1019  0.1744
   51DOPE   H6X 6543   4.325   7.299   5.791 -1.7454 -0.9966 -2.2555
   51DOPE   H6Y 6544   4.182   7.414   5.780 -0.7355 -0.6805 -0.5737
   51DOPE   C37 6545   4.343   7.489   5.886 -0.8545 -0.0921  0.2909
   51DOPE   H7X 6546   4.441   7.533   5.856  0.3616 -1.5468  1.9160
   51DOPE   H7Y 6547   4.271   7.570   5.908 -0.2282  0.2744  1.0657
   51DOPE   C38 6548   4.378   7.416   6.018 -0.5522  0.0512 -0.2198
   51DOPE   H8X 6549   4.283   7.371   6.053 -2.0050  3.1522  0.1800
   51DOPE   H8Y 6550   4.403   7.495   6.093 -1.8082  0.0326  0.2321
   51DOPE   C39 6551   4.501   7.328   6.006  0.2859  0.0338  0.4267
   51DOPE   H9X 6552   4.521   7.273   5.913 -1.0946  1.2483 -0.6459
   51DOPE  C310 6553   4.595   7.320   6.103  0.3872 -1.0769  0.1042
   51DOPE  H10X 6554   4.688   7.265   6.083  1.5701  1.5391 -2.2886
   51DOPE  C311 6555   4.601   7.387   6.241 -0.4548  0.2334  0.8722
   51DOPE  H11X 6556   4.510   7.447   6.261 -0.4769 -0.2622  2.3581
   51DOPE  H11Y 6557   4.609   7.294   6.302  1.5548 -1.5136 -1.8159
   51DOPE  C312 6558   4.717   7.483   6.253  0.0777  0.5424 -0.2385
   51DOPE  H12X 6559   4.807   7.421   6.230 -0.4682 -0.5883  0.5866
   51DOPE  H12Y 6560   4.713   7.510   6.360 -0.0928  1.1294 -0.3887
   51DOPE  C313 6561   4.692   7.618   6.176 -0.6775  0.1882 -0.8146
   51DOPE  H13X 6562   4.693   7.599   6.066 -0.4571  1.8838 -1.1348
   51DOPE  H13Y 6563   4.592   7.658   6.203  0.0237  0.8018  1.0744
   51DOPE  C314 6564   4.795   7.731   6.201 -0.7462 -0.2236  0.2812
   51DOPE  H14X 6565   4.795   7.751   6.310 -0.9627  0.1732  0.2088
   51DOPE  H14Y 6566   4.768   7.825   6.148 -0.7908 -0.9130 -0.9728
   51DOPE  C315 6567   4.948   7.698   6.178  0.3909  0.4345  0.4145
   51DOPE  H15X 6568   4.967   7.603   6.233  1.8880 -0.2872 -1.2535
   51DOPE  H15Y 6569   5.016   7.778   6.212  0.4499 -0.1120  1.6037
   51DOPE  C316 6570   4.979   7.666   6.033 -0.1036  0.7594  0.4131
   51DOPE  H16X 6571   4.930   7.571   6.002 -1.8668  1.7491  0.0445
   51DOPE  H16Y 6572   5.088   7.646   6.029 -0.2136  0.1158  0.5526
   51DOPE  C317 6573   4.917   7.772   5.931 -0.2657  0.2273 -0.3749
   51DOPE  H17X 6574   4.807   7.768   5.922 -0.3070 -1.8424  0.3758
   51DOPE  H17Y 6575   4.942   7.871   5.973 -0.2891  0.5728 -1.1531
   51DOPE  C318 6576   4.978   7.765   5.791 -0.2011  0.6070 -0.5987
   51DOPE  H18X 6577   4.970   7.660   5.756 -0.4194  0.5321 -0.3158
   51DOPE  H18Y 6578   4.941   7.837   5.714 -1.5346 -1.0399 -1.5652
   51DOPE  H18Z 6579   5.087   7.785   5.802 -0.3004  0.8768 -0.0723
   52DOPE     N 6580   6.113   5.143   4.816 -0.5848 -0.3743  0.0135
   52DOPE   HN1 6581   6.077   5.232   4.776  2.3712  0.9734  0.1180
   52DOPE   HN2 6582   6.209   5.163   4.850 -1.4258 -0.3737  2.5775
   52DOPE   HN3 6583   6.115   5.076   4.737 -0.4669  0.4231 -0.6761
   52DOPE   C12 6584   6.011   5.104   4.923 -0.1467 -0.0002  0.2615
   52DOPE  H12A 6585   5.934   5.046   4.869  1.1557 -1.2133 -0.3418
   52DOPE  H12B 6586   5.960   5.198   4.956  0.2552  0.0337  0.7964
   52DOPE   C11 6587   6.057   5.023   5.047 -0.1352  0.2628 -0.0400
   52DOPE  H11A 6588   5.962   5.027   5.105 -0.1036 -0.2517  0.0485
   52DOPE  H11B 6589   6.138   5.073   5.103  0.2142  0.6359 -0.8586
   52DOPE     P 6590   6.223   4.829   4.981  0.5005  0.1895 -0.1083
   52DOPE   O13 6591   6.301   4.908   4.888  0.1405 -0.1702  0.1901
   52DOPE   O14 6592   6.210   4.684   4.959 -0.2754  0.0541  0.3018
   52DOPE   O11 6593   6.297   4.855   5.118 -0.1705 -0.7954 -0.8394
   52DOPE   O12 6594   6.076   4.889   5.008  0.3532 -0.0619 -0.1943
   52DOPE    C1 6595   6.241   4.830   5.247  0.1573  0.5715  0.1400
   52DOPE    HA 6596   6.162   4.752   5.238 -0.8886  1.5197  0.9309
   52DOPE    HB 6597   6.202   4.929   5.278  1.3292  1.7926 -1.9729
   52DOPE    C2 6598   6.345   4.784   5.351 -1.0322  0.2236 -0.4041
   52DOPE    HS 6599   6.285   4.741   5.434 -1.3787 -1.2003 -1.3674
   52DOPE   O21 6600   6.445   4.887   5.390  0.3581  0.0808 -0.6831
   52DOPE   C21 6601   6.392   4.978   5.474  0.5657 -0.3906 -0.7204
   52DOPE   O22 6602   6.279   4.978   5.515 -0.4638 -0.5948 -0.0028
   52DOPE   C22 6603   6.489   5.088   5.524 -0.3234 -0.3794 -0.3239
   52DOPE   H2R 6604   6.422   5.154   5.583  0.1032  0.5824 -0.8800
   52DOPE   H2S 6605   6.531   5.138   5.433  0.9544  1.7877  1.3397
   52DOPE    C3 6606   6.424   4.668   5.282  0.3525 -0.5588 -0.2486
   52DOPE    HX 6607   6.486   4.710   5.201  2.4556  1.5088  2.2478
   52DOPE    HY 6608   6.355   4.591   5.241  0.5774 -1.4698  1.0166
   52DOPE   O31 6609   6.502   4.605   5.389 -0.5727 -0.4475  0.4737
   52DOPE   C31 6610   6.638   4.596   5.366 -0.1472  0.4667  0.5100
   52DOPE   O32 6611   6.698   4.640   5.269  0.0009  0.0589 -0.3227
   52DOPE   C32 6612   6.715   4.528   5.481 -0.3779  0.0546 -0.6574
   52DOPE   H2X 6613   6.715   4.419   5.461 -1.2302 -0.0454 -0.1351
   52DOPE   H2Y 6614   6.820   4.563   5.491 -0.6474  0.1970  2.5414
   52DOPE   C23 6615   6.604   5.045   5.621 -0.3103 -0.4401  0.2413
   52DOPE   H3R 6616   6.568   4.984   5.706  0.3362  0.3169  1.0802
   52DOPE   H3S 6617   6.639   5.141   5.665  1.3026  0.2898 -2.4317
   52DOPE   C24 6618   6.721   4.989   5.539 -0.2439 -0.0761 -0.0291
   52DOPE   H4R 6619   6.743   5.071   5.468 -1.8226  3.3870  3.1209
   52DOPE   H4S 6620   6.696   4.893   5.489  1.4967  0.3929 -1.8987
   52DOPE   C25 6621   6.828   4.954   5.633 -0.2628  0.6368  0.0365
   52DOPE   H5R 6622   6.783   4.882   5.706 -0.9511 -0.7085 -1.6434
   52DOPE   H5S 6623   6.862   5.043   5.690  1.5771  0.5299 -0.8224
   52DOPE   C26 6624   6.946   4.878   5.572  0.0887  0.2742  0.0249
   52DOPE   H6R 6625   6.910   4.776   5.546  0.6363 -0.0602  0.5620
   52DOPE   H6S 6626   7.025   4.856   5.646 -0.4073  0.2711  0.5666
   52DOPE   C27 6627   7.008   4.939   5.445  0.5260 -0.5892 -0.3299
   52DOPE   H7R 6628   6.928   4.973   5.377 -0.0791 -0.0808  0.6208
   52DOPE   H7S 6629   7.061   4.866   5.380 -1.3693 -0.7196 -1.8072
   52DOPE   C28 6630   7.091   5.059   5.474 -0.5306  0.0405 -0.0755
   52DOPE   H8R 6631   7.034   5.140   5.525 -0.4449 -1.1135  1.9727
   52DOPE   H8S 6632   7.125   5.101   5.377  0.8127 -1.2144 -0.1649
   52DOPE   C29 6633   7.220   5.044   5.545 -0.1611  0.0949  0.7528
   52DOPE   H9R 6634   7.289   4.973   5.498  0.1678 -0.9539  2.7003
   52DOPE  C210 6635   7.255   5.108   5.655  0.5044 -1.0474 -0.4178
   52DOPE  H10R 6636   7.345   5.074   5.709 -0.5351  0.1311  2.2371
   52DOPE  C211 6637   7.170   5.204   5.739 -0.3140 -0.2120  0.4102
   52DOPE  H11R 6638   7.202   5.213   5.845  1.2684 -0.0945 -0.0434
   52DOPE  H11S 6639   7.063   5.176   5.738 -0.7315  1.2772  1.0703
   52DOPE  C212 6640   7.178   5.350   5.685  0.3124  0.5480 -0.6178
   52DOPE  H12R 6641   7.149   5.366   5.579 -0.7595  0.2912 -0.3848
   52DOPE  H12S 6642   7.284   5.378   5.702  0.3042 -0.0003  0.4504
   52DOPE  C213 6643   7.084   5.440   5.772 -0.2449  0.5974 -0.3629
   52DOPE  H13R 6644   7.107   5.423   5.880  2.5695 -1.8530 -1.2115
   52DOPE  H13S 6645   6.979   5.410   5.754 -0.4535  2.0096 -1.7422
   52DOPE  C214 6646   7.094   5.590   5.748  0.1503  0.1575  0.3247
   52DOPE  H14R 6647   7.004   5.633   5.796  0.7589  1.2967  0.4894
   52DOPE  H14S 6648   7.083   5.610   5.639  0.1377  1.1342  0.4995
   52DOPE  C215 6649   7.220   5.656   5.803 -0.3130  0.2040 -0.3104
   52DOPE  H15R 6650   7.235   5.761   5.769  2.8027 -0.6883 -2.0917
   52DOPE  H15S 6651   7.310   5.602   5.765  0.7654  0.8575  1.1825
   52DOPE  C216 6652   7.228   5.654   5.956 -0.2594  0.4551 -0.3606
   52DOPE  H16R 6653   7.318   5.602   5.995 -1.1881 -0.1741  1.0159
   52DOPE  H16S 6654   7.138   5.612   6.004 -0.2689  3.5451  2.7602
   52DOPE  C217 6655   7.234   5.800   6.005 -0.2262  0.3857  0.1994
   52DOPE  H17R 6656   7.142   5.861   5.990  1.0706  2.1395 -1.0563
   52DOPE  H17S 6657   7.313   5.859   5.953 -1.1845  0.9807 -0.6159
   52DOPE  C218 6658   7.242   5.807   6.152  0.0326 -0.7566 -0.3933
   52DOPE  H18R 6659   7.147   5.761   6.186  0.4215 -0.1350  1.6993
   52DOPE  H18S 6660   7.327   5.753   6.199  0.5675 -0.1461 -0.6408
   52DOPE  H18T 6661   7.237   5.911   6.192  0.7950 -0.7937 -0.1722
   52DOPE   C33 6662   6.649   4.551   5.621  0.1637 -0.1833  0.3430
   52DOPE   H3X 6663   6.546   4.511   5.624 -0.1954  0.5828 -0.9867
   52DOPE   H3Y 6664   6.651   4.660   5.639  1.4647 -0.0591 -0.4102
   52DOPE   C34 6665   6.728   4.480   5.730  0.1114  0.4482 -1.2408
   52DOPE   H4X 6666   6.735   4.378   5.688  0.4906 -0.1384  0.1743
   52DOPE   H4Y 6667   6.827   4.531   5.737 -0.3203  1.1932 -0.3294
   52DOPE   C35 6668   6.654   4.499   5.862 -0.0826 -0.1866 -0.3957
   52DOPE   H5X 6669   6.724   4.457   5.938 -0.7660 -3.4458 -1.4376
   52DOPE   H5Y 6670   6.559   4.444   5.876  0.0497 -0.4172 -0.4002
   52DOPE   C36 6671   6.640   4.643   5.914 -0.0323 -0.3611  0.8555
   52DOPE   H6X 6672   6.593   4.636   6.015 -0.6699 -1.8045  0.4877
   52DOPE   H6Y 6673   6.572   4.701   5.849  0.6212  0.1775  0.6492
   52DOPE   C37 6674   6.779   4.714   5.931 -0.0398 -0.2212  0.1894
   52DOPE   H7X 6675   6.847   4.659   5.999  1.0407 -0.1217 -0.7807
   52DOPE   H7Y 6676   6.819   4.714   5.827 -1.4600  1.5307 -0.4172
   52DOPE   C38 6677   6.770   4.856   5.986  1.0398  0.8134 -0.7195
   52DOPE   H8X 6678   6.735   4.844   6.091  0.7567 -2.1259 -1.0634
   52DOPE   H8Y 6679   6.700   4.913   5.921  0.5256 -0.4239 -1.2856
   52DOPE   C39 6680   6.903   4.926   5.994 -0.6721  0.1572 -0.1784
   52DOPE   H9X 6681   6.994   4.865   6.002 -0.2389  0.5700 -1.6768
   52DOPE  C310 6682   6.924   5.058   5.974 -0.1576 -0.5768 -0.2459
   52DOPE  H10X 6683   7.025   5.101   5.975 -0.3599 -0.0938 -0.3716
   52DOPE  C311 6684   6.828   5.166   5.932 -0.0327  0.1920  0.5118
   52DOPE  H11X 6685   6.874   5.222   5.848  2.2278 -0.8966  0.9685
   52DOPE  H11Y 6686   6.731   5.131   5.889  0.2605  0.8816 -0.7456
   52DOPE  C312 6687   6.788   5.287   6.031  0.3226 -0.2814  0.2811
   52DOPE  H12X 6688   6.722   5.362   5.982  1.2284 -0.3260 -1.0758
   52DOPE  H12Y 6689   6.876   5.341   6.073 -0.2721 -0.1674  1.4151
   52DOPE  C313 6690   6.721   5.238   6.158  0.2471 -0.1105  0.3309
   52DOPE  H13X 6691   6.642   5.169   6.122  1.3722 -0.2341 -2.0704
   52DOPE  H13Y 6692   6.791   5.174   6.216  0.2744 -0.1639  0.2381
   52DOPE  C314 6693   6.679   5.347   6.251 -0.0778 -0.6303 -0.1177
   52DOPE  H14X 6694   6.615   5.420   6.197  0.0967 -0.1538  0.3056
   52DOPE  H14Y 6695   6.768   5.403   6.289 -0.2239  0.3051 -1.1137
   52DOPE  C315 6696   6.603   5.297   6.366 -0.2164 -0.3213 -0.4216
   52DOPE  H15X 6697   6.544   5.206   6.339 -0.9656  0.6262 -2.2229
   52DOPE  H15Y 6698   6.529   5.377   6.387  1.3449  1.0253  0.1377
   52DOPE  C316 6699   6.684   5.283   6.492  1.1635  0.0408 -0.6231
   52DOPE  H16X 6700   6.743   5.374   6.514  1.1919 -0.5825  2.1405
   52DOPE  H16Y 6701   6.760   5.204   6.476  0.2007 -1.3844  1.4926
   52DOPE  C317 6702   6.598   5.232   6.609  0.0431 -0.2334  0.9628
   52DOPE  H17X 6703   6.511   5.299   6.628 -0.8340 -1.5903  1.9515
   52DOPE  H17Y 6704   6.549   5.134   6.589 -0.6222 -0.0326  1.5573
   52DOPE  C318 6705   6.684   5.223   6.735 -0.6109  0.5955  0.0971
   52DOPE  H18X 6706   6.625   5.205   6.828  1.2225 -0.0726  1.1779
   52DOPE  H18Y 6707   6.765   5.147   6.731  1.4912  2.5540  2.1725
   52DOPE  H18Z 6708   6.729   5.321   6.759 -0.8553  0.7179  0.0585
   53DOPE     N 6709   6.163   6.373   4.525  0.3160 -0.7011  0.2061
   53DOPE   HN1 6710   6.079   6.431   4.549  0.5388  0.6814 -2.0691
   53DOPE   HN2 6711   6.132   6.299   4.459  0.3537 -1.7118  1.2849
   53DOPE   HN3 6712   6.202   6.329   4.611 -0.9105 -3.0356 -0.3231
   53DOPE   C12 6713   6.265   6.463   4.474  0.5127  0.8449 -0.1285
   53DOPE  H12A 6714   6.232   6.503   4.376  0.5239 -0.4993 -0.7081
   53DOPE  H12B 6715   6.348   6.394   4.449 -0.1806  0.8645 -2.7007
   53DOPE   C11 6716   6.310   6.564   4.576  0.3234 -0.4821  0.4903
   53DOPE  H11A 6717   6.401   6.617   4.540 -0.9740  1.9139  0.5395
   53DOPE  H11B 6718   6.337   6.490   4.654  0.8601  1.1278  1.9003
   53DOPE     P 6719   6.166   6.673   4.773 -0.1346  0.6721  0.0564
   53DOPE   O13 6720   6.035   6.736   4.775  0.2848 -0.0160 -0.4033
   53DOPE   O14 6721   6.269   6.742   4.843  0.0296  0.5657  0.4609
   53DOPE   O11 6722   6.159   6.525   4.828  0.1471  0.1453  0.2872
   53DOPE   O12 6723   6.211   6.650   4.627 -0.0479  0.1857 -0.0627
   53DOPE    C1 6724   6.041   6.482   4.894 -0.0251  0.9883 -0.5416
   53DOPE    HA 6725   6.036   6.373   4.870  1.4505  0.8520 -0.3322
   53DOPE    HB 6726   5.951   6.534   4.855 -1.7232  0.6409  2.5914
   53DOPE    C2 6727   6.044   6.492   5.053  0.5511  0.2866 -0.6202
   53DOPE    HS 6728   6.034   6.602   5.063 -1.3646  0.1266 -0.3517
   53DOPE   O21 6729   6.173   6.456   5.101 -0.1977 -0.6399 -0.2998
   53DOPE   C21 6730   6.201   6.519   5.217  0.2759 -0.7639  0.6036
   53DOPE   O22 6731   6.131   6.599   5.276  0.2227 -0.4057  0.1618
   53DOPE   C22 6732   6.347   6.486   5.254  0.9916  0.0916 -0.2174
   53DOPE   H2R 6733   6.390   6.588   5.262 -1.7428  1.5199 -1.9850
   53DOPE   H2S 6734   6.401   6.442   5.167  1.7002  2.1632 -0.8997
   53DOPE    C3 6735   5.929   6.429   5.130  0.4058 -0.0809 -0.5897
   53DOPE    HX 6736   5.845   6.502   5.130  1.8462  1.6802  1.6748
   53DOPE    HY 6737   5.962   6.422   5.236  1.8439  1.0743 -0.9382
   53DOPE   O31 6738   5.892   6.299   5.089  0.4515 -0.0841  0.2898
   53DOPE   C31 6739   5.793   6.249   5.162 -0.0316  0.1457  0.0591
   53DOPE   O32 6740   5.734   6.311   5.250 -0.1085  0.9090  0.3840
   53DOPE   C32 6741   5.747   6.107   5.130  0.1426 -0.7876  0.3801
   53DOPE   H2X 6742   5.669   6.124   5.053  2.5591  1.9735 -1.6745
   53DOPE   H2Y 6743   5.837   6.057   5.090  1.6453  1.8109  0.2904
   53DOPE   C23 6744   6.358   6.390   5.379 -0.1932  0.1379 -0.4188
   53DOPE   H3R 6745   6.324   6.441   5.472  1.6943  1.8066 -0.5733
   53DOPE   H3S 6746   6.460   6.349   5.392 -0.6971 -0.8377  0.5986
   53DOPE   C24 6747   6.273   6.264   5.364 -0.7738  0.3225 -0.1314
   53DOPE   H4R 6748   6.321   6.197   5.290 -1.1985 -1.9071  1.5335
   53DOPE   H4S 6749   6.170   6.295   5.336 -1.8012 -0.4184  2.5942
   53DOPE   C25 6750   6.273   6.172   5.487  0.5515  1.3479 -0.7015
   53DOPE   H5R 6751   6.223   6.224   5.572  0.5180 -3.5511  2.7254
   53DOPE   H5S 6752   6.368   6.138   5.534 -0.2448 -2.0974 -1.2664
   53DOPE   C26 6753   6.190   6.040   5.468 -0.6408  0.0588  0.1009
   53DOPE   H6R 6754   6.228   5.999   5.372 -1.3169 -1.2684  0.3784
   53DOPE   H6S 6755   6.084   6.073   5.466 -0.6507  0.0584 -1.8594
   53DOPE   C27 6756   6.213   5.944   5.586  0.2414  0.3145  0.1200
   53DOPE   H7R 6757   6.182   6.001   5.676 -1.4251  0.2403 -0.3807
   53DOPE   H7S 6758   6.317   5.906   5.596 -0.2108 -0.5800  1.7454
   53DOPE   C28 6759   6.124   5.829   5.565 -0.0335  0.2016  0.8246
   53DOPE   H8R 6760   6.111   5.800   5.458 -0.6167  0.0985  0.9192
   53DOPE   H8S 6761   6.020   5.863   5.585 -0.2746  2.2764 -2.9783
   53DOPE   C29 6762   6.159   5.705   5.642 -0.1705 -0.0369 -0.0117
   53DOPE   H9R 6763   6.218   5.635   5.581 -1.3138  0.2947 -1.5723
   53DOPE  C210 6764   6.133   5.692   5.781  0.7136  0.2344  0.1971
   53DOPE  H10R 6765   6.170   5.599   5.827 -1.3135 -1.1671 -0.8745
   53DOPE  C211 6766   6.067   5.780   5.888  0.1804  0.1433  0.3323
   53DOPE  H11R 6767   6.010   5.712   5.954  0.1574 -0.5935 -0.4213
   53DOPE  H11S 6768   5.995   5.849   5.841  0.1016  0.8684  1.4943
   53DOPE  C212 6769   6.166   5.847   5.986  0.7603  0.7097  0.0215
   53DOPE  H12R 6770   6.100   5.906   6.054  0.2349 -0.5943  0.6650
   53DOPE  H12S 6771   6.228   5.917   5.925  0.4501  1.3075  0.3759
   53DOPE  C213 6772   6.243   5.742   6.074  0.7785 -0.7344  0.8437
   53DOPE  H13R 6773   6.333   5.702   6.022  1.4486  1.8361 -0.1637
   53DOPE  H13S 6774   6.170   5.663   6.101 -0.4805 -0.1872 -0.7880
   53DOPE  C214 6775   6.293   5.798   6.211 -0.6099 -0.8401  0.6829
   53DOPE  H14R 6776   6.205   5.817   6.276 -0.3683  2.9436  0.1096
   53DOPE  H14S 6777   6.339   5.898   6.192  0.3373 -1.7119 -2.0989
   53DOPE  C215 6778   6.394   5.711   6.279  0.4843  0.4864 -0.0116
   53DOPE  H15R 6779   6.461   5.672   6.199  1.0301  1.1929  0.0970
   53DOPE  H15S 6780   6.344   5.620   6.318 -0.5900  1.1848  0.2747
   53DOPE  C216 6781   6.473   5.776   6.400 -0.2120 -0.3946 -0.1351
   53DOPE  H16R 6782   6.517   5.872   6.366 -1.6809  0.9860  1.6551
   53DOPE  H16S 6783   6.563   5.715   6.425  0.2579  0.4313  0.2307
   53DOPE  C217 6784   6.395   5.809   6.526 -0.6745  0.8983  0.1337
   53DOPE  H17R 6785   6.322   5.726   6.532 -0.3709  0.4457 -1.8460
   53DOPE  H17S 6786   6.328   5.897   6.524 -0.9848  0.7690  2.2984
   53DOPE  C218 6787   6.485   5.829   6.655  0.0535 -0.1750  0.0029
   53DOPE  H18R 6788   6.540   5.924   6.643 -0.2821 -0.0472 -0.5611
   53DOPE  H18S 6789   6.552   5.742   6.675  0.7049  0.3438  0.0904
   53DOPE  H18T 6790   6.417   5.834   6.742  0.7258 -0.9302  0.5882
   53DOPE   C33 6791   5.692   6.043   5.267  0.1953 -0.2427 -0.3267
   53DOPE   H3X 6792   5.648   5.948   5.230 -0.2404 -0.0757 -0.2532
   53DOPE   H3Y 6793   5.602   6.103   5.293 -0.4602 -1.5822  0.5774
   53DOPE   C34 6794   5.802   6.028   5.377  0.3786 -0.4558 -0.3599
   53DOPE   H4X 6795   5.896   5.982   5.342  1.3064 -0.5907  2.1059
   53DOPE   H4Y 6796   5.832   6.133   5.400 -2.1809  0.5477 -1.1917
   53DOPE   C35 6797   5.755   5.947   5.494  0.7191  0.2522  0.3934
   53DOPE   H5X 6798   5.656   5.975   5.536  2.0665 -0.6922  4.6952
   53DOPE   H5Y 6799   5.825   5.968   5.577  0.3934  1.1665  0.4486
   53DOPE   C36 6800   5.759   5.800   5.460  0.0913  0.1173 -0.5698
   53DOPE   H6X 6801   5.867   5.780   5.474  0.4188  2.3801  0.6522
   53DOPE   H6Y 6802   5.728   5.772   5.357  0.6771 -0.0537 -0.7046
   53DOPE   C37 6803   5.681   5.703   5.548 -0.5901  0.3102 -0.0533
   53DOPE   H7X 6804   5.574   5.735   5.546 -0.6086  0.2029 -1.3604
   53DOPE   H7Y 6805   5.676   5.600   5.505  0.1951  0.3058 -0.1335
   53DOPE   C38 6806   5.740   5.683   5.686  1.2961 -0.6112 -0.3439
   53DOPE   H8X 6807   5.746   5.788   5.720  0.2718 -1.2609  2.0260
   53DOPE   H8Y 6808   5.846   5.655   5.669  1.7066  1.9084 -2.5580
   53DOPE   C39 6809   5.678   5.591   5.783  0.0325  0.1922 -0.9523
   53DOPE   H9X 6810   5.640   5.503   5.730 -0.5097 -0.6598  0.7859
   53DOPE  C310 6811   5.664   5.599   5.918  0.4914  0.8576  0.8774
   53DOPE  H10X 6812   5.611   5.514   5.963  2.0268 -1.2382 -1.0426
   53DOPE  C311 6813   5.703   5.700   6.018 -0.3063 -0.6606  0.1584
   53DOPE  H11X 6814   5.719   5.643   6.112  1.5501 -0.0250  0.2639
   53DOPE  H11Y 6815   5.791   5.758   5.984 -0.4299  0.2025  1.2694
   53DOPE  C312 6816   5.593   5.806   6.054 -0.2025  0.0702  0.4355
   53DOPE  H12X 6817   5.506   5.742   6.083 -0.4271  0.7193  1.2183
   53DOPE  H12Y 6818   5.562   5.863   5.964 -1.0381 -0.8574  0.1129
   53DOPE  C313 6819   5.647   5.899   6.166 -0.1265  0.5828 -0.0355
   53DOPE  H13X 6820   5.566   5.953   6.222 -1.2814 -1.1623  0.0538
   53DOPE  H13Y 6821   5.695   5.830   6.238 -2.2678 -1.6923 -0.6343
   53DOPE  C314 6822   5.731   6.016   6.109  0.0023 -0.0332 -0.1686
   53DOPE  H14X 6823   5.799   5.957   6.043 -1.4282  0.3351 -2.0418
   53DOPE  H14Y 6824   5.779   6.070   6.193 -0.4549 -2.8198  2.0421
   53DOPE  C315 6825   5.675   6.118   6.011  0.0068  0.4017  0.0746
   53DOPE  H15X 6826   5.664   6.215   6.065  0.3322 -0.5619  1.9904
   53DOPE  H15Y 6827   5.570   6.091   5.987 -0.6275  0.7177  2.2519
   53DOPE  C316 6828   5.769   6.131   5.887  0.3904 -0.5129  0.3164
   53DOPE  H16X 6829   5.745   6.210   5.813  2.0798 -0.8686 -0.6736
   53DOPE  H16Y 6830   5.753   6.041   5.823  1.3206 -1.5485  1.5001
   53DOPE  C317 6831   5.915   6.159   5.921  0.3145 -1.1204  0.2861
   53DOPE  H17X 6832   5.922   6.250   5.984  2.4063  0.2407 -1.7430
   53DOPE  H17Y 6833   5.953   6.074   5.981 -3.1176 -2.1221  1.2625
   53DOPE  C318 6834   6.018   6.197   5.815  0.3213  0.4912  0.2315
   53DOPE  H18X 6835   6.124   6.192   5.850  0.1909  0.3115  0.6016
   53DOPE  H18Y 6836   6.027   6.106   5.753  0.6496 -0.5107  1.6987
   53DOPE  H18Z 6837   5.985   6.285   5.756  0.1606  0.5744  0.4441
   54DOPE     N 6838   6.500   5.396   4.431  0.1134 -0.0967  0.5012
   54DOPE   HN1 6839   6.568   5.358   4.361 -0.3238 -1.5830  0.8374
   54DOPE   HN2 6840   6.418   5.413   4.370  0.4325  0.2357  0.1546
   54DOPE   HN3 6841   6.530   5.488   4.468 -0.6715  0.1657  0.4996
   54DOPE   C12 6842   6.472   5.287   4.535 -0.2304 -0.5459  0.2272
   54DOPE  H12A 6843   6.480   5.192   4.477  3.0302 -0.9652  1.2003
   54DOPE  H12B 6844   6.369   5.308   4.571 -0.3855 -0.2384 -0.3748
   54DOPE   C11 6845   6.575   5.296   4.649  0.2422  0.0934  0.0520
   54DOPE  H11A 6846   6.675   5.276   4.604  1.6307 -0.9874  3.2869
   54DOPE  H11B 6847   6.543   5.214   4.716 -0.1298 -0.1981 -0.4748
   54DOPE     P 6848   6.643   5.437   4.862  0.4942  0.4639  0.1096
   54DOPE   O13 6849   6.557   5.389   4.973 -0.4406 -0.7328  0.4049
   54DOPE   O14 6850   6.681   5.579   4.872  0.2125 -0.0072  0.1912
   54DOPE   O11 6851   6.765   5.340   4.839  0.2776  0.4907 -0.1309
   54DOPE   O12 6852   6.572   5.419   4.716  0.4729  0.0564 -0.1012
   54DOPE    C1 6853   6.895   5.388   4.829 -0.2409  0.1842  0.5585
   54DOPE    HA 6854   6.897   5.491   4.785 -0.8094  0.6338  1.5432
   54DOPE    HB 6855   6.935   5.319   4.752 -0.8943 -0.2495  0.5968
   54DOPE    C2 6856   6.977   5.367   4.950 -0.4141 -0.1862 -0.3790
   54DOPE    HS 6857   6.987   5.259   4.976  0.8453  0.4734  2.2098
   54DOPE   O21 6858   6.912   5.434   5.062  0.5489  0.2297  0.5360
   54DOPE   C21 6859   6.913   5.361   5.173  0.1595  0.0540 -0.0558
   54DOPE   O22 6860   6.953   5.248   5.186  0.0007  0.0069 -0.2453
   54DOPE   C22 6861   6.863   5.441   5.288 -0.1628 -0.8193  0.0149
   54DOPE   H2R 6862   6.775   5.495   5.246  1.1786 -0.0175 -1.9308
   54DOPE   H2S 6863   6.938   5.512   5.330  0.1033 -1.8785  1.3675
   54DOPE    C3 6864   7.125   5.423   4.944  0.4650 -0.1921  0.1916
   54DOPE    HX 6865   7.132   5.530   4.915 -0.9756 -0.1177  0.0680
   54DOPE    HY 6866   7.182   5.364   4.869  0.4511  0.9120 -0.7159
   54DOPE   O31 6867   7.197   5.406   5.072 -0.2340 -0.1727  0.4248
   54DOPE   C31 6868   7.236   5.515   5.143  0.2290 -0.5000 -0.7471
   54DOPE   O32 6869   7.182   5.624   5.137 -0.1715 -0.0590  0.3376
   54DOPE   C32 6870   7.361   5.485   5.231  0.3057 -0.2323  0.0562
   54DOPE   H2X 6871   7.443   5.443   5.168 -0.3654 -0.6821 -0.5329
   54DOPE   H2Y 6872   7.404   5.575   5.279  4.8969 -3.0705  1.9717
   54DOPE   C23 6873   6.819   5.343   5.399 -0.1561  0.0647  0.2563
   54DOPE   H3R 6874   6.902   5.275   5.428  0.2840 -0.9279 -2.9538
   54DOPE   H3S 6875   6.730   5.290   5.359 -0.1806 -0.1945  0.6562
   54DOPE   C24 6876   6.762   5.419   5.523  0.1567 -0.3404  0.2164
   54DOPE   H4R 6877   6.824   5.509   5.542 -0.2181 -0.4432  2.1161
   54DOPE   H4S 6878   6.756   5.355   5.614 -2.2183 -2.4816 -1.2976
   54DOPE   C25 6879   6.612   5.459   5.484  0.1430 -1.0581  0.2837
   54DOPE   H5R 6880   6.571   5.363   5.446  0.0420 -1.0719  0.4279
   54DOPE   H5S 6881   6.609   5.532   5.401 -2.0664 -1.1248  0.2452
   54DOPE   C26 6882   6.520   5.511   5.601 -0.0041 -0.1053  0.4113
   54DOPE   H6R 6883   6.519   5.444   5.690  0.3534  0.7656  1.0855
   54DOPE   H6S 6884   6.415   5.532   5.570  0.4896  1.9356 -0.0381
   54DOPE   C27 6885   6.578   5.649   5.640 -1.1985  0.6279  0.3992
   54DOPE   H7R 6886   6.559   5.721   5.557  0.0289  1.9588  1.2291
   54DOPE   H7S 6887   6.687   5.663   5.653 -0.5519 -2.7939 -0.1365
   54DOPE   C28 6888   6.522   5.720   5.769  0.6793  0.0486 -0.7344
   54DOPE   H8R 6889   6.412   5.707   5.767  0.9153 -2.3287 -1.7837
   54DOPE   H8S 6890   6.561   5.824   5.769  1.1187 -0.1053  0.0783
   54DOPE   C29 6891   6.578   5.643   5.889  0.0675  0.7424 -0.0556
   54DOPE   H9R 6892   6.522   5.552   5.914 -2.9284  2.4211 -0.2216
   54DOPE  C210 6893   6.675   5.688   5.975 -0.0821 -0.4696  0.4352
   54DOPE  H10R 6894   6.684   5.624   6.064  0.4871  0.3797  0.9940
   54DOPE  C211 6895   6.752   5.818   5.972 -0.1247 -0.1427  0.3780
   54DOPE  H11R 6896   6.721   5.895   5.898 -0.0606  0.4439  0.9484
   54DOPE  H11S 6897   6.854   5.791   5.940 -0.8413 -1.7404 -0.6952
   54DOPE  C212 6898   6.776   5.887   6.109  0.6561 -1.0756 -0.1003
   54DOPE  H12R 6899   6.826   5.809   6.170  1.8191  1.7999  2.9698
   54DOPE  H12S 6900   6.681   5.920   6.156 -1.1274 -1.7007 -3.0117
   54DOPE  C213 6901   6.859   6.015   6.103  0.2540  0.3663  0.3701
   54DOPE  H13R 6902   6.816   6.091   6.034  0.7230  0.2020 -0.1118
   54DOPE  H13S 6903   6.955   5.998   6.049 -0.0315  1.1108 -0.3928
   54DOPE  C214 6904   6.872   6.085   6.240 -0.3282  0.2342 -0.1279
   54DOPE  H14R 6905   6.772   6.122   6.271 -0.2447 -0.7608  1.4249
   54DOPE  H14S 6906   6.936   6.173   6.216  0.8726 -0.9376 -1.3738
   54DOPE  C215 6907   6.923   5.996   6.352 -0.0583  0.6373  0.3361
   54DOPE  H15R 6908   7.004   5.930   6.315  0.4501  1.4741 -0.0829
   54DOPE  H15S 6909   6.845   5.925   6.388 -0.4592 -0.0922 -1.8367
   54DOPE  C216 6910   6.969   6.073   6.479 -0.1229  0.0750 -0.4476
   54DOPE  H16R 6911   6.882   6.118   6.531  1.4034  1.2847  1.1497
   54DOPE  H16S 6912   7.039   6.155   6.454 -1.1470  1.0329 -0.2701
   54DOPE  C217 6913   7.050   5.986   6.581 -0.0131 -0.1175 -0.5498
   54DOPE  H17R 6914   6.987   5.904   6.622 -0.1874 -0.3419 -1.2433
   54DOPE  H17S 6915   7.072   6.050   6.669 -1.2949  0.5857 -0.7190
   54DOPE  C218 6916   7.174   5.922   6.530  0.0531  0.0335 -0.2741
   54DOPE  H18R 6917   7.146   5.824   6.487  2.7365 -1.0747  0.3663
   54DOPE  H18S 6918   7.250   5.894   6.605 -1.2848  0.7785  1.4279
   54DOPE  H18T 6919   7.218   5.979   6.445  2.9765 -2.1027 -0.3408
   54DOPE   C33 6920   7.335   5.381   5.345  0.4852  0.1150 -0.4598
   54DOPE   H3X 6921   7.341   5.282   5.295  0.8278  0.1798 -0.5545
   54DOPE   H3Y 6922   7.229   5.387   5.378  0.5370 -1.9411  0.1852
   54DOPE   C34 6923   7.427   5.400   5.470 -0.3590 -0.3665  0.4337
   54DOPE   H4X 6924   7.385   5.486   5.527  0.1676 -1.2356  2.2108
   54DOPE   H4Y 6925   7.416   5.303   5.523 -1.2719 -0.4701  0.0786
   54DOPE   C35 6926   7.572   5.433   5.441  0.1016  0.0904 -0.1967
   54DOPE   H5X 6927   7.577   5.536   5.399 -0.4052  0.7030  1.1702
   54DOPE   H5Y 6928   7.616   5.369   5.362 -3.0265 -1.2905 -0.9595
   54DOPE   C36 6929   7.647   5.415   5.574 -0.6265  0.6956 -0.0395
   54DOPE   H6X 6930   7.754   5.389   5.558 -0.4706 -0.2282  2.1978
   54DOPE   H6Y 6931   7.600   5.338   5.638  0.5264  0.8463  1.0380
   54DOPE   C37 6932   7.647   5.551   5.656  0.1436  0.0008 -0.6782
   54DOPE   H7X 6933   7.687   5.625   5.583  0.5862 -0.7632 -1.2267
   54DOPE   H7Y 6934   7.544   5.576   5.688 -0.3480 -0.1004 -2.0875
   54DOPE   C38 6935   7.734   5.537   5.783  0.0949 -0.5809 -0.0422
   54DOPE   H8X 6936   7.840   5.531   5.750  0.4984  1.0476  0.8457
   54DOPE   H8Y 6937   7.706   5.444   5.838  0.0620  0.0803  1.1024
   54DOPE   C39 6938   7.730   5.659   5.869  0.2645  0.1509  0.0628
   54DOPE   H9X 6939   7.765   5.750   5.817 -1.4825  0.2388 -1.0495
   54DOPE  C310 6940   7.710   5.664   6.005 -0.1646 -1.1535 -0.1536
   54DOPE  H10X 6941   7.734   5.764   6.045 -0.7195 -1.1673  0.2145
   54DOPE  C311 6942   7.685   5.553   6.105 -0.9090  0.5508  0.5782
   54DOPE  H11X 6943   7.656   5.460   6.052  1.1667 -1.0191  2.0328
   54DOPE  H11Y 6944   7.782   5.523   6.150  1.0345 -0.3269 -3.7470
   54DOPE  C312 6945   7.579   5.595   6.209 -0.0183  0.1854  0.2751
   54DOPE  H12X 6946   7.558   5.501   6.265  0.0512 -0.9594 -1.5441
   54DOPE  H12Y 6947   7.483   5.612   6.156  0.7397  1.3226 -0.7780
   54DOPE  C313 6948   7.613   5.717   6.294  0.0220 -0.2023 -0.0492
   54DOPE  H13X 6949   7.713   5.702   6.339 -0.8159 -0.9162  1.6846
   54DOPE  H13Y 6950   7.616   5.814   6.240  3.3572  0.5897  1.3391
   54DOPE  C314 6951   7.520   5.747   6.413  0.4145  0.0267 -0.4793
   54DOPE  H14X 6952   7.494   5.659   6.476  0.8809 -1.0576 -1.7599
   54DOPE  H14Y 6953   7.420   5.782   6.382  0.5167  0.3587 -0.4393
   54DOPE  C315 6954   7.572   5.859   6.503  0.9064 -0.4256  0.2799
   54DOPE  H15X 6955   7.501   5.867   6.588  0.5520  0.6902 -0.1006
   54DOPE  H15Y 6956   7.568   5.957   6.450  1.1438 -0.0049  1.0337
   54DOPE  C316 6957   7.717   5.837   6.558  0.3815 -0.3713 -0.4876
   54DOPE  H16X 6958   7.735   5.728   6.568  0.4444 -0.2924  0.2954
   54DOPE  H16Y 6959   7.703   5.871   6.663 -0.2850  1.7202 -1.2122
   54DOPE  C317 6960   7.833   5.916   6.506 -0.2460 -0.2553  0.5161
   54DOPE  H17X 6961   7.855   5.892   6.400  0.5343 -1.7617  0.9952
   54DOPE  H17Y 6962   7.819   6.026   6.503  1.8414  0.0297 -1.3769
   54DOPE  C318 6963   7.961   5.884   6.590 -1.0665  0.2445 -0.2400
   54DOPE  H18X 6964   7.947   5.895   6.700  0.3194 -0.9135  0.0917
   54DOPE  H18Y 6965   7.989   5.776   6.581  0.6832  0.5712  0.6758
   54DOPE  H18Z 6966   8.047   5.944   6.554 -1.2974 -0.0031 -1.2271
   55DOPE     N 6967   1.880   6.439   4.642 -0.6923 -0.4933  0.0128
   55DOPE   HN1 6968   1.964   6.404   4.592  0.3212  0.1016  1.2246
   55DOPE   HN2 6969   1.831   6.505   4.579  0.1349 -0.3594 -0.4978
   55DOPE   HN3 6970   1.908   6.474   4.736  1.8969 -0.4197 -0.7221
   55DOPE   C12 6971   1.775   6.343   4.660 -0.0738 -0.3828  0.0917
   55DOPE  H12A 6972   1.826   6.246   4.678 -0.5006 -0.5973  0.1593
   55DOPE  H12B 6973   1.710   6.335   4.570  0.0707  0.6411 -0.1191
   55DOPE   C11 6974   1.675   6.388   4.770  0.1764 -0.3469 -0.3322
   55DOPE  H11A 6975   1.719   6.386   4.872  2.6860  1.0781 -1.3022
   55DOPE  H11B 6976   1.599   6.307   4.773  0.8385 -0.9861 -0.6004
   55DOPE     P 6977   1.631   6.654   4.786  0.0914  0.1187  0.1537
   55DOPE   O13 6978   1.549   6.741   4.703  0.1697 -0.4567 -0.1318
   55DOPE   O14 6979   1.775   6.685   4.801  0.1531 -0.1130 -0.1827
   55DOPE   O11 6980   1.569   6.648   4.931 -0.1323  0.1701  0.2464
   55DOPE   O12 6981   1.610   6.507   4.740  0.1048  0.1411 -0.2508
   55DOPE    C1 6982   1.444   6.594   4.946 -0.4401  0.4334 -0.4848
   55DOPE    HA 6983   1.436   6.488   4.914 -1.6381  0.8698 -1.7253
   55DOPE    HB 6984   1.372   6.660   4.892 -1.2725 -1.5156 -1.8623
   55DOPE    C2 6985   1.409   6.586   5.100 -0.1782 -0.0818  0.2058
   55DOPE    HS 6986   1.298   6.574   5.102 -0.3535  1.2376  2.5664
   55DOPE   O21 6987   1.452   6.700   5.175  0.7048  0.1251  0.9498
   55DOPE   C21 6988   1.400   6.817   5.144 -0.5026  0.3662 -0.2824
   55DOPE   O22 6989   1.315   6.832   5.057 -0.0222  0.4269  0.3595
   55DOPE   C22 6990   1.472   6.927   5.221  0.7690  0.4878 -0.0996
   55DOPE   H2R 6991   1.401   6.940   5.306  1.6833  1.8544  0.4912
   55DOPE   H2S 6992   1.475   7.015   5.152  1.4013  0.2020 -0.4459
   55DOPE    C3 6993   1.464   6.454   5.156 -0.0298  0.5288  0.0858
   55DOPE    HX 6994   1.573   6.450   5.133  0.1683  0.1189  1.0282
   55DOPE    HY 6995   1.415   6.374   5.098 -0.4331  2.0370 -1.7418
   55DOPE   O31 6996   1.424   6.432   5.292 -0.8425 -0.2517 -0.4093
   55DOPE   C31 6997   1.526   6.451   5.374  0.0615 -0.0878 -0.2573
   55DOPE   O32 6998   1.637   6.494   5.355  0.2303 -0.5539 -0.1860
   55DOPE   C32 6999   1.474   6.403   5.509 -0.9895 -0.3353 -0.7396
   55DOPE   H2X 7000   1.364   6.418   5.509 -0.9042  0.5703  1.3362
   55DOPE   H2Y 7001   1.510   6.299   5.519  2.9322  1.0385  1.6219
   55DOPE   C23 7002   1.606   6.899   5.271  0.2695  0.4952 -0.7538
   55DOPE   H3R 7003   1.685   6.879   5.196  1.3443 -1.5441  0.8177
   55DOPE   H3S 7004   1.597   6.805   5.330 -3.0353  0.8449 -0.5259
   55DOPE   C24 7005   1.654   7.007   5.376  0.1123  0.3433 -0.7319
   55DOPE   H4R 7006   1.558   7.035   5.425 -1.3629 -1.5334 -2.3889
   55DOPE   H4S 7007   1.697   7.098   5.328 -0.1476  1.1514  0.4989
   55DOPE   C25 7008   1.764   6.952   5.470 -0.2113 -0.6018 -0.5639
   55DOPE   H5R 7009   1.824   7.035   5.513  1.2339 -1.5834 -0.6123
   55DOPE   H5S 7010   1.839   6.903   5.404  0.7719  0.3379 -0.1725
   55DOPE   C26 7011   1.717   6.859   5.583 -0.5114 -0.4033  0.4526
   55DOPE   H6R 7012   1.667   6.765   5.551  0.3053 -0.4548 -0.7001
   55DOPE   H6S 7013   1.638   6.908   5.644 -2.0346 -2.1145 -0.0406
   55DOPE   C27 7014   1.834   6.834   5.682  0.0196 -0.0927 -0.4566
   55DOPE   H7R 7015   1.915   6.785   5.623 -0.1046  0.9224 -1.5124
   55DOPE   H7S 7016   1.793   6.753   5.747 -1.0325 -1.3957 -2.6268
   55DOPE   C28 7017   1.881   6.950   5.769 -0.0306 -0.2619  0.2658
   55DOPE   H8R 7018   1.789   6.993   5.813 -1.5328 -1.8573 -1.1575
   55DOPE   H8S 7019   1.934   7.022   5.704  1.5243 -1.8622 -0.3256
   55DOPE   C29 7020   1.971   6.905   5.877 -0.4186  0.3639 -0.4658
   55DOPE   H9R 7021   1.921   6.851   5.959  2.1938 -0.2081  0.8674
   55DOPE  C210 7022   2.106   6.895   5.874 -0.0437  0.1350 -0.4172
   55DOPE  H10R 7023   2.160   6.855   5.960 -0.1524  0.1839 -0.3255
   55DOPE  C211 7024   2.191   6.930   5.763 -0.9148  0.0914  0.6069
   55DOPE  H11R 7025   2.183   7.039   5.741  0.7662 -0.3467 -2.8155
   55DOPE  H11S 7026   2.148   6.887   5.670  2.3153 -0.5316 -0.7447
   55DOPE  C212 7027   2.335   6.883   5.774  0.3773  0.1387 -1.0468
   55DOPE  H12R 7028   2.400   6.924   5.694  2.0936  0.7901  0.6194
   55DOPE  H12S 7029   2.337   6.772   5.765 -2.7473 -0.1742  0.6200
   55DOPE  C213 7030   2.414   6.920   5.900 -0.3499  0.0231 -0.6756
   55DOPE  H13R 7031   2.363   6.890   5.995  2.0959 -0.3436  0.5991
   55DOPE  H13S 7032   2.428   7.029   5.909 -1.6699  0.1606  0.0208
   55DOPE  C214 7033   2.564   6.861   5.904  0.2198 -0.5280  0.4168
   55DOPE  H14R 7034   2.629   6.908   5.981  1.9777 -0.7785 -0.8491
   55DOPE  H14S 7035   2.607   6.898   5.809 -1.0874 -1.5485 -0.6144
   55DOPE  C215 7036   2.586   6.706   5.891 -0.0047  0.9701 -0.2865
   55DOPE  H15R 7037   2.694   6.679   5.887 -0.5571 -2.2118  2.2492
   55DOPE  H15S 7038   2.543   6.659   5.800  2.6601  1.6242 -2.0031
   55DOPE  C216 7039   2.517   6.626   6.008 -0.2079 -1.0300 -0.2598
   55DOPE  H16R 7040   2.558   6.524   6.005  2.3392 -0.0634 -0.4195
   55DOPE  H16S 7041   2.410   6.642   5.980 -0.2044 -0.1215  0.2066
   55DOPE  C217 7042   2.554   6.684   6.149  0.7466  0.1655  0.3515
   55DOPE  H17R 7043   2.513   6.787   6.159 -2.3290 -0.6885 -2.0995
   55DOPE  H17S 7044   2.665   6.681   6.148  0.7519 -1.6751  1.5127
   55DOPE  C218 7045   2.497   6.591   6.257 -0.7053  0.0417  0.6199
   55DOPE  H18R 7046   2.542   6.629   6.351 -0.4244  2.4343 -0.4202
   55DOPE  H18S 7047   2.548   6.496   6.232 -0.7949 -0.1025  0.9788
   55DOPE  H18T 7048   2.386   6.586   6.262 -0.8766  1.4346 -0.8366
   55DOPE   C33 7049   1.524   6.482   5.635  0.0644 -0.1724  0.1651
   55DOPE   H3X 7050   1.450   6.469   5.717 -0.8919  2.3146 -0.2364
   55DOPE   H3Y 7051   1.509   6.591   5.621  0.9613  0.4547  3.2887
   55DOPE   C34 7052   1.667   6.439   5.676  0.2727 -0.1788  0.2886
   55DOPE   H4X 7053   1.687   6.331   5.663  0.0175 -0.1969  0.0262
   55DOPE   H4Y 7054   1.747   6.489   5.618  2.2353 -2.0637  1.2404
   55DOPE   C35 7055   1.698   6.475   5.824 -0.7088 -0.2823 -0.0074
   55DOPE   H5X 7056   1.678   6.584   5.832  1.6053  0.5549 -3.3871
   55DOPE   H5Y 7057   1.808   6.466   5.835 -0.8677 -0.9855  1.2659
   55DOPE   C36 7058   1.625   6.397   5.930 -0.5136  0.2231  0.1168
   55DOPE   H6X 7059   1.521   6.377   5.896  0.8401 -0.8581 -4.0209
   55DOPE   H6Y 7060   1.634   6.458   6.022  1.1899  0.8751 -0.4328
   55DOPE   C37 7061   1.700   6.261   5.954  0.1014  0.1851 -0.1410
   55DOPE   H7X 7062   1.696   6.209   5.857 -2.2219  1.3234 -0.7455
   55DOPE   H7Y 7063   1.806   6.277   5.982  0.6680  0.4859 -2.3282
   55DOPE   C38 7064   1.635   6.167   6.055 -0.1296  0.5899  0.3904
   55DOPE   H8X 7065   1.677   6.064   6.048  0.1657  0.7798 -0.8666
   55DOPE   H8Y 7066   1.529   6.159   6.022  0.6839 -1.3638 -2.1109
   55DOPE   C39 7067   1.638   6.223   6.200 -0.4508  0.7615  0.0854
   55DOPE   H9X 7068   1.724   6.290   6.214 -0.3465  1.1697 -2.1877
   55DOPE  C310 7069   1.559   6.197   6.306  0.7056  0.0343  0.5745
   55DOPE  H10X 7070   1.576   6.245   6.404 -3.0975 -0.6907  1.7531
   55DOPE  C311 7071   1.438   6.117   6.317  0.2077 -0.4756 -0.4410
   55DOPE  H11X 7072   1.436   6.052   6.227 -0.1420  0.9275 -1.4614
   55DOPE  H11Y 7073   1.434   6.050   6.406  0.8435  2.0183  1.5729
   55DOPE  C312 7074   1.320   6.212   6.337 -0.1323  0.3655  0.1996
   55DOPE  H12X 7075   1.314   6.289   6.257  2.0571  0.0832 -0.2986
   55DOPE  H12Y 7076   1.323   6.274   6.430 -0.8684 -0.9977  1.1701
   55DOPE  C313 7077   1.182   6.143   6.350 -0.4043  0.4506 -0.6003
   55DOPE  H13X 7078   1.189   6.064   6.272  1.4249 -0.8764  0.8342
   55DOPE  H13Y 7079   1.180   6.088   6.447  2.2487  0.7149 -0.3244
   55DOPE  C314 7080   1.058   6.229   6.320 -0.8161 -0.3892 -0.1832
   55DOPE  H14X 7081   0.966   6.167   6.318 -1.2094  0.1540  0.4243
   55DOPE  H14Y 7082   1.075   6.285   6.226  1.5857  0.9291  0.9434
   55DOPE  C315 7083   1.032   6.345   6.422  0.3906  0.8090 -0.4813
   55DOPE  H15X 7084   0.938   6.391   6.384 -0.2025 -0.2112 -0.2885
   55DOPE  H15Y 7085   1.114   6.419   6.417  0.0347  1.1654 -1.1167
   55DOPE  C316 7086   1.018   6.308   6.569  0.0227  0.6415 -0.0473
   55DOPE  H16X 7087   1.113   6.270   6.614  0.5976 -0.3990 -2.0147
   55DOPE  H16Y 7088   0.940   6.229   6.577 -2.8452  3.2178 -1.0058
   55DOPE  C317 7089   0.973   6.427   6.654  0.2177 -0.4818 -0.0164
   55DOPE  H17X 7090   0.988   6.387   6.757  0.1467 -0.0209  0.1758
   55DOPE  H17Y 7091   1.045   6.506   6.625 -0.6929  0.1134 -0.6850
   55DOPE  C318 7092   0.824   6.463   6.635 -0.2414  0.4041  0.3345
   55DOPE  H18X 7093   0.806   6.559   6.687  1.9453  1.4585 -0.7183
   55DOPE  H18Y 7094   0.789   6.490   6.533 -0.3838 -0.6835  0.0799
   55DOPE  H18Z 7095   0.753   6.381   6.659 -0.0888 -0.3575 -1.5925
   56DOPE     N 7096   0.549   7.640   4.420  0.1134  0.2988 -0.5441
   56DOPE   HN1 7097   0.499   7.606   4.334 -1.9844  0.6595  0.4546
   56DOPE   HN2 7098   0.479   7.693   4.475  0.5252  2.0283 -1.5992
   56DOPE   HN3 7099   0.615   7.713   4.387  0.4382  0.6613  0.8658
   56DOPE   C12 7100   0.625   7.532   4.493  0.2881 -0.0516  0.0682
   56DOPE  H12A 7101   0.690   7.482   4.419  1.9133  1.8663  0.1130
   56DOPE  H12B 7102   0.551   7.466   4.543  0.0694  0.0552 -0.1128
   56DOPE   C11 7103   0.707   7.594   4.608  0.3054 -0.3222  0.1527
   56DOPE  H11A 7104   0.750   7.504   4.656  3.2307  1.1500  0.5109
   56DOPE  H11B 7105   0.648   7.640   4.691  1.5855  1.7320 -0.0123
   56DOPE     P 7106   0.952   7.643   4.521  0.1419 -0.1152  0.0004
   56DOPE   O13 7107   0.990   7.742   4.417 -0.3435 -0.6524 -0.4784
   56DOPE   O14 7108   0.966   7.495   4.492 -0.1184  0.1763  0.4225
   56DOPE   O11 7109   1.029   7.669   4.658  0.2403  0.4277  0.9174
   56DOPE   O12 7110   0.805   7.682   4.561  0.5289 -0.3268  0.5358
   56DOPE    C1 7111   0.991   7.762   4.757 -0.4235 -0.6389 -1.0997
   56DOPE    HA 7112   0.908   7.833   4.740 -1.8577 -1.6706  1.1160
   56DOPE    HB 7113   1.081   7.825   4.772  1.0231 -2.4792 -1.6085
   56DOPE    C2 7114   0.965   7.685   4.894 -0.3718  0.1858 -0.2639
   56DOPE    HS 7115   0.874   7.623   4.881  0.9765 -1.7770 -0.6298
   56DOPE   O21 7116   0.945   7.776   5.007  0.0807 -0.2130 -1.0599
   56DOPE   C21 7117   0.870   7.725   5.107  0.2910  0.6013  0.7213
   56DOPE   O22 7118   0.807   7.617   5.098 -0.0884 -0.5001 -0.0565
   56DOPE   C22 7119   0.864   7.819   5.227 -0.4293 -0.9216  0.2745
   56DOPE   H2R 7120   0.816   7.916   5.201 -0.3653 -0.0036  3.2017
   56DOPE   H2S 7121   0.969   7.846   5.250 -0.0355  0.2315 -2.4660
   56DOPE    C3 7122   1.088   7.583   4.927 -0.0618 -0.2915 -0.2489
   56DOPE    HX 7123   1.178   7.645   4.945  1.2653 -1.9965 -0.7592
   56DOPE    HY 7124   1.120   7.527   4.836  1.2474 -2.2588  1.3496
   56DOPE   O31 7125   1.053   7.483   5.028  0.2069 -0.2600  0.9893
   56DOPE   C31 7126   1.106   7.509   5.151  0.5395 -0.0931 -0.2064
   56DOPE   O32 7127   1.159   7.611   5.186  0.0509 -0.1916 -1.1706
   56DOPE   C32 7128   1.068   7.396   5.249  0.1288 -0.3796 -0.6313
   56DOPE   H2X 7129   0.957   7.402   5.255  0.0997 -0.1716 -1.3753
   56DOPE   H2Y 7130   1.093   7.298   5.203  1.2550  0.3618 -1.6632
   56DOPE   C23 7131   0.792   7.759   5.349  0.3505  0.1253 -0.2088
   56DOPE   H3R 7132   0.834   7.656   5.358  0.0491  0.0511  0.3873
   56DOPE   H3S 7133   0.683   7.742   5.344 -0.3633  2.6929  3.3105
   56DOPE   C24 7134   0.807   7.841   5.483  0.8298 -0.5770 -0.0898
   56DOPE   H4R 7135   0.739   7.926   5.463 -0.0140 -1.1701  0.2356
   56DOPE   H4S 7136   0.912   7.877   5.490  0.0883  2.0609 -1.5069
   56DOPE   C25 7137   0.768   7.759   5.603  0.0285 -0.1530  0.1171
   56DOPE   H5R 7138   0.850   7.686   5.619 -0.7515 -1.1560 -0.3187
   56DOPE   H5S 7139   0.675   7.701   5.584 -0.9250  0.9058  1.3597
   56DOPE   C26 7140   0.748   7.842   5.729 -0.0168 -0.0859 -0.1537
   56DOPE   H6R 7141   0.676   7.924   5.706  0.8509  0.2352 -1.9386
   56DOPE   H6S 7142   0.845   7.892   5.750 -0.5712  1.2524 -0.6512
   56DOPE   C27 7143   0.703   7.761   5.854 -0.0820 -0.2613 -0.1232
   56DOPE   H7R 7144   0.768   7.672   5.865  0.6381  0.4440  1.8297
   56DOPE   H7S 7145   0.602   7.718   5.844 -0.2338 -0.6505  2.5038
   56DOPE   C28 7146   0.711   7.833   5.988  0.1005  0.7297 -0.3043
   56DOPE   H8R 7147   0.678   7.772   6.074 -1.9651  3.6987  1.1927
   56DOPE   H8S 7148   0.644   7.921   6.000 -1.8652 -0.4493 -1.8796
   56DOPE   C29 7149   0.854   7.880   6.014 -0.0743  0.4362  0.8996
   56DOPE   H9R 7150   0.904   7.945   5.940  2.0010 -0.5802  1.3366
   56DOPE  C210 7151   0.939   7.837   6.109 -0.2072 -0.7770 -0.2019
   56DOPE  H10R 7152   1.044   7.866   6.119 -0.5521 -0.1711  2.4716
   56DOPE  C211 7153   0.913   7.744   6.223 -0.1532 -0.9290  0.3027
   56DOPE  H11R 7154   0.975   7.652   6.215  0.2747 -0.5265 -1.6606
   56DOPE  H11S 7155   0.806   7.716   6.224  0.0042 -1.5426  1.1744
   56DOPE  C212 7156   0.941   7.816   6.357  0.7704 -0.9429  0.1837
   56DOPE  H12R 7157   0.882   7.910   6.360  1.3028 -0.6362  1.3948
   56DOPE  H12S 7158   1.048   7.845   6.352  0.3105  0.8092 -0.4943
   56DOPE  C213 7159   0.922   7.722   6.480 -0.3039 -0.2094 -0.1111
   56DOPE  H13R 7160   0.940   7.618   6.443 -1.3381 -0.5672  0.3604
   56DOPE  H13S 7161   0.813   7.718   6.502 -0.0640 -3.3077  0.9729
   56DOPE  C214 7162   1.006   7.767   6.594  0.0847  0.5258 -0.5915
   56DOPE  H14R 7163   0.971   7.720   6.689 -3.2462  1.8406 -1.0333
   56DOPE  H14S 7164   1.001   7.875   6.618  3.1695  0.9802 -1.5526
   56DOPE  C215 7165   1.154   7.742   6.596 -0.0030  0.6625 -0.0701
   56DOPE  H15R 7166   1.191   7.737   6.701  0.7869 -2.3588 -0.3812
   56DOPE  H15S 7167   1.216   7.818   6.546 -0.0229  0.6672 -0.0880
   56DOPE  C216 7168   1.189   7.601   6.533  0.2633  0.5596 -0.0989
   56DOPE  H16R 7169   1.131   7.589   6.439 -2.2765  0.1775  1.4308
   56DOPE  H16S 7170   1.151   7.521   6.600  1.0813  0.6283  0.4535
   56DOPE  C217 7171   1.342   7.566   6.511 -0.4906 -0.3254 -0.1077
   56DOPE  H17R 7172   1.384   7.610   6.417 -1.1246  0.4824 -0.0270
   56DOPE  H17S 7173   1.342   7.455   6.504 -2.9166 -0.3831  0.2346
   56DOPE  C218 7174   1.435   7.620   6.621 -0.5453  0.2381 -0.0274
   56DOPE  H18R 7175   1.443   7.730   6.608  0.3970  0.0596 -1.1065
   56DOPE  H18S 7176   1.536   7.574   6.615 -1.0632 -0.9126 -0.2075
   56DOPE  H18T 7177   1.397   7.602   6.724 -1.1249  0.5498 -0.1799
   56DOPE   C33 7178   1.136   7.413   5.388 -0.2859  0.3769  1.0692
   56DOPE   H3X 7179   1.084   7.337   5.449  0.5157 -0.8113  0.3201
   56DOPE   H3Y 7180   1.126   7.516   5.428  1.3752  1.4319 -0.9999
   56DOPE   C34 7181   1.288   7.383   5.386  0.5130 -0.0285  0.2729
   56DOPE   H4X 7182   1.302   7.293   5.322  0.3550 -0.7312  1.2197
   56DOPE   H4Y 7183   1.349   7.460   5.334  0.5959 -1.4508 -1.8929
   56DOPE   C35 7184   1.355   7.356   5.519 -0.4641  0.4434 -0.5439
   56DOPE   H5X 7185   1.332   7.254   5.557  1.6350 -0.1860 -0.8419
   56DOPE   H5Y 7186   1.336   7.430   5.599  0.6396  0.0557  0.0961
   56DOPE   C36 7187   1.501   7.345   5.499  0.1324  0.3884  0.8908
   56DOPE   H6X 7188   1.551   7.435   5.459  1.2323 -0.9822 -0.9828
   56DOPE   H6Y 7189   1.510   7.268   5.419 -0.4394  1.1904  0.0479
   56DOPE   C37 7190   1.576   7.301   5.625  0.4269  0.4887 -0.2096
   56DOPE   H7X 7191   1.505   7.249   5.693  1.5166 -1.0156 -0.1924
   56DOPE   H7Y 7192   1.653   7.228   5.593  0.4916  0.0381  0.9434
   56DOPE   C38 7193   1.648   7.411   5.700  0.2412 -0.1547 -0.2756
   56DOPE   H8X 7194   1.568   7.488   5.703  0.8245  0.4300  0.6734
   56DOPE   H8Y 7195   1.735   7.454   5.646  2.4196 -1.7887  1.7339
   56DOPE   C39 7196   1.705   7.379   5.836 -0.1801 -0.2829  0.7993
   56DOPE   H9X 7197   1.719   7.272   5.858 -2.3729 -0.9334 -0.6262
   56DOPE  C310 7198   1.733   7.474   5.927 -0.0510  0.1377 -0.5377
   56DOPE  H10X 7199   1.785   7.438   6.018 -0.1643 -3.3116 -1.7082
   56DOPE  C311 7200   1.709   7.624   5.905 -0.4491  0.0566 -0.1199
   56DOPE  H11X 7201   1.807   7.675   5.914 -1.1686  1.4689  0.0350
   56DOPE  H11Y 7202   1.679   7.645   5.800 -1.3051  1.9848  0.4628
   56DOPE  C312 7203   1.610   7.690   6.000  0.0712 -0.7524  0.2977
   56DOPE  H12X 7204   1.639   7.679   6.107  0.8688 -0.0409  0.1678
   56DOPE  H12Y 7205   1.508   7.648   5.990  0.2767 -1.8084  2.1576
   56DOPE  C313 7206   1.580   7.840   5.977  0.4751 -0.7099 -0.3331
   56DOPE  H13X 7207   1.567   7.849   5.867  0.9254 -0.5642 -0.3777
   56DOPE  H13Y 7208   1.479   7.863   6.016  0.4647 -0.8193 -0.2937
   56DOPE  C314 7209   1.684   7.934   6.031  0.1448 -0.2390  0.3550
   56DOPE  H14X 7210   1.786   7.932   5.987 -0.1413  0.3728 -0.3570
   56DOPE  H14Y 7211   1.695   7.920   6.141 -1.0210 -1.3627  0.3537
   56DOPE  C315 7212   1.646   8.079   5.998 -0.5584  0.9399 -0.3951
   56DOPE  H15X 7213   1.550   8.112   6.045  0.2107 -0.2991  2.2562
   56DOPE  H15Y 7214   1.634   8.082   5.888  0.2800  2.1632 -0.4769
   56DOPE  C316 7215   1.758   8.185   6.026 -0.3557 -0.2071  0.2090
   56DOPE  H16X 7216   1.730   8.285   5.987 -0.7580  0.4324  2.0455
   56DOPE  H16Y 7217   1.845   8.152   5.965  0.4116  1.4406  0.3623
   56DOPE  C317 7218   1.799   8.207   6.175 -0.0032 -1.8431  0.2490
   56DOPE  H17X 7219   1.712   8.231   6.239 -0.1224 -0.4407 -0.4112
   56DOPE  H17Y 7220   1.850   8.117   6.216  0.3690 -1.7984 -0.1101
   56DOPE  C318 7221   1.899   8.321   6.174 -0.4112 -0.0705 -0.3046
   56DOPE  H18X 7222   1.936   8.342   6.277 -4.2403  2.3694  0.7926
   56DOPE  H18Y 7223   1.986   8.309   6.105 -0.4858  0.1174 -0.4326
   56DOPE  H18Z 7224   1.856   8.420   6.147  1.5551  1.3567  1.4912
   57DOPE     N 7225   0.001   3.546   4.777  0.2415  0.9743  0.4328
   57DOPE   HN1 7226   0.068   3.610   4.731  1.4970 -1.1801 -0.9230
   57DOPE   HN2 7227  -0.089   3.545   4.724  0.5394 -0.6320 -0.1065
   57DOPE   HN3 7228  -0.018   3.573   4.875 -1.6450  0.4625  0.2465
   57DOPE   C12 7229   0.065   3.410   4.781  0.4262  0.1289 -0.2242
   57DOPE  H12A 7230   0.062   3.363   4.681  0.2582 -1.6739  0.5746
   57DOPE  H12B 7231   0.007   3.346   4.851  3.0216 -0.6019  1.4055
   57DOPE   C11 7232   0.202   3.431   4.841  0.3435 -0.2527  0.0306
   57DOPE  H11A 7233   0.234   3.328   4.867 -0.4977 -0.5695 -0.1527
   57DOPE  H11B 7234   0.195   3.494   4.932 -0.8060  0.4090 -0.4971
   57DOPE     P 7235   0.427   3.443   4.694 -0.4964 -0.5891 -0.3150
   57DOPE   O13 7236   0.502   3.569   4.673  0.4077 -0.0384 -0.4287
   57DOPE   O14 7237   0.404   3.357   4.583 -0.0436 -0.0555 -0.5085
   57DOPE   O11 7238   0.484   3.374   4.827 -0.0469  0.3221 -0.1503
   57DOPE   O12 7239   0.285   3.495   4.740  0.0775 -0.4657 -0.3264
   57DOPE    C1 7240   0.492   3.440   4.950 -0.3718 -0.1364 -1.1556
   57DOPE    HA 7241   0.410   3.405   5.016 -0.3480  0.9226 -0.5494
   57DOPE    HB 7242   0.484   3.551   4.947  0.8055  0.0838  1.5541
   57DOPE    C2 7243   0.630   3.422   5.020  0.1304  0.5481  0.0002
   57DOPE    HS 7244   0.717   3.456   4.960  1.5149 -2.1308  0.3572
   57DOPE   O21 7245   0.652   3.280   5.028 -0.0195  0.3489 -0.3346
   57DOPE   C21 7246   0.768   3.234   5.076  0.1251  0.2247 -0.5292
   57DOPE   O22 7247   0.864   3.305   5.106  0.7274 -0.3554  0.4882
   57DOPE   C22 7248   0.762   3.083   5.082  0.0636 -0.0357  0.2937
   57DOPE   H2R 7249   0.849   3.051   5.142  1.2145  0.6061 -0.9836
   57DOPE   H2S 7250   0.760   3.029   4.984 -2.4040 -1.3786  0.9941
   57DOPE    C3 7251   0.633   3.502   5.150 -0.2334 -1.0412  0.6264
   57DOPE    HX 7252   0.735   3.486   5.190 -0.3097  0.2493  1.3916
   57DOPE    HY 7253   0.558   3.457   5.219 -1.1147 -0.1769  0.2548
   57DOPE   O31 7254   0.600   3.647   5.129  0.2480  0.0088  0.1233
   57DOPE   C31 7255   0.654   3.729   5.218 -0.5947  0.1384 -0.0303
   57DOPE   O32 7256   0.733   3.700   5.309  0.0568 -0.5887  0.0351
   57DOPE   C32 7257   0.583   3.868   5.198  0.6402 -0.0218  0.0095
   57DOPE   H2X 7258   0.636   3.914   5.112 -2.8441  0.5061 -2.0604
   57DOPE   H2Y 7259   0.479   3.849   5.165 -0.1586 -1.1226  2.8209
   57DOPE   C23 7260   0.650   3.046   5.183 -0.8859 -0.0861  0.1587
   57DOPE   H3R 7261   0.552   3.037   5.131 -1.7176 -0.3091  1.6852
   57DOPE   H3S 7262   0.652   3.107   5.276  0.9951 -0.2643  0.2741
   57DOPE   C24 7263   0.660   2.903   5.237 -0.5912  0.6996 -0.1432
   57DOPE   H4R 7264   0.746   2.894   5.307  0.2303 -1.5693 -1.3509
   57DOPE   H4S 7265   0.680   2.847   5.144  0.7167  3.5789 -1.7447
   57DOPE   C25 7266   0.536   2.841   5.309 -0.2939 -0.3507 -0.1180
   57DOPE   H5R 7267   0.560   2.733   5.299 -0.8292 -0.5361  0.5935
   57DOPE   H5S 7268   0.448   2.866   5.246  0.0648 -0.6588 -0.7537
   57DOPE   C26 7269   0.512   2.877   5.456  0.3886  0.1407 -0.3949
   57DOPE   H6R 7270   0.533   2.982   5.488  1.8656 -0.9736  2.6545
   57DOPE   H6S 7271   0.585   2.820   5.517 -0.0000  1.6110  1.5439
   57DOPE   C27 7272   0.367   2.840   5.502 -1.3082  0.3527 -0.2691
   57DOPE   H7R 7273   0.341   2.734   5.483 -1.2120  0.1749  0.5716
   57DOPE   H7S 7274   0.294   2.901   5.444 -0.2769  0.5721 -1.3717
   57DOPE   C28 7275   0.351   2.883   5.651  0.2298  0.5899  0.4382
   57DOPE   H8R 7276   0.341   2.994   5.652 -1.0600  0.4856  0.7729
   57DOPE   H8S 7277   0.442   2.858   5.710  1.3150 -0.1496 -1.4775
   57DOPE   C29 7278   0.233   2.810   5.709  0.0970  0.5893  0.1246
   57DOPE   H9R 7279   0.218   2.705   5.680 -0.9845  0.5665  0.7019
   57DOPE  C210 7280   0.137   2.866   5.782  0.6591  1.1263 -0.2429
   57DOPE  H10R 7281   0.057   2.799   5.819 -0.5494  2.2740 -0.6726
   57DOPE  C211 7282   0.135   3.009   5.846 -1.0989 -0.1665 -0.0691
   57DOPE  H11R 7283   0.033   3.050   5.831 -1.5180 -0.5246  1.5687
   57DOPE  H11S 7284   0.209   3.078   5.801  0.5921 -1.1698  1.0548
   57DOPE  C212 7285   0.168   2.986   5.997 -0.8438 -1.0069 -0.0803
   57DOPE  H12R 7286   0.181   3.085   6.046 -1.0828 -0.7033 -0.6177
   57DOPE  H12S 7287   0.263   2.931   6.013 -1.0753 -1.2565  0.4855
   57DOPE  C213 7288   0.067   2.906   6.080  0.2456 -0.4239 -0.4401
   57DOPE  H13R 7289   0.077   2.804   6.038  0.9870  0.2840 -2.0811
   57DOPE  H13S 7290  -0.038   2.941   6.066  0.3140  0.1362  0.3904
   57DOPE  C214 7291   0.082   2.911   6.233 -0.2895 -0.2502  0.0454
   57DOPE  H14R 7292   0.193   2.904   6.241 -0.4236 -2.1990  0.6927
   57DOPE  H14S 7293   0.036   2.820   6.277 -0.7112  0.5656  1.3461
   57DOPE  C215 7294   0.018   3.032   6.301 -0.5896  0.2077  0.6901
   57DOPE  H15R 7295  -0.083   3.060   6.267 -1.6387 -3.7140  0.0577
   57DOPE  H15S 7296   0.075   3.124   6.274  1.1358 -0.9958 -0.0108
   57DOPE  C216 7297   0.032   3.015   6.459  0.3648 -0.0579 -1.3296
   57DOPE  H16R 7298   0.139   3.038   6.479 -0.0236 -0.2343  1.3429
   57DOPE  H16S 7299   0.007   2.915   6.501  2.3243  0.3713  1.0493
   57DOPE  C217 7300  -0.052   3.114   6.531  0.1490  0.1098  0.1423
   57DOPE  H17R 7301  -0.158   3.092   6.506  0.4494 -0.9589 -0.2402
   57DOPE  H17S 7302  -0.024   3.212   6.486 -0.4139 -0.1460 -0.7911
   57DOPE  C218 7303  -0.049   3.125   6.683  0.0437 -0.4622  0.0787
   57DOPE  H18R 7304   0.047   3.171   6.715 -0.3100 -0.2691  0.8903
   57DOPE  H18S 7305  -0.061   3.023   6.726 -1.1622 -0.1589  0.5049
   57DOPE  H18T 7306  -0.123   3.205   6.707  1.5625  1.1234 -0.2438
   57DOPE   C33 7307   0.603   3.966   5.311  0.0745 -0.3460  0.0057
   57DOPE   H3X 7308   0.557   4.066   5.295 -2.3611 -1.3948  0.0387
   57DOPE   H3Y 7309   0.713   3.981   5.319 -0.1294  0.8271  0.8301
   57DOPE   C34 7310   0.544   3.914   5.444 -0.0142  0.1171 -0.2315
   57DOPE   H4X 7311   0.438   3.886   5.427 -0.3879  0.8294  0.8373
   57DOPE   H4Y 7312   0.594   3.819   5.473 -2.3708 -0.9810  0.4215
   57DOPE   C35 7313   0.547   4.012   5.563  0.2681  0.0172 -0.3751
   57DOPE   H5X 7314   0.508   4.107   5.522  0.0274  0.4217  0.7476
   57DOPE   H5Y 7315   0.642   4.031   5.618 -0.1709  0.6708  0.1727
   57DOPE   C36 7316   0.460   3.975   5.685 -0.4211  0.2640  0.1714
   57DOPE   H6X 7317   0.479   3.871   5.719  3.3677  0.6211 -0.3715
   57DOPE   H6Y 7318   0.352   3.987   5.661 -1.1588  0.4195  3.1648
   57DOPE   C37 7319   0.495   4.077   5.799  0.1115 -0.2315 -0.1736
   57DOPE   H7X 7320   0.605   4.080   5.815  0.3165  3.2947 -1.3406
   57DOPE   H7Y 7321   0.479   4.181   5.761 -0.6419  0.3978  1.7438
   57DOPE   C38 7322   0.413   4.057   5.934 -0.7077 -0.2398  0.1597
   57DOPE   H8X 7323   0.474   4.109   6.011 -1.6738  1.5801 -0.2463
   57DOPE   H8Y 7324   0.418   3.950   5.964 -1.7486 -0.2031  0.5306
   57DOPE   C39 7325   0.265   4.094   5.925 -0.3958  0.2022  0.1808
   57DOPE   H9X 7326   0.214   4.063   5.833 -0.1361  0.1833  0.0445
   57DOPE  C310 7327   0.189   4.140   6.027 -0.0682 -0.7442 -0.4012
   57DOPE  H10X 7328   0.085   4.172   6.016  0.5604  1.1292 -1.3346
   57DOPE  C311 7329   0.242   4.177   6.162  0.3149 -0.1599 -0.1753
   57DOPE  H11X 7330   0.334   4.119   6.184  2.4213  2.4276 -1.5169
   57DOPE  H11Y 7331   0.275   4.282   6.175  0.3986  0.0464 -1.8328
   57DOPE  C312 7332   0.134   4.149   6.273 -1.1431  0.4373 -0.9054
   57DOPE  H12X 7333   0.093   4.050   6.243  2.3253 -1.6652  0.7282
   57DOPE  H12Y 7334   0.057   4.229   6.262  0.2217  2.0947  0.8667
   57DOPE  C313 7335   0.198   4.134   6.407  0.1239 -0.3339 -0.3193
   57DOPE  H13X 7336   0.276   4.057   6.392  0.3361 -0.0848 -0.4877
   57DOPE  H13Y 7337   0.247   4.226   6.446  0.1856 -0.9183  1.0658
   57DOPE  C314 7338   0.106   4.086   6.516 -0.2655  0.3190 -0.5668
   57DOPE  H14X 7339   0.058   3.989   6.491  0.2667 -0.3620  0.9297
   57DOPE  H14Y 7340   0.033   4.169   6.516 -0.2366  0.3581 -1.8697
   57DOPE  C315 7341   0.177   4.078   6.653  0.8030  0.2826  0.0864
   57DOPE  H15X 7342   0.226   4.175   6.678 -3.4048  2.6833 -0.1432
   57DOPE  H15Y 7343   0.258   4.002   6.654  1.2657  0.7542 -0.5355
   57DOPE  C316 7344   0.075   4.031   6.754  0.6512  0.1913 -0.0114
   57DOPE  H16X 7345   0.123   4.045   6.853 -1.4963  1.4212  0.9130
   57DOPE  H16Y 7346   0.061   3.924   6.726  0.2426  0.4701 -0.9294
   57DOPE  C317 7347  -0.056   4.118   6.773  0.5191  0.4469  0.3926
   57DOPE  H17X 7348  -0.117   4.090   6.684 -0.6701 -0.8170  1.5511
   57DOPE  H17Y 7349  -0.115   4.091   6.863 -0.0045 -1.8930 -0.5690
   57DOPE  C318 7350  -0.035   4.267   6.779  0.6376  0.7668  0.0347
   57DOPE  H18X 7351  -0.123   4.313   6.829 -0.5549  2.5642 -3.3567
   57DOPE  H18Y 7352   0.055   4.298   6.836  0.4820  1.4081 -0.0621
   57DOPE  H18Z 7353  -0.023   4.320   6.682  0.4947 -1.1879 -1.0842
   58DOPE     N 7354   0.879   6.753   4.817 -0.2640  0.0364  0.5031
   58DOPE   HN1 7355   0.950   6.746   4.741 -0.7947 -1.0192  0.0884
   58DOPE   HN2 7356   0.789   6.710   4.788 -0.2243 -0.2383  0.7856
   58DOPE   HN3 7357   0.882   6.848   4.858  1.4365 -0.4852  1.7021
   58DOPE   C12 7358   0.940   6.665   4.923 -0.0019 -0.6323  0.4952
   58DOPE  H12A 7359   0.889   6.682   5.020 -0.5438  1.6307 -0.1149
   58DOPE  H12B 7360   1.045   6.701   4.935 -0.9493  3.2406 -1.0810
   58DOPE   C11 7361   0.956   6.517   4.881 -0.3621 -0.2557  1.0272
   58DOPE  H11A 7362   0.859   6.464   4.876 -0.1492 -0.5272 -2.6869
   58DOPE  H11B 7363   1.006   6.463   4.965 -1.6870 -0.4322  1.7281
   58DOPE     P 7364   0.976   6.470   4.631 -0.4544 -0.0777 -0.0762
   58DOPE   O13 7365   1.078   6.387   4.560  0.0809  0.0717 -0.3308
   58DOPE   O14 7366   0.911   6.590   4.570 -0.0169 -0.5630  0.5788
   58DOPE   O11 7367   0.864   6.370   4.681  0.5016  0.7399  0.2367
   58DOPE   O12 7368   1.039   6.517   4.768  0.1412  0.7884 -0.3040
   58DOPE    C1 7369   0.892   6.230   4.701 -0.5352  0.1974  0.4539
   58DOPE    HA 7370   0.964   6.221   4.786 -0.3963 -0.1760  0.2987
   58DOPE    HB 7371   0.938   6.179   4.614  1.6593 -0.6240  1.9829
   58DOPE    C2 7372   0.767   6.150   4.741 -0.4781  0.0897 -0.4393
   58DOPE    HS 7373   0.683   6.149   4.668 -0.2530 -2.2583 -0.7376
   58DOPE   O21 7374   0.716   6.205   4.866  0.3641 -0.1631  0.3437
   58DOPE   C21 7375   0.590   6.182   4.892 -0.6558 -0.5472 -0.2975
   58DOPE   O22 7376   0.517   6.117   4.815  0.1083  0.4121 -0.2347
   58DOPE   C22 7377   0.556   6.232   5.033  0.0866 -0.5525 -0.4343
   58DOPE   H2R 7378   0.605   6.331   5.032 -0.8951 -0.0566 -0.6896
   58DOPE   H2S 7379   0.617   6.163   5.095 -0.2996 -1.0047 -0.5452
   58DOPE    C3 7380   0.795   5.997   4.751 -0.1601  0.3028 -0.2038
   58DOPE    HX 7381   0.830   5.966   4.650 -2.6470  0.4613 -1.1923
   58DOPE    HY 7382   0.702   5.941   4.775  1.0602 -1.2372  1.1944
   58DOPE   O31 7383   0.889   5.974   4.861 -0.2807  0.0431 -0.6698
   58DOPE   C31 7384   0.851   5.890   4.958  0.4313 -0.5905 -0.4806
   58DOPE   O32 7385   0.742   5.835   4.954 -0.0595 -0.6208  0.4283
   58DOPE   C32 7386   0.950   5.891   5.077 -0.2034 -0.7063  0.3079
   58DOPE   H2X 7387   1.019   5.809   5.050 -2.5041 -3.0305  1.0353
   58DOPE   H2Y 7388   1.002   5.989   5.067  0.4949 -1.1165 -0.1370
   58DOPE   C23 7389   0.412   6.240   5.083  0.1897 -0.9656  0.1132
   58DOPE   H3R 7390   0.414   6.185   5.179 -1.5129 -0.1292  0.6483
   58DOPE   H3S 7391   0.338   6.183   5.023 -0.1308  2.0334 -2.6050
   58DOPE   C24 7392   0.371   6.386   5.112  0.5668 -0.1950  0.3711
   58DOPE   H4R 7393   0.375   6.438   5.014 -0.2379 -2.2841 -0.8470
   58DOPE   H4S 7394   0.421   6.440   5.195 -2.5095 -0.6818  2.7285
   58DOPE   C25 7395   0.225   6.392   5.157  0.0034  0.7011 -0.0493
   58DOPE   H5R 7396   0.150   6.342   5.092 -0.4674 -0.3217  1.2343
   58DOPE   H5S 7397   0.200   6.500   5.157  1.7756  1.1710 -1.2344
   58DOPE   C26 7398   0.202   6.350   5.306 -0.4949 -0.3479  0.0856
   58DOPE   H6R 7399   0.268   6.417   5.365 -1.6966 -0.2377  1.3637
   58DOPE   H6S 7400   0.234   6.249   5.339  0.4489 -0.0799  0.0173
   58DOPE   C27 7401   0.055   6.365   5.337 -0.5413  0.3372  0.0814
   58DOPE   H7R 7402   0.005   6.271   5.304 -0.1092  0.4226 -0.8533
   58DOPE   H7S 7403   0.012   6.450   5.279  3.7648  1.6178 -1.5839
   58DOPE   C28 7404   0.024   6.394   5.483 -0.6557  0.1063  0.2639
   58DOPE   H8R 7405   0.081   6.325   5.549  0.6664  2.0752  1.2929
   58DOPE   H8S 7406  -0.081   6.361   5.501 -0.2538 -1.0992  0.4543
   58DOPE   C29 7407   0.033   6.541   5.527  0.2415  0.4430 -0.4889
   58DOPE   H9R 7408   0.126   6.578   5.571 -0.4012  1.0346  0.3961
   58DOPE  C210 7409  -0.078   6.625   5.533  0.0486 -1.1611 -0.1009
   58DOPE  H10R 7410  -0.071   6.724   5.582  1.6247 -0.9362 -0.7400
   58DOPE  C211 7411  -0.221   6.599   5.489  0.1602 -0.0973 -0.1030
   58DOPE  H11R 7412  -0.218   6.519   5.412 -2.9714 -0.9572  0.5268
   58DOPE  H11S 7413  -0.277   6.686   5.448 -0.3152 -1.3147 -2.1474
   58DOPE  C212 7414  -0.296   6.519   5.609 -0.1636 -0.3817  0.4004
   58DOPE  H12R 7415  -0.239   6.440   5.663  0.3433  1.3812  2.5924
   58DOPE  H12S 7416  -0.378   6.470   5.554 -1.5711  2.2441  0.0254
   58DOPE  C213 7417  -0.353   6.617   5.709  0.5031  0.6281  0.3480
   58DOPE  H13R 7418  -0.392   6.707   5.658 -0.4694  1.7077  2.8293
   58DOPE  H13S 7419  -0.275   6.657   5.778 -0.4283 -1.9246  3.1386
   58DOPE  C214 7420  -0.462   6.559   5.800  0.6672 -0.1831  0.0782
   58DOPE  H14R 7421  -0.422   6.483   5.870 -1.3112 -2.9107 -1.5553
   58DOPE  H14S 7422  -0.541   6.513   5.736  0.7938  1.7596 -1.5837
   58DOPE  C215 7423  -0.526   6.684   5.873 -0.2836  0.5669 -0.2268
   58DOPE  H15R 7424  -0.589   6.741   5.802 -0.6095  0.9427  0.3540
   58DOPE  H15S 7425  -0.438   6.751   5.885  1.8474 -1.3088 -3.6401
   58DOPE  C216 7426  -0.607   6.658   6.000  0.2520  0.7193 -0.1266
   58DOPE  H16R 7427  -0.632   6.760   6.036 -0.0709  1.4316 -2.2376
   58DOPE  H16S 7428  -0.546   6.605   6.076  1.0947 -0.0236 -1.2786
   58DOPE  C217 7429  -0.742   6.573   5.988  0.3069 -0.3052  0.1073
   58DOPE  H17R 7430  -0.721   6.484   5.926 -2.3385 -0.7143 -0.3148
   58DOPE  H17S 7431  -0.809   6.621   5.913  1.0205  0.1111 -0.2761
   58DOPE  C218 7432  -0.814   6.540   6.118  1.1548  0.5937  0.2741
   58DOPE  H18R 7433  -0.780   6.602   6.203  1.3575  0.2192  0.4689
   58DOPE  H18S 7434  -0.802   6.433   6.144 -1.0818 -0.2475 -1.7584
   58DOPE  H18T 7435  -0.922   6.554   6.098  1.3815  1.4583 -0.4025
   58DOPE   C33 7436   0.898   5.878   5.218  0.4270 -0.0217  0.5922
   58DOPE   H3X 7437   0.987   5.868   5.284  1.8458  2.1621 -0.8359
   58DOPE   H3Y 7438   0.839   5.785   5.237 -0.7918  0.1779 -1.7987
   58DOPE   C34 7439   0.837   6.008   5.270  0.1554  0.8375 -0.4894
   58DOPE   H4X 7440   0.896   6.094   5.231  0.1919  2.2645  2.4802
   58DOPE   H4Y 7441   0.733   6.018   5.231  0.4007  0.8411 -1.1491
   58DOPE   C35 7442   0.835   6.021   5.423 -0.2797 -0.4714 -0.0794
   58DOPE   H5X 7443   0.903   5.945   5.469 -1.1516 -0.2993  1.5760
   58DOPE   H5Y 7444   0.735   5.988   5.457  1.4094 -4.0910  2.0642
   58DOPE   C36 7445   0.871   6.166   5.462 -0.0917 -0.2805 -0.0083
   58DOPE   H6X 7446   0.796   6.232   5.412 -1.2300  0.2060  2.1977
   58DOPE   H6Y 7447   0.973   6.185   5.422 -0.4098  0.8512 -0.3378
   58DOPE   C37 7448   0.872   6.188   5.614  0.6518  0.3001  0.4269
   58DOPE   H7X 7449   0.770   6.179   5.658  0.7562  0.2022  0.6551
   58DOPE   H7Y 7450   0.928   6.104   5.661  0.7501  0.6227  0.8915
   58DOPE   C38 7451   0.935   6.319   5.666  0.4199  0.1214 -0.5328
   58DOPE   H8X 7452   0.907   6.335   5.772 -0.8608 -2.1177 -0.4748
   58DOPE   H8Y 7453   0.901   6.405   5.604  1.3942 -0.1662 -1.4860
   58DOPE   C39 7454   1.085   6.317   5.654  0.4944 -0.0398 -0.2540
   58DOPE   H9X 7455   1.130   6.295   5.556  2.0346  0.6280  0.2683
   58DOPE  C310 7456   1.170   6.335   5.755 -0.4739  0.5557  0.1175
   58DOPE  H10X 7457   1.271   6.299   5.728 -2.4335 -3.2100 -3.3037
   58DOPE  C311 7458   1.137   6.369   5.899  0.0287 -0.0271  0.5016
   58DOPE  H11X 7459   1.035   6.408   5.917 -0.2431 -0.3749 -0.2411
   58DOPE  H11Y 7460   1.137   6.280   5.965 -1.0694  1.1757  2.2273
   58DOPE  C312 7461   1.245   6.461   5.952 -0.2482 -0.3351  0.5170
   58DOPE  H12X 7462   1.277   6.535   5.876  2.0560 -1.2552  0.5150
   58DOPE  H12Y 7463   1.331   6.392   5.966 -0.2718 -1.1496 -2.5097
   58DOPE  C313 7464   1.216   6.534   6.087 -0.3441 -0.8215 -0.4551
   58DOPE  H13X 7465   1.139   6.613   6.072 -1.2200 -1.3655  0.9407
   58DOPE  H13Y 7466   1.171   6.455   6.152 -1.2395 -0.8574 -1.0931
   58DOPE  C314 7467   1.346   6.581   6.152 -0.2578  0.2715  0.5874
   58DOPE  H14X 7468   1.385   6.668   6.095  0.1430  0.9844  1.9008
   58DOPE  H14Y 7469   1.429   6.506   6.155  1.3365  1.8813 -1.0717
   58DOPE  C315 7470   1.331   6.614   6.299 -0.0489  0.1669  0.2408
   58DOPE  H15X 7471   1.278   6.527   6.344  2.5330 -1.7835 -0.3082
   58DOPE  H15Y 7472   1.256   6.694   6.316  1.0641  1.2676  0.0400
   58DOPE  C316 7473   1.462   6.647   6.376  0.2321  1.4311  0.0440
   58DOPE  H16X 7474   1.496   6.731   6.311  0.3147 -0.0913 -1.9749
   58DOPE  H16Y 7475   1.541   6.570   6.363  1.0826  1.9403  1.8743
   58DOPE  C317 7476   1.430   6.685   6.518 -0.7608 -0.4848  0.3607
   58DOPE  H17X 7477   1.334   6.741   6.514 -0.1421  0.5597 -0.6074
   58DOPE  H17Y 7478   1.397   6.600   6.581 -1.7319  0.0882  0.6487
   58DOPE  C318 7479   1.532   6.769   6.589 -0.5455 -0.4333  0.2447
   58DOPE  H18X 7480   1.503   6.794   6.693 -0.9592  3.9769 -0.7285
   58DOPE  H18Y 7481   1.635   6.729   6.579  0.8350  2.7717  0.2175
   58DOPE  H18Z 7482   1.537   6.868   6.539 -0.8437 -1.2571 -1.5029
   59DOPE     N 7483   7.467   2.309   4.397 -0.4352  0.0157 -0.8316
   59DOPE   HN1 7484   7.518   2.303   4.487  0.8978 -1.2433 -1.6302
   59DOPE   HN2 7485   7.501   2.394   4.347 -0.1059 -0.1582 -0.9007
   59DOPE   HN3 7486   7.365   2.321   4.418 -0.2443 -0.6480  0.5769
   59DOPE   C12 7487   7.490   2.180   4.328  0.5256  0.3451 -0.3351
   59DOPE  H12A 7488   7.480   2.206   4.220 -2.3684 -1.2878 -0.5417
   59DOPE  H12B 7489   7.410   2.110   4.359  1.0302 -0.5173 -0.9145
   59DOPE   C11 7490   7.624   2.116   4.355 -0.7617  0.2614  0.5643
   59DOPE  H11A 7491   7.639   2.115   4.465  0.8453 -0.5447  0.3714
   59DOPE  H11B 7492   7.703   2.181   4.312 -1.0513  0.2616  0.0250
   59DOPE     P 7493   7.742   1.882   4.332 -0.5950 -0.0450  0.1162
   59DOPE   O13 7494   7.870   1.952   4.337 -0.6138  0.2081 -0.3493
   59DOPE   O14 7495   7.731   1.767   4.245 -0.0573  0.1970 -0.0699
   59DOPE   O11 7496   7.712   1.819   4.471 -0.0084 -0.1059  0.3088
   59DOPE   O12 7497   7.625   1.981   4.311 -0.2707 -0.3649  0.2959
   59DOPE    C1 7498   7.583   1.808   4.527  0.6658  1.6301 -0.1279
   59DOPE    HA 7499   7.511   1.782   4.447  1.8497  0.2613 -0.7937
   59DOPE    HB 7500   7.553   1.897   4.587 -1.3527  0.1020  1.2549
   59DOPE    C2 7501   7.566   1.685   4.626  0.0225  0.4925  0.4261
   59DOPE    HS 7502   7.456   1.666   4.635 -0.3659  2.1006 -0.5973
   59DOPE   O21 7503   7.635   1.708   4.750  0.1474 -0.4647  0.7019
   59DOPE   C21 7504   7.561   1.769   4.831  0.0043 -0.1598 -0.5459
   59DOPE   O22 7505   7.445   1.802   4.820  0.0195  0.4160  0.6165
   59DOPE   C22 7506   7.628   1.783   4.961 -0.6592 -0.2051  0.2346
   59DOPE   H2R 7507   7.565   1.840   5.033  1.4020  0.9890  1.1685
   59DOPE   H2S 7508   7.726   1.834   4.951  0.4184 -2.4051 -0.9957
   59DOPE    C3 7509   7.633   1.558   4.558  0.4604 -0.2440 -0.3156
   59DOPE    HX 7510   7.733   1.587   4.518  0.9842 -0.5785  0.7318
   59DOPE    HY 7511   7.552   1.550   4.483 -0.5904 -0.3440  0.8063
   59DOPE   O31 7512   7.649   1.436   4.631  0.3378  0.1632  0.3841
   59DOPE   C31 7513   7.538   1.370   4.647 -0.1564  0.1956  0.0731
   59DOPE   O32 7514   7.428   1.402   4.602 -0.3146 -0.1442 -0.0078
   59DOPE   C32 7515   7.557   1.254   4.740 -0.0224 -0.1034  0.3519
   59DOPE   H2X 7516   7.463   1.235   4.796  0.4857  1.1684  1.7119
   59DOPE   H2Y 7517   7.580   1.165   4.677 -0.4990  0.4291 -0.5827
   59DOPE   C23 7518   7.655   1.646   5.034  0.4424  0.0099  0.1680
   59DOPE   H3R 7519   7.680   1.570   4.957  2.3476 -1.7779  2.3833
   59DOPE   H3S 7520   7.559   1.605   5.071  0.2022 -0.0910 -0.5540
   59DOPE   C24 7521   7.768   1.650   5.144 -0.5183 -0.0776 -0.6384
   59DOPE   H4R 7522   7.860   1.695   5.100 -0.3430 -0.7169 -0.9418
   59DOPE   H4S 7523   7.795   1.549   5.184  1.0191  0.1501 -1.0508
   59DOPE   C25 7524   7.723   1.732   5.258 -0.9769  0.0792  0.0694
   59DOPE   H5R 7525   7.621   1.699   5.285 -0.9375 -0.8889 -0.9025
   59DOPE   H5S 7526   7.720   1.838   5.224 -1.1023 -0.4254 -1.5702
   59DOPE   C26 7527   7.797   1.714   5.391  0.5565 -0.1261  0.2983
   59DOPE   H6R 7528   7.903   1.735   5.366  0.1602  1.2341 -0.3323
   59DOPE   H6S 7529   7.796   1.614   5.439  1.0916 -0.1564  0.2550
   59DOPE   C27 7530   7.748   1.797   5.515 -0.5077 -0.3763 -0.2435
   59DOPE   H7R 7531   7.638   1.788   5.526 -0.2390 -0.4372  3.8006
   59DOPE   H7S 7532   7.756   1.904   5.488  1.4703 -0.5808 -0.6436
   59DOPE   C28 7533   7.826   1.778   5.646 -0.2402  0.0523  0.5878
   59DOPE   H8R 7534   7.826   1.669   5.667 -0.3043  0.2246  1.5094
   59DOPE   H8S 7535   7.769   1.823   5.729  1.0640 -1.7636  2.5839
   59DOPE   C29 7536   7.972   1.821   5.645  0.1994  0.1749 -0.1451
   59DOPE   H9R 7537   8.022   1.822   5.546 -0.9642 -1.9767 -0.8207
   59DOPE  C210 7538   8.041   1.870   5.743 -0.4137  0.3618 -0.5074
   59DOPE  H10R 7539   8.146   1.895   5.726 -0.4965  2.5684  1.6889
   59DOPE  C211 7540   8.004   1.904   5.885 -0.4410 -0.3361  0.2882
   59DOPE  H11R 7541   8.033   1.814   5.944 -1.0642 -0.7284 -0.0019
   59DOPE  H11S 7542   7.895   1.918   5.901 -0.5521  0.4479 -1.0781
   59DOPE  C212 7543   8.083   2.028   5.939 -0.3974 -0.1296 -0.3750
   59DOPE  H12R 7544   8.070   2.116   5.874  2.1230 -0.3784 -1.3245
   59DOPE  H12S 7545   8.193   2.011   5.942  0.0669  2.5504  0.8203
   59DOPE  C213 7546   8.041   2.056   6.085  0.0016  0.4196 -0.0611
   59DOPE  H13R 7547   8.033   1.970   6.155  2.2746  0.5963  0.5035
   59DOPE  H13S 7548   7.933   2.080   6.083 -0.0961 -0.0302 -0.2396
   59DOPE  C214 7549   8.113   2.166   6.156 -0.5384  0.4633  0.4109
   59DOPE  H14R 7550   8.101   2.261   6.100  1.8242  0.8010  0.3564
   59DOPE  H14S 7551   8.222   2.147   6.173 -0.8119 -2.0728 -0.3983
   59DOPE  C215 7552   8.049   2.171   6.298 -0.0181 -1.1170  0.2881
   59DOPE  H15R 7553   8.056   2.075   6.354 -0.5631 -2.2576 -1.4916
   59DOPE  H15S 7554   7.939   2.179   6.293  0.1537  0.8890 -1.9246
   59DOPE  C216 7555   8.102   2.292   6.373 -0.2232 -0.4534 -0.1638
   59DOPE  H16R 7556   8.076   2.389   6.326  0.1572 -1.0859 -1.7587
   59DOPE  H16S 7557   8.212   2.295   6.386  0.0998  2.8105 -2.4409
   59DOPE  C217 7558   8.044   2.298   6.510  0.1532  0.6156 -0.0591
   59DOPE  H17R 7559   8.078   2.200   6.551  1.8358 -0.2050 -3.1539
   59DOPE  H17S 7560   7.933   2.296   6.506 -0.0376 -0.8119  2.7996
   59DOPE  C218 7561   8.093   2.410   6.605  0.6689  0.1899  0.0671
   59DOPE  H18R 7562   8.071   2.397   6.713  1.9813  0.8856  0.4429
   59DOPE  H18S 7563   8.042   2.505   6.576 -1.7051 -0.8148  0.6931
   59DOPE  H18T 7564   8.203   2.423   6.612  0.9286 -0.7937 -1.6410
   59DOPE   C33 7565   7.679   1.281   4.834 -0.1660  0.0080  0.8555
   59DOPE   H3X 7566   7.685   1.389   4.859  1.7084  0.0651  0.3481
   59DOPE   H3Y 7567   7.773   1.252   4.781  1.7938 -0.7575  4.4086
   59DOPE   C34 7568   7.679   1.205   4.968  0.2974 -0.2391 -0.2046
   59DOPE   H4X 7569   7.693   1.097   4.947 -1.2131 -1.2295  3.2164
   59DOPE   H4Y 7570   7.757   1.241   5.038  1.8022 -1.0065 -1.4228
   59DOPE   C35 7571   7.546   1.228   5.035 -0.4387 -0.2313 -0.3119
   59DOPE   H5X 7572   7.457   1.184   4.986 -1.8271  1.6795  0.3630
   59DOPE   H5Y 7573   7.521   1.336   5.039 -1.3776 -0.4651  0.9803
   59DOPE   C36 7574   7.550   1.177   5.178 -0.7332 -0.3069 -0.4973
   59DOPE   H6X 7575   7.595   1.077   5.158 -1.7876 -0.7167 -0.8732
   59DOPE   H6Y 7576   7.445   1.164   5.211 -1.7106 -0.2570 -3.3195
   59DOPE   C37 7577   7.613   1.282   5.274 -0.8125  0.1509 -0.0396
   59DOPE   H7X 7578   7.723   1.263   5.279 -0.3767  2.7136  1.7753
   59DOPE   H7Y 7579   7.589   1.385   5.242 -1.5765 -0.2149 -0.6659
   59DOPE   C38 7580   7.559   1.269   5.421  0.0297 -0.3036 -1.2008
   59DOPE   H8X 7581   7.576   1.161   5.443  0.4547  0.0775  0.4737
   59DOPE   H8Y 7582   7.450   1.290   5.417  0.4015  1.6370 -2.0937
   59DOPE   C39 7583   7.634   1.355   5.521 -0.4636 -0.6346 -0.0449
   59DOPE   H9X 7584   7.742   1.336   5.512 -0.6140 -0.6560 -2.5188
   59DOPE  C310 7585   7.591   1.454   5.603  0.4979  0.0484 -0.2437
   59DOPE  H10X 7586   7.660   1.509   5.669 -0.8347  0.5422  0.7853
   59DOPE  C311 7587   7.439   1.485   5.629  0.1437 -0.0456  0.0061
   59DOPE  H11X 7588   7.393   1.543   5.547 -0.0854 -0.0056  0.1636
   59DOPE  H11Y 7589   7.381   1.390   5.633 -1.6717  0.9780 -0.8157
   59DOPE  C312 7590   7.422   1.570   5.758 -0.4779  0.2528 -0.2727
   59DOPE  H12X 7591   7.467   1.522   5.848  0.1087  0.3076 -0.5308
   59DOPE  H12Y 7592   7.313   1.578   5.778 -0.2270  1.8055  0.6280
   59DOPE  C313 7593   7.467   1.717   5.746  0.3213  0.6427 -0.5439
   59DOPE  H13X 7594   7.574   1.720   5.777  0.9730  0.7476 -2.6278
   59DOPE  H13Y 7595   7.463   1.750   5.640  0.6274 -0.1860 -0.8157
   59DOPE  C314 7596   7.369   1.811   5.815 -0.1207 -0.8018  0.0346
   59DOPE  H14X 7597   7.346   1.781   5.920  2.4330 -3.8944 -0.1341
   59DOPE  H14Y 7598   7.277   1.804   5.754  1.9132  2.4215 -3.8889
   59DOPE  C315 7599   7.427   1.958   5.825  0.9402  0.4809  0.9057
   59DOPE  H15X 7600   7.461   1.983   5.723 -1.1424 -0.6924 -0.1327
   59DOPE  H15Y 7601   7.519   1.957   5.887  0.9193 -3.7863  1.1487
   59DOPE  C316 7602   7.321   2.058   5.865  0.0326  0.0607  0.1427
   59DOPE  H16X 7603   7.302   2.030   5.971 -1.0122  0.5943  0.1052
   59DOPE  H16Y 7604   7.228   2.039   5.808 -0.2463 -1.1303  0.9507
   59DOPE  C317 7605   7.360   2.201   5.850 -0.1611 -0.8536  0.6992
   59DOPE  H17X 7606   7.294   2.265   5.913 -0.5178  0.1264 -0.6194
   59DOPE  H17Y 7607   7.459   2.223   5.897 -1.1046  1.9732  1.5552
   59DOPE  C318 7608   7.376   2.243   5.701 -0.0883  0.2766  0.4421
   59DOPE  H18X 7609   7.287   2.288   5.652  1.0019  0.6391 -1.2995
   59DOPE  H18Y 7610   7.461   2.315   5.695  2.4294 -2.5546 -0.6145
   59DOPE  H18Z 7611   7.399   2.156   5.636 -0.2078  1.1589 -0.8221
   60DOPE     N 7612   7.651   7.591   4.629 -0.3468 -0.2245  0.2181
   60DOPE   HN1 7613   7.749   7.589   4.594  0.3008  1.9022  1.7011
   60DOPE   HN2 7614   7.601   7.504   4.601  0.3093 -0.5324 -0.0134
   60DOPE   HN3 7615   7.596   7.673   4.594 -1.3972 -1.6732 -1.6911
   60DOPE   C12 7616   7.660   7.602   4.775  0.1433 -0.2757  0.5612
   60DOPE  H12A 7617   7.683   7.502   4.818 -0.3817 -0.1343  1.1899
   60DOPE  H12B 7618   7.559   7.615   4.820 -0.0033  1.6900 -0.2517
   60DOPE   C11 7619   7.758   7.714   4.809  1.0851 -0.3212 -0.6057
   60DOPE  H11A 7620   7.780   7.706   4.918  0.1631 -0.7848 -0.4443
   60DOPE  H11B 7621   7.702   7.810   4.801  1.8809  0.6108  2.9229
   60DOPE     P 7622   7.934   7.792   4.639 -0.2544 -0.0880  0.0758
   60DOPE   O13 7623   7.829   7.797   4.536 -0.6496  0.1313  0.2587
   60DOPE   O14 7624   8.074   7.755   4.599 -0.1701 -0.1510  0.5618
   60DOPE   O11 7625   7.947   7.937   4.704 -0.3378  0.1688 -0.0346
   60DOPE   O12 7626   7.876   7.699   4.744  0.7324  0.1784  0.1948
   60DOPE    C1 7627   8.012   7.955   4.832  0.0783 -0.4348  0.0416
   60DOPE    HA 7628   8.103   8.018   4.824 -1.3932  1.9421  0.8355
   60DOPE    HB 7629   8.050   7.858   4.870  0.2398 -1.0614 -1.6554
   60DOPE    C2 7630   7.936   8.028   4.946  1.4921 -0.7577  0.3190
   60DOPE    HS 7631   7.830   7.996   4.944  0.6634  1.7962 -1.2196
   60DOPE   O21 7632   7.930   8.165   4.908  1.0502 -0.0156 -1.0051
   60DOPE   C21 7633   7.836   8.251   4.947 -0.3239  0.9466 -0.7193
   60DOPE   O22 7634   7.728   8.220   4.996 -0.2491  0.4438 -0.6914
   60DOPE   C22 7635   7.863   8.400   4.903 -0.2361 -0.0544 -0.1105
   60DOPE   H2R 7636   7.806   8.408   4.807  0.2190 -1.1001 -0.4821
   60DOPE   H2S 7637   7.969   8.392   4.872 -0.0672  0.2045  0.3937
   60DOPE    C3 7638   7.998   8.008   5.079  0.0700  0.0953 -0.1330
   60DOPE    HX 7639   8.098   8.055   5.065 -0.2661  0.4258 -1.6034
   60DOPE    HY 7640   8.014   7.901   5.103  0.6562 -0.1458 -1.5312
   60DOPE   O31 7641   7.936   8.077   5.191  0.1429 -0.1454 -0.0751
   60DOPE   C31 7642   7.833   8.010   5.246 -0.1256  0.2496  1.1282
   60DOPE   O32 7643   7.778   7.910   5.203  0.4443  0.7171 -0.4780
   60DOPE   C32 7644   7.790   8.083   5.371 -0.3564  0.7152 -0.0416
   60DOPE   H2X 7645   7.853   8.059   5.459 -1.3250  2.6321  1.2669
   60DOPE   H2Y 7646   7.795   8.192   5.347 -0.2575  0.7643  0.1960
   60DOPE   C23 7647   7.825   8.505   4.999 -0.1570 -0.1953 -0.7035
   60DOPE   H3R 7648   7.718   8.498   5.026 -0.1373 -0.9131 -0.7933
   60DOPE   H3S 7649   7.835   8.608   4.959  2.1036  0.4951  1.3912
   60DOPE   C24 7650   7.919   8.495   5.122  0.0103 -0.7241  0.4463
   60DOPE   H4R 7651   8.025   8.511   5.092 -0.1408  1.8056  1.0542
   60DOPE   H4S 7652   7.915   8.388   5.152 -2.9826 -0.8875 -0.2078
   60DOPE   C25 7653   7.879   8.608   5.221 -0.7612  0.2811 -0.2887
   60DOPE   H5R 7654   7.774   8.621   5.257  0.2384  2.2007  2.2083
   60DOPE   H5S 7655   7.912   8.702   5.173 -0.7534 -0.1970 -1.2603
   60DOPE   C26 7656   7.967   8.606   5.348  0.6025 -0.5741  0.4852
   60DOPE   H6R 7657   7.950   8.700   5.404 -1.0642 -0.0656 -0.7920
   60DOPE   H6S 7658   8.072   8.604   5.311  0.2238 -1.6266 -0.6290
   60DOPE   C27 7659   7.930   8.498   5.452  0.1734 -0.3756  0.2727
   60DOPE   H7R 7660   7.958   8.395   5.421 -0.3861 -1.1026  2.0788
   60DOPE   H7S 7661   7.819   8.495   5.457  0.1295  0.1152 -0.2197
   60DOPE   C28 7662   7.990   8.524   5.586 -0.2458  0.5551 -0.3982
   60DOPE   H8R 7663   7.950   8.621   5.625  1.3082  2.0478 -2.3131
   60DOPE   H8S 7664   8.099   8.536   5.573 -0.6227  3.0370 -2.0891
   60DOPE   C29 7665   7.954   8.412   5.680 -0.3135 -0.5475 -0.0023
   60DOPE   H9R 7666   7.986   8.312   5.646 -2.0100 -0.5477 -1.7392
   60DOPE  C210 7667   7.931   8.428   5.815  0.0664  0.1304 -0.3177
   60DOPE  H10R 7668   7.932   8.340   5.881 -2.5410  0.9042  0.9000
   60DOPE  C211 7669   7.913   8.560   5.884  0.2560  0.3137 -0.3251
   60DOPE  H11R 7670   7.840   8.549   5.967  0.0044 -0.4363 -0.6380
   60DOPE  H11S 7671   7.889   8.642   5.814  2.1697  0.7943 -0.4799
   60DOPE  C212 7672   8.042   8.612   5.949  0.0045  0.3365  0.2489
   60DOPE  H12R 7673   8.097   8.650   5.860  2.7230  1.8036  2.3823
   60DOPE  H12S 7674   8.101   8.528   5.992  1.5442  0.4254 -1.5517
   60DOPE  C213 7675   8.001   8.721   6.050 -0.5409  0.0684  0.0564
   60DOPE  H13R 7676   7.950   8.802   5.993  1.6779  1.5218  0.0456
   60DOPE  H13S 7677   8.089   8.774   6.090 -2.4452  4.2333 -0.7198
   60DOPE  C214 7678   7.919   8.685   6.173  0.1744  0.3080  0.7247
   60DOPE  H14R 7679   7.823   8.639   6.143  0.2444  1.5507 -1.6447
   60DOPE  H14S 7680   7.894   8.781   6.222 -0.7125  0.7490 -0.5533
   60DOPE  C215 7681   7.986   8.589   6.264 -0.1669 -0.3601 -0.4786
   60DOPE  H15R 7682   8.081   8.635   6.301  0.1568  0.5880 -2.3729
   60DOPE  H15S 7683   8.012   8.499   6.203  0.1598 -1.0195  0.5991
   60DOPE  C216 7684   7.908   8.540   6.392 -0.1549  0.0962 -0.3232
   60DOPE  H16R 7685   7.826   8.473   6.359 -1.2486  0.7442  0.9539
   60DOPE  H16S 7686   7.867   8.628   6.446 -0.7548 -1.0555  1.1406
   60DOPE  C217 7687   8.010   8.475   6.486 -0.4084  0.0151  0.1431
   60DOPE  H17R 7688   8.076   8.558   6.520  0.0905 -0.1146 -0.4924
   60DOPE  H17S 7689   8.074   8.402   6.432 -2.8286 -1.2023 -1.2376
   60DOPE  C218 7690   7.952   8.403   6.605 -0.6736  0.5046 -0.6316
   60DOPE  H18R 7691   7.903   8.312   6.565 -0.8136  0.5433 -0.5471
   60DOPE  H18S 7692   7.881   8.457   6.672  0.6093  2.6275 -0.8847
   60DOPE  H18T 7693   8.038   8.372   6.669  0.0344 -0.4476 -2.0035
   60DOPE   C33 7694   7.639   8.060   5.411  0.4889 -0.0002  0.3080
   60DOPE   H3X 7695   7.624   7.954   5.441 -2.6148 -0.4877 -2.4042
   60DOPE   H3Y 7696   7.572   8.076   5.324  1.6125  2.1260 -0.2107
   60DOPE   C34 7697   7.598   8.144   5.531  0.3727  0.1152  0.1182
   60DOPE   H4X 7698   7.633   8.248   5.514 -0.5816  0.2833 -0.9785
   60DOPE   H4Y 7699   7.487   8.138   5.543  0.4354 -2.4697  0.0147
   60DOPE   C35 7700   7.660   8.097   5.657 -0.6330 -0.0876  0.5553
   60DOPE   H5X 7701   7.768   8.110   5.637 -0.9337  2.3853  0.1924
   60DOPE   H5Y 7702   7.639   7.989   5.675  1.6540 -0.9892 -1.6155
   60DOPE   C36 7703   7.618   8.188   5.775  0.5460 -0.4545 -0.4503
   60DOPE   H6X 7704   7.507   8.183   5.788  0.4888  1.5692  0.2508
   60DOPE   H6Y 7705   7.642   8.292   5.744 -1.5691  0.2558  0.0957
   60DOPE   C37 7706   7.691   8.169   5.908 -0.1344  0.6477 -0.2433
   60DOPE   H7X 7707   7.664   8.071   5.955 -0.7819  1.2666  0.7188
   60DOPE   H7Y 7708   7.800   8.173   5.885 -0.1832 -0.6154 -0.7701
   60DOPE   C38 7709   7.641   8.277   6.006 -0.3750 -0.2379 -0.7273
   60DOPE   H8X 7710   7.536   8.261   6.038 -0.9254  2.6410 -0.7856
   60DOPE   H8Y 7711   7.640   8.380   5.964 -1.2081  0.0670 -0.0002
   60DOPE   C39 7712   7.730   8.269   6.128  0.3741  0.7159  0.0658
   60DOPE   H9X 7713   7.838   8.265   6.107  0.5865  0.2712  1.1782
   60DOPE  C310 7714   7.691   8.259   6.254  0.5235  0.2514  0.5305
   60DOPE  H10X 7715   7.766   8.247   6.334 -1.1336 -3.3870  1.7499
   60DOPE  C311 7716   7.548   8.251   6.292  0.1225 -0.0412 -0.1498
   60DOPE  H11X 7717   7.475   8.284   6.214 -0.1969 -0.4919 -0.0484
   60DOPE  H11Y 7718   7.513   8.153   6.333  0.2627  0.6038  1.5850
   60DOPE  C312 7719   7.521   8.357   6.407 -0.3149  0.4304 -0.0359
   60DOPE  H12X 7720   7.412   8.375   6.414 -0.4497 -0.1539 -0.5290
   60DOPE  H12Y 7721   7.573   8.450   6.376  1.4110 -1.2258 -2.5080
   60DOPE  C313 7722   7.568   8.320   6.552 -0.4225 -0.2728  0.2416
   60DOPE  H13X 7723   7.525   8.219   6.572 -0.6158 -0.2330  0.0391
   60DOPE  H13Y 7724   7.678   8.309   6.538  0.0596  3.9353 -0.3423
   60DOPE  C314 7725   7.538   8.414   6.660  0.1860 -0.8993 -0.1383
   60DOPE  H14X 7726   7.429   8.436   6.659  0.1887 -0.8897 -0.2875
   60DOPE  H14Y 7727   7.591   8.511   6.654  0.3347 -1.0520 -1.6842
   60DOPE  C315 7728   7.585   8.365   6.799 -0.0060  0.4638 -0.4174
   60DOPE  H15X 7729   7.696   8.360   6.798 -0.0329 -2.9056  0.6158
   60DOPE  H15Y 7730   7.553   8.259   6.808 -0.9537  0.7182 -0.7048
   60DOPE  C316 7731   7.538   8.458   6.913 -0.4701  0.8472  0.8483
   60DOPE  H16X 7732   7.561   8.562   6.881 -0.6266  0.6472  0.0653
   60DOPE  H16Y 7733   7.591   8.433   7.007 -1.1372 -1.8332  0.6181
   60DOPE  C317 7734   7.388   8.454   6.944 -0.0005 -0.1266  0.2924
   60DOPE  H17X 7735   7.329   8.481   6.853  0.5940 -0.4830 -0.2060
   60DOPE  H17Y 7736   7.354   8.353   6.974  0.1718 -0.4239 -0.4845
   60DOPE  C318 7737   7.355   8.553   7.057 -0.6257 -0.1787 -0.0536
   60DOPE  H18X 7738   7.349   8.657   7.019  2.9945  0.0941 -0.2812
   60DOPE  H18Y 7739   7.257   8.530   7.105 -0.9851 -1.2630 -1.2338
   60DOPE  H18Z 7740   7.433   8.550   7.136  0.6964  0.3836 -1.2862
   6123SM     N 7741   1.534   5.646   9.220  0.2132  0.1397  0.2814
   6123SM   C15 7742   1.620   5.702   9.328  0.3512 -0.8990 -0.7152
   6123SM  H15A 7743   1.703   5.637   9.350  1.8605  0.8978 -0.8035
   6123SM  H15B 7744   1.567   5.723   9.419  1.7793 -0.1953 -0.0117
   6123SM  H15C 7745   1.667   5.791   9.288  1.6073  0.3417  3.0419
   6123SM   C14 7746   1.455   5.533   9.289 -0.4133 -0.2713  0.0728
   6123SM  H14A 7747   1.385   5.573   9.360 -0.3543  0.5049 -0.2967
   6123SM  H14B 7748   1.524   5.467   9.339  0.0495 -0.6332 -1.0048
   6123SM  H14C 7749   1.408   5.475   9.210  0.1399 -0.7399  0.0803
   6123SM   C13 7750   1.444   5.754   9.172  0.1838 -0.2580 -0.6620
   6123SM  H13A 7751   1.404   5.800   9.261  1.8276  0.1685 -0.1018
   6123SM  H13B 7752   1.361   5.732   9.106 -0.5065 -0.3580  0.2307
   6123SM  H13C 7753   1.504   5.832   9.127  0.3367 -0.5565 -0.9835
   6123SM   C12 7754   1.622   5.596   9.111  0.1276  0.4135 -0.2423
   6123SM  H12A 7755   1.568   5.550   9.029  0.3168  2.5522 -1.6479
   6123SM  H12B 7756   1.691   5.524   9.153  1.0656  1.8885  0.8677
   6123SM   C11 7757   1.704   5.701   9.036 -0.3803 -0.7257  0.6525
   6123SM  H11A 7758   1.779   5.639   8.982  0.6803  0.1188  1.1102
   6123SM  H11B 7759   1.751   5.761   9.117 -1.8286  1.7830 -0.2467
   6123SM     P 7760   1.680   5.901   8.870 -0.3160 -0.1572 -0.0449
   6123SM   O13 7761   1.562   5.961   8.807 -0.4217  0.2606 -0.4317
   6123SM   O14 7762   1.760   5.986   8.957 -0.5521  0.3520 -0.7575
   6123SM   O11 7763   1.773   5.838   8.759  0.7308  0.0478 -0.0417
   6123SM   O12 7764   1.621   5.780   8.950  0.2855  0.4855  0.5035
   6123SM   C1S 7765   1.730   5.719   8.682  0.8152 -0.9212  0.2159
   6123SM   H1S 7766   1.646   5.753   8.617  0.8446  1.6685  1.4042
   6123SM   H1T 7767   1.684   5.639   8.744 -2.9503 -0.4890 -1.7587
   6123SM    NF 7768   1.785   5.529   8.555  0.2503  0.4118 -0.6012
   6123SM   HNF 7769   1.793   5.438   8.595 -1.7296 -0.8839 -2.8953
   6123SM   C2S 7770   1.848   5.652   8.607  0.3937 -0.3082 -0.3069
   6123SM   H2S 7771   1.872   5.723   8.525 -1.0213 -1.4150 -1.7566
   6123SM   C3S 7772   1.971   5.638   8.712  0.3613 -0.1283 -0.4556
   6123SM   H3S 7773   1.926   5.581   8.796  1.8904 -1.0854 -0.2442
   6123SM    O3 7774   2.020   5.767   8.769  0.4582  0.3581  0.2050
   6123SM   HO3 7775   1.942   5.817   8.743 -1.6815 -2.2257  1.1135
   6123SM   C4S 7776   2.087   5.555   8.658  0.3022  0.5013 -0.2613
   6123SM   H4S 7777   2.079   5.450   8.688  1.9328  0.1440 -0.9574
   6123SM   C5S 7778   2.204   5.599   8.600 -0.3436  0.1060 -0.0491
   6123SM   H5S 7779   2.212   5.707   8.581 -1.1652  0.3030  0.6458
   6123SM   C6S 7780   2.325   5.514   8.565  0.1710 -0.0492 -0.1624
   6123SM   H6S 7781   2.303   5.415   8.610  0.8428  0.8249  2.2590
   6123SM   H6T 7782   2.416   5.556   8.612  0.2871 -0.3272 -0.1366
   6123SM   C7S 7783   2.347   5.491   8.412 -0.6194 -0.3159 -0.2568
   6123SM   H7S 7784   2.405   5.572   8.362 -2.2293  1.4297  0.5691
   6123SM   H7T 7785   2.250   5.493   8.357 -1.4513  1.7932  1.1289
   6123SM   C8S 7786   2.436   5.364   8.382  0.4177 -0.0201 -0.2217
   6123SM   H8S 7787   2.386   5.279   8.434 -0.9271  0.2966 -0.9526
   6123SM   H8T 7788   2.538   5.374   8.425  1.0185  1.2423 -1.8368
   6123SM   C9S 7789   2.426   5.329   8.233 -0.5107  0.4605  0.5588
   6123SM   H9S 7790   2.330   5.373   8.200 -0.8734  1.2613  2.5650
   6123SM   H9T 7791   2.431   5.218   8.231 -0.3677  0.3880  2.7260
   6123SM  C10S 7792   2.547   5.385   8.156 -0.1088  0.9470  0.0595
   6123SM  H10S 7793   2.633   5.337   8.209  0.2500  0.8903 -0.5617
   6123SM  H10T 7794   2.560   5.495   8.163  0.2139  1.1236 -2.3535
   6123SM  C11S 7795   2.552   5.364   8.003 -1.0976 -0.1454  0.7047
   6123SM  H11S 7796   2.453   5.399   7.966 -1.0258  1.0551  1.5850
   6123SM  H11T 7797   2.572   5.257   7.981 -0.2949  0.0595  0.4065
   6123SM  C12S 7798   2.664   5.445   7.931  0.0002 -0.4319  0.4483
   6123SM  H12S 7799   2.756   5.418   7.988  0.1310  0.9653  0.9293
   6123SM  H12T 7800   2.627   5.549   7.945  0.5732 -0.1616 -0.0257
   6123SM  C13S 7801   2.667   5.414   7.777 -0.1839 -0.1200 -0.7094
   6123SM  H13S 7802   2.684   5.306   7.755 -2.1871 -0.3788 -1.1206
   6123SM  H13T 7803   2.749   5.476   7.736 -0.2975  1.8125  1.7548
   6123SM  C14S 7804   2.535   5.449   7.707 -0.0541 -0.4581  0.4930
   6123SM  H14S 7805   2.522   5.556   7.736 -0.0557 -0.2747 -0.1773
   6123SM  H14T 7806   2.443   5.397   7.741 -0.1249 -0.4281  0.3506
   6123SM  C15S 7807   2.544   5.422   7.556 -0.2563 -0.0535  0.9724
   6123SM  H15S 7808   2.542   5.311   7.550 -0.5063 -0.0372  0.7116
   6123SM  H15T 7809   2.635   5.457   7.502 -1.4530 -0.0784 -1.1804
   6123SM  C16S 7810   2.428   5.473   7.472  0.0874 -0.5552  0.5865
   6123SM  H16S 7811   2.418   5.581   7.495  0.0925 -0.2454 -0.7812
   6123SM  H16T 7812   2.333   5.425   7.503 -0.3027 -0.1904 -0.0110
   6123SM  C17S 7813   2.434   5.441   7.319  0.6776 -0.2335  0.2899
   6123SM  H17S 7814   2.482   5.341   7.313  1.3308  0.0316  0.9556
   6123SM  H17T 7815   2.511   5.512   7.282  1.4529 -0.7229  0.9243
   6123SM  C18S 7816   2.298   5.458   7.254  0.2693  0.4383  0.0182
   6123SM  H18S 7817   2.229   5.379   7.291 -0.1861  1.0593  0.5069
   6123SM  H18T 7818   2.298   5.437   7.145 -2.2886 -2.7541  0.4682
   6123SM  H18U 7819   2.263   5.563   7.265  0.1592  0.4701 -0.5877
   6123SM   C1F 7820   1.699   5.531   8.451  0.1776  0.2127  0.0837
   6123SM    OF 7821   1.674   5.635   8.391  0.3466 -0.1572  0.1390
   6123SM   C2F 7822   1.646   5.399   8.404  0.2142 -0.7356 -0.3086
   6123SM   H2F 7823   1.557   5.365   8.461  0.2416  0.4279  0.4832
   6123SM   H2G 7824   1.721   5.319   8.416  1.7257  0.5681 -0.7152
   6123SM   C3F 7825   1.601   5.388   8.256 -0.5038  0.8234 -0.1316
   6123SM   H3F 7826   1.507   5.437   8.224 -1.0201  0.1690  0.3403
   6123SM   H3G 7827   1.593   5.278   8.248 -0.2473  0.7155  0.9534
   6123SM   C4F 7828   1.724   5.422   8.165  0.3603 -0.1393 -0.7174
   6123SM   H4F 7829   1.822   5.381   8.196  0.7931  0.7383 -0.8788
   6123SM   H4G 7830   1.732   5.533   8.158 -0.6924 -0.0356 -0.4458
   6123SM   C5F 7831   1.693   5.368   8.032  1.1276 -0.3569  0.0563
   6123SM   H5F 7832   1.592   5.386   7.988  0.6364 -0.4500  1.1303
   6123SM   H5G 7833   1.693   5.258   8.045 -1.7708 -0.2493  1.9949
   6123SM   C6F 7834   1.798   5.410   7.923 -0.5118 -0.8679 -0.3132
   6123SM   H6F 7835   1.887   5.347   7.944  0.1715  0.0360 -0.4607
   6123SM   H6G 7836   1.827   5.517   7.924  0.6144 -1.1389 -1.3838
   6123SM   C7F 7837   1.743   5.370   7.794  0.3204  0.4966  0.9513
   6123SM   H7F 7838   1.650   5.430   7.786  0.7114  1.7931  4.4026
   6123SM   H7G 7839   1.710   5.264   7.801 -1.6188  1.1407  2.2282
   6123SM   C8F 7840   1.834   5.397   7.676 -0.4886  0.3287  0.5101
   6123SM   H8F 7841   1.930   5.342   7.678 -0.7733 -0.1835  0.1719
   6123SM   H8G 7842   1.853   5.507   7.667  1.8043  0.0708  1.6777
   6123SM   C9F 7843   1.762   5.365   7.545  0.7706  0.2913 -0.5347
   6123SM   H9F 7844   1.673   5.429   7.529  0.1762 -0.5373 -0.6345
   6123SM   H9G 7845   1.731   5.258   7.549  0.7549  0.2643 -1.1582
   6123SM  C10F 7846   1.846   5.369   7.411  0.0695 -0.4339 -0.5838
   6123SM  H10F 7847   1.946   5.326   7.433  0.9211  0.0429 -3.0979
   6123SM  H10G 7848   1.865   5.477   7.393  2.5832 -0.3725  1.8000
   6123SM  C11F 7849   1.778   5.297   7.289 -0.4497  0.4330 -0.5603
   6123SM  H11F 7850   1.688   5.351   7.255 -1.4945 -2.7708 -3.4764
   6123SM  H11G 7851   1.734   5.197   7.310  1.2684 -0.9154 -2.8818
   6123SM  C12F 7852   1.877   5.282   7.175 -0.0937 -0.2192  0.1129
   6123SM  H12F 7853   1.960   5.221   7.217 -0.8163 -0.2033  1.6105
   6123SM  H12G 7854   1.916   5.385   7.165 -1.4174  0.3763  0.8039
   6123SM  C13F 7855   1.808   5.234   7.042 -0.2931  0.0107  0.3639
   6123SM  H13F 7856   1.728   5.306   7.015 -0.4412 -0.1899  0.2654
   6123SM  H13G 7857   1.769   5.134   7.068  0.3191 -0.3502 -0.0818
   6123SM  C14F 7858   1.907   5.203   6.927 -0.0604  0.0914  0.5571
   6123SM  H14F 7859   2.000   5.157   6.967 -0.5554 -1.6850 -0.2451
   6123SM  H14G 7860   1.943   5.295   6.875 -4.2433  1.1761 -0.7613
   6123SM  C15F 7861   1.851   5.113   6.822  0.1441 -0.0143  0.2135
   6123SM  H15F 7862   1.815   5.019   6.870 -1.5085 -1.4842 -3.4676
   6123SM  H15G 7863   1.929   5.077   6.751  0.0667 -0.0922  0.1674
   6123SM  C16F 7864   1.722   5.154   6.751 -0.6577 -0.2391 -0.2250
   6123SM  H16F 7865   1.759   5.193   6.654  1.3367  0.0337  0.6021
   6123SM  H16G 7866   1.673   5.235   6.809 -0.2073  1.9963 -2.7762
   6123SM  C17F 7867   1.614   5.052   6.718  0.2431 -0.1349  0.1712
   6123SM  H17F 7868   1.556   5.034   6.811 -0.9927 -0.9433 -0.7459
   6123SM  H17G 7869   1.666   4.964   6.676  1.1518  0.5112 -0.1040
   6123SM  C18F 7870   1.517   5.105   6.614 -0.2654  0.2079  0.2748
   6123SM  H18F 7871   1.471   5.195   6.661  2.4485  1.9192 -0.1220
   6123SM  H18G 7872   1.423   5.048   6.598 -0.4667  0.6152 -0.0107
   6123SM  C19F 7873   1.575   5.130   6.471  0.1442  0.1535 -0.3230
   6123SM  H19F 7874   1.603   5.033   6.425 -0.8114  0.2830 -1.2128
   6123SM  H19G 7875   1.655   5.204   6.490  1.4585 -1.8167  2.5900
   6123SM  C20F 7876   1.482   5.199   6.372  0.2774  0.3973  0.7040
   6123SM  H20F 7877   1.446   5.297   6.411 -1.6225  0.0542 -0.1102
   6123SM  H20G 7878   1.395   5.134   6.354 -0.4197  1.5828 -0.3681
   6123SM  C21F 7879   1.553   5.225   6.239 -0.7173 -0.0550 -0.5716
   6123SM  H21F 7880   1.582   5.132   6.185  2.1910  0.2215  0.3508
   6123SM  H21G 7881   1.640   5.281   6.280 -2.1135  0.9247  1.2068
   6123SM  C22F 7882   1.466   5.323   6.155 -0.6322 -0.6564  0.6944
   6123SM  H22F 7883   1.422   5.408   6.213 -1.4087  1.4045 -2.6188
   6123SM  H22G 7884   1.382   5.263   6.114  0.6756 -0.5358 -2.3945
   6123SM  C23F 7885   1.539   5.368   6.020 -0.6130  0.5078 -0.7272
   6123SM  H23F 7886   1.565   5.278   5.960  2.1079  0.4788  0.3370
   6123SM  H23G 7887   1.635   5.422   6.031 -0.6079  0.5247 -0.8547
   6123SM  H23H 7888   1.466   5.431   5.965 -0.4999 -0.5136 -2.0934
   6223SM     N 7889   3.205   4.535   9.087  0.4884  0.1776  0.0366
   6223SM   C15 7890   3.259   4.669   9.050 -0.0873  1.3073 -0.2802
   6223SM  H15A 7891   3.208   4.755   9.092  1.1166  1.1398  1.6402
   6223SM  H15B 7892   3.267   4.678   8.942 -0.0278 -1.6219 -0.5912
   6223SM  H15C 7893   3.362   4.676   9.080 -0.0762  1.3406 -0.3239
   6223SM   C14 7894   3.296   4.427   9.043 -1.5992 -0.2133  0.2288
   6223SM  H14A 7895   3.397   4.441   9.078 -1.5688 -0.7200  0.3507
   6223SM  H14B 7896   3.299   4.424   8.935  4.9783  1.7134 -0.0489
   6223SM  H14C 7897   3.278   4.329   9.085  2.3544 -1.8789 -1.4705
   6223SM   C13 7898   3.198   4.539   9.232 -0.9120  0.1119  0.4756
   6223SM  H13A 7899   3.166   4.444   9.271  2.4151 -0.3319  2.5107
   6223SM  H13B 7900   3.129   4.615   9.267 -0.3146 -0.3731  2.9037
   6223SM  H13C 7901   3.298   4.557   9.269 -0.5958 -0.5812 -0.0346
   6223SM   C12 7902   3.069   4.520   9.024  0.1114 -0.3619 -0.1197
   6223SM  H12A 7903   3.003   4.597   9.058  0.7907 -0.8185  2.4480
   6223SM  H12B 7904   3.034   4.426   9.065  2.1758 -0.3751  1.8310
   6223SM   C11 7905   3.067   4.510   8.864  0.1220  0.2894  0.2005
   6223SM  H11A 7906   3.126   4.601   8.838  0.0962  0.5776  1.1060
   6223SM  H11B 7907   2.963   4.526   8.827 -0.6606 -1.3710  1.5454
   6223SM     P 7908   3.059   4.267   8.757  0.1156 -0.2431 -0.6282
   6223SM   O13 7909   3.147   4.204   8.654 -0.3017  0.1877  0.5275
   6223SM   O14 7910   3.006   4.187   8.874 -0.0749  0.0358  0.4697
   6223SM   O11 7911   2.940   4.318   8.671  0.5106  0.3501  0.1649
   6223SM   O12 7912   3.132   4.385   8.815  0.2904 -0.5697 -0.5300
   6223SM   C1S 7913   2.969   4.392   8.553  0.8751  0.3296  0.2192
   6223SM   H1S 7914   3.031   4.328   8.487 -0.1610 -0.8916  0.3733
   6223SM   H1T 7915   3.010   4.493   8.569  0.7454  0.5129 -0.5428
   6223SM    NF 7916   2.854   4.459   8.351  0.2607  0.0014  0.0473
   6223SM   HNF 7917   2.820   4.548   8.322  0.5937 -0.1861 -0.9632
   6223SM   C2S 7918   2.828   4.419   8.488  0.0646 -0.8061  0.1954
   6223SM   H2S 7919   2.760   4.332   8.486 -1.2453  0.1560  1.0913
   6223SM   C3S 7920   2.750   4.528   8.572  1.0197  0.5886  0.5222
   6223SM   H3S 7921   2.812   4.611   8.612 -0.0810  2.3583 -1.2421
   6223SM    O3 7922   2.695   4.468   8.692  0.2747 -0.2305  0.4703
   6223SM   HO3 7923   2.743   4.385   8.692 -0.3956 -0.6775 -1.4826
   6223SM   C4S 7924   2.632   4.577   8.495  0.4570  0.5495 -0.3699
   6223SM   H4S 7925   2.549   4.506   8.480  0.5692  0.4540 -0.5531
   6223SM   C5S 7926   2.632   4.703   8.445  0.3289 -0.5553 -0.4925
   6223SM   H5S 7927   2.712   4.777   8.465  1.1369 -1.9111  1.5558
   6223SM   C6S 7928   2.503   4.749   8.380 -0.6510 -0.4829 -0.3511
   6223SM   H6S 7929   2.528   4.833   8.312  0.4472  0.0056  0.6194
   6223SM   H6T 7930   2.445   4.803   8.458  0.8056  0.6999 -0.0177
   6223SM   C7S 7931   2.409   4.650   8.315  0.7648 -0.0469  0.1956
   6223SM   H7S 7932   2.321   4.711   8.288  1.8305  1.6085  0.3447
   6223SM   H7T 7933   2.373   4.578   8.391 -1.9160  0.3238 -0.6295
   6223SM   C8S 7934   2.461   4.569   8.195  0.3792 -0.4254 -0.3173
   6223SM   H8S 7935   2.375   4.514   8.153  0.3516  0.6461 -1.7337
   6223SM   H8T 7936   2.532   4.495   8.237  2.1838  1.8048  0.8017
   6223SM   C9S 7937   2.508   4.662   8.087 -0.5404  0.2915  0.7334
   6223SM   H9S 7938   2.582   4.730   8.134 -0.2864 -1.7735  3.6214
   6223SM   H9T 7939   2.429   4.731   8.053 -0.0079  0.5746  0.0625
   6223SM  C10S 7940   2.597   4.585   7.988 -0.3646 -0.6759  0.6597
   6223SM  H10S 7941   2.530   4.511   7.940 -0.2299 -1.5745  1.8064
   6223SM  H10T 7942   2.682   4.539   8.042  0.8274  0.2419 -0.3698
   6223SM  C11S 7943   2.651   4.675   7.873 -0.4960 -0.5105  0.4828
   6223SM  H11S 7944   2.700   4.598   7.810 -2.9233 -0.6261 -1.3837
   6223SM  H11T 7945   2.729   4.743   7.914 -2.3128  1.9983  0.0058
   6223SM  C12S 7946   2.544   4.760   7.809 -0.0724 -0.3439  0.5293
   6223SM  H12S 7947   2.523   4.853   7.866 -0.6743 -1.8849  2.9612
   6223SM  H12T 7948   2.458   4.692   7.790  0.1620 -0.4843 -0.0435
   6223SM  C13S 7949   2.569   4.805   7.657  0.2976  0.0834  0.2750
   6223SM  H13S 7950   2.660   4.869   7.662 -0.2173  1.2344 -2.7891
   6223SM  H13T 7951   2.484   4.872   7.633 -1.0139 -1.7033 -0.2419
   6223SM  C14S 7952   2.586   4.689   7.557 -0.0190  0.4750 -1.0846
   6223SM  H14S 7953   2.654   4.610   7.595 -1.9613  0.5062  2.9348
   6223SM  H14T 7954   2.637   4.719   7.463  0.8021 -0.6357 -1.0052
   6223SM  C15S 7955   2.446   4.642   7.516 -0.2600  0.5366 -0.1826
   6223SM  H15S 7956   2.387   4.731   7.484 -0.1298  1.0797  1.0453
   6223SM  H15T 7957   2.401   4.593   7.605 -0.2492 -0.1756 -0.5577
   6223SM  C16S 7958   2.458   4.531   7.416 -0.0019  0.2115 -0.3027
   6223SM  H16S 7959   2.496   4.567   7.318 -2.0463  0.2154 -1.1397
   6223SM  H16T 7960   2.351   4.507   7.397 -0.5124  1.7729  0.4763
   6223SM  C17S 7961   2.526   4.403   7.462 -0.0564 -0.0104 -0.8405
   6223SM  H17S 7962   2.507   4.371   7.567  2.8043  0.9696  0.0545
   6223SM  H17T 7963   2.635   4.424   7.467 -0.0160 -0.4367  0.2270
   6223SM  C18S 7964   2.501   4.275   7.382  0.5346  0.5079  0.5354
   6223SM  H18S 7965   2.392   4.269   7.361  0.6098 -0.3264  0.3277
   6223SM  H18T 7966   2.530   4.183   7.438  2.8334  1.8905  1.7579
   6223SM  H18U 7967   2.558   4.268   7.287  0.7022 -0.2852  0.6899
   6223SM   C1F 7968   2.919   4.380   8.260  0.8846  0.3260 -0.2038
   6223SM    OF 7969   2.909   4.258   8.273  0.2490 -0.1888 -0.0996
   6223SM   C2F 7970   2.972   4.437   8.134  0.0158 -0.9560 -0.0752
   6223SM   H2F 7971   3.082   4.433   8.143  0.0386 -1.7364 -0.5353
   6223SM   H2G 7972   2.945   4.544   8.137  0.6246 -0.8095  0.3569
   6223SM   C3F 7973   2.941   4.362   8.007 -0.0167 -0.6284 -0.2188
   6223SM   H3F 7974   2.832   4.369   7.985  0.1415  3.1717 -0.5495
   6223SM   H3G 7975   2.971   4.256   8.005  0.6526 -0.4392 -2.3959
   6223SM   C4F 7976   3.013   4.433   7.895  0.4574  0.6505  0.8887
   6223SM   H4F 7977   3.122   4.423   7.913  0.6961 -0.9609 -1.1365
   6223SM   H4G 7978   2.989   4.542   7.894 -2.0510  0.1820 -0.9853
   6223SM   C5F 7979   2.985   4.386   7.749 -0.6303  0.4441  0.4518
   6223SM   H5F 7980   2.878   4.389   7.721  0.1693 -0.5080 -3.1989
   6223SM   H5G 7981   3.014   4.279   7.752  1.1051  0.7481 -2.1882
   6223SM   C6F 7982   3.060   4.473   7.656 -0.1532  0.0230  0.1913
   6223SM   H6F 7983   3.170   4.463   7.654 -0.1060  0.6283 -0.6209
   6223SM   H6G 7984   3.040   4.580   7.679 -0.7054  0.0654 -0.4439
   6223SM   C7F 7985   3.016   4.465   7.510  0.2643 -0.6555 -0.1807
   6223SM   H7F 7986   3.088   4.535   7.463  0.0000 -0.1038  0.2281
   6223SM   H7G 7987   2.911   4.496   7.489  0.0661  0.9030  2.5698
   6223SM   C8F 7988   3.041   4.331   7.442 -0.1605  0.4860 -0.4089
   6223SM   H8F 7989   2.961   4.270   7.489 -0.2399  1.7774  1.2100
   6223SM   H8G 7990   3.137   4.287   7.478 -0.1220 -0.8625 -1.9983
   6223SM   C9F 7991   3.041   4.335   7.291 -0.0617  0.0406 -0.0278
   6223SM   H9F 7992   3.090   4.246   7.245 -0.1419  0.3363 -0.6924
   6223SM   H9G 7993   3.102   4.427   7.274  3.6313 -1.4906  3.3931
   6223SM  C10F 7994   2.893   4.348   7.226  0.3171  0.0528 -0.5802
   6223SM  H10F 7995   2.818   4.377   7.303  0.0080  0.1838 -0.9316
   6223SM  H10G 7996   2.875   4.241   7.203  1.0780 -0.1744 -0.1686
   6223SM  C11F 7997   2.873   4.452   7.112 -0.4873 -0.2405  0.4262
   6223SM  H11F 7998   2.941   4.425   7.029 -3.2265 -1.1113 -1.7057
   6223SM  H11G 7999   2.888   4.550   7.162  0.2960  0.2327 -0.6941
   6223SM  C12F 8000   2.728   4.467   7.055  0.2764  0.4935 -0.0994
   6223SM  H12F 8001   2.663   4.502   7.138  1.2855  2.4879 -0.0921
   6223SM  H12G 8002   2.695   4.364   7.030 -0.4707  0.4210  1.1033
   6223SM  C13F 8003   2.720   4.560   6.926  0.5271 -0.7389  0.2003
   6223SM  H13F 8004   2.777   4.654   6.944 -0.7979  0.3902 -1.2346
   6223SM  H13G 8005   2.616   4.583   6.896  0.5546 -0.0595  0.6007
   6223SM  C14F 8006   2.782   4.494   6.799  0.0780 -0.1393 -0.4519
   6223SM  H14F 8007   2.726   4.407   6.760 -1.7173  0.8978 -0.2908
   6223SM  H14G 8008   2.887   4.463   6.818 -0.0011 -0.1306 -0.0014
   6223SM  C15F 8009   2.788   4.592   6.683  0.9577 -0.4228 -0.1514
   6223SM  H15F 8010   2.687   4.633   6.659  1.0821 -0.7968 -1.3484
   6223SM  H15G 8011   2.813   4.533   6.592 -0.7908  0.5753 -1.3360
   6223SM  C16F 8012   2.881   4.712   6.690 -0.1149 -0.5079  0.4167
   6223SM  H16F 8013   2.983   4.675   6.712  2.0877  2.6837 -3.3294
   6223SM  H16G 8014   2.858   4.786   6.770 -1.4999  0.3109 -0.6807
   6223SM  C17F 8015   2.895   4.783   6.547 -0.4581  0.6020 -0.5471
   6223SM  H17F 8016   2.913   4.704   6.471  0.5045  0.4807 -0.2151
   6223SM  H17G 8017   2.976   4.858   6.562 -1.3488  1.1074  2.3216
   6223SM  C18F 8018   2.766   4.861   6.511 -0.0635 -0.2421 -0.0512
   6223SM  H18F 8019   2.726   4.907   6.604 -1.1115 -1.9293  0.3694
   6223SM  H18G 8020   2.693   4.782   6.488 -0.8220  0.0987  1.1228
   6223SM  C19F 8021   2.786   4.964   6.392  0.1161  0.6412  0.2582
   6223SM  H19F 8022   2.685   4.997   6.359 -0.0852 -0.3211 -0.1116
   6223SM  H19G 8023   2.833   4.924   6.300 -3.5701 -1.0101 -1.0574
   6223SM  C20F 8024   2.868   5.087   6.439  0.3057  0.6067  0.0766
   6223SM  H20F 8025   2.975   5.075   6.464  1.8975 -1.4334 -6.0087
   6223SM  H20G 8026   2.815   5.141   6.520  3.2086  3.1817  0.4173
   6223SM  C21F 8027   2.895   5.193   6.330 -0.2529  0.7947 -0.1568
   6223SM  H21F 8028   2.806   5.203   6.264  0.2411  1.9256 -0.6704
   6223SM  H21G 8029   2.976   5.171   6.257 -1.8152  2.3446 -2.5134
   6223SM  C22F 8030   2.923   5.330   6.392  0.5794 -0.5618 -0.0120
   6223SM  H22F 8031   2.836   5.353   6.457  0.5079 -2.8278  0.7610
   6223SM  H22G 8032   2.928   5.411   6.315  0.4202 -0.7463 -0.2195
   6223SM  C23F 8033   3.046   5.340   6.488  0.9925 -0.3684  0.2437
   6223SM  H23F 8034   3.134   5.329   6.421  1.1496 -0.5541  0.4834
   6223SM  H23G 8035   3.042   5.255   6.559  0.9444 -1.3622 -0.9143
   6223SM  H23H 8036   3.046   5.439   6.538 -0.7114  0.3920 -1.1496
   6323SM     N 8037   4.210   6.362   9.233 -1.2434  0.6716  0.1066
   6323SM   C15 8038   4.155   6.225   9.255  0.4493  0.7469 -0.3017
   6323SM  H15A 8039   4.127   6.216   9.359  4.9688 -0.4018  1.0480
   6323SM  H15B 8040   4.235   6.156   9.235 -1.4513 -1.4020 -0.9597
   6323SM  H15C 8041   4.072   6.211   9.188 -0.6457  2.4959  0.6133
   6323SM   C14 8042   4.095   6.454   9.262  0.6221 -0.1636 -0.1609
   6323SM  H14A 8043   4.097   6.556   9.225 -0.6800 -0.2589 -0.5370
   6323SM  H14B 8044   4.071   6.452   9.367 -1.9958 -0.2409 -0.6941
   6323SM  H14C 8045   4.012   6.407   9.212  0.4463 -1.1840  1.0533
   6323SM   C13 8046   4.332   6.392   9.318  0.0153  0.4907 -0.1585
   6323SM  H13A 8047   4.361   6.494   9.297  0.0351  0.4709 -0.2290
   6323SM  H13B 8048   4.412   6.322   9.297  0.0650 -0.0314  1.6049
   6323SM  H13C 8049   4.299   6.398   9.420 -1.7964 -0.8552 -0.6126
   6323SM   C12 8050   4.270   6.384   9.092  0.4761  0.1637  0.7882
   6323SM  H12A 8051   4.337   6.469   9.091  0.2695  0.3686  2.2903
   6323SM  H12B 8052   4.190   6.407   9.024  0.1957  1.0228  1.3832
   6323SM   C11 8053   4.355   6.265   9.026  0.5480  0.3105 -0.2489
   6323SM  H11A 8054   4.385   6.312   8.930  0.2278  1.1907  0.0673
   6323SM  H11B 8055   4.293   6.173   9.021  0.7508 -0.1309  3.0762
   6323SM     P 8056   4.616   6.246   9.081  0.1156 -0.0873  0.4811
   6323SM   O13 8057   4.659   6.381   9.131 -0.4910  0.2394  0.4584
   6323SM   O14 8058   4.701   6.140   9.122 -0.3629  0.5977 -0.8417
   6323SM   O11 8059   4.616   6.247   8.919 -0.1850 -0.0959  0.0571
   6323SM   O12 8060   4.465   6.226   9.109 -0.4099  0.3296  0.1184
   6323SM   C1S 8061   4.590   6.125   8.849  1.1577 -0.1743 -0.9254
   6323SM   H1S 8062   4.480   6.109   8.853  0.7937  2.2321  0.5123
   6323SM   H1T 8063   4.640   6.040   8.900  2.7903  1.5448  0.4862
   6323SM    NF 8064   4.578   6.006   8.618 -0.1557  0.0078  0.0462
   6323SM   HNF 8065   4.640   5.936   8.585 -0.4921  0.1420 -0.8865
   6323SM   C2S 8066   4.639   6.114   8.695 -0.4710  0.2875 -0.1240
   6323SM   H2S 8067   4.602   6.208   8.648  1.2203 -0.1276 -2.4503
   6323SM   C3S 8068   4.798   6.121   8.694 -0.2646 -0.1522 -0.6402
   6323SM   H3S 8069   4.841   6.028   8.736 -0.8570 -0.1018  0.1073
   6323SM    O3 8070   4.853   6.225   8.782  0.1811  0.2844 -0.4313
   6323SM   HO3 8071   4.779   6.259   8.832  0.6720  0.8173 -0.0658
   6323SM   C4S 8072   4.847   6.145   8.549 -0.3120  0.7146  0.0512
   6323SM   H4S 8073   4.899   6.054   8.514  0.8783  0.3736  2.4991
   6323SM   C5S 8074   4.863   6.253   8.480  0.7237 -0.7970  0.0952
   6323SM   H5S 8075   4.827   6.349   8.519 -0.9388 -1.6208  0.6568
   6323SM   C6S 8076   4.922   6.263   8.341  0.7809  0.2368 -0.1654
   6323SM   H6S 8077   5.023   6.215   8.343  1.0991  0.8961  0.9840
   6323SM   H6T 8078   4.937   6.368   8.308  1.4758  0.3048  0.3420
   6323SM   C7S 8079   4.836   6.190   8.245 -0.2300  0.1257  0.7310
   6323SM   H7S 8080   4.731   6.225   8.243  0.3154  1.8096 -0.0324
   6323SM   H7T 8081   4.827   6.083   8.274 -0.2181  0.2652  1.2599
   6323SM   C8S 8082   4.895   6.198   8.103  0.0254 -0.5243 -0.3199
   6323SM   H8S 8083   4.998   6.156   8.101 -0.5947 -2.1821  0.7725
   6323SM   H8T 8084   4.902   6.306   8.080  1.6568 -0.0651  2.0335
   6323SM   C9S 8085   4.806   6.143   7.997  0.7168  0.5193 -0.2986
   6323SM   H9S 8086   4.699   6.171   8.012  0.6569  0.9412 -1.3866
   6323SM   H9T 8087   4.805   6.032   8.006 -0.8606  0.5854  0.7323
   6323SM  C10S 8088   4.858   6.169   7.856  0.4621 -0.1688 -0.0426
   6323SM  H10S 8089   4.829   6.085   7.789 -2.5268  0.3814  0.4330
   6323SM  H10T 8090   4.969   6.160   7.857  0.6610  1.2191 -2.3444
   6323SM  C11S 8091   4.809   6.297   7.785  0.0653 -0.2203  0.0254
   6323SM  H11S 8092   4.854   6.388   7.831 -0.1655  0.1501 -0.4779
   6323SM  H11T 8093   4.700   6.316   7.793 -0.1450 -2.1149  3.4255
   6323SM  C12S 8094   4.841   6.314   7.636  0.0088  0.4838  0.3344
   6323SM  H12S 8095   4.797   6.227   7.584 -0.3124  0.7873  0.0969
   6323SM  H12T 8096   4.948   6.321   7.606 -0.0494  1.6031  0.3680
   6323SM  C13S 8097   4.786   6.442   7.581 -0.2711 -0.1292  0.8673
   6323SM  H13S 8098   4.841   6.533   7.612 -1.2708  1.5338 -1.8584
   6323SM  H13T 8099   4.692   6.444   7.640 -0.3183 -0.5744  0.8122
   6323SM  C14S 8100   4.747   6.422   7.437 -0.5444 -0.0194 -0.4872
   6323SM  H14S 8101   4.668   6.346   7.419 -0.4275 -0.6005  1.2948
   6323SM  H14T 8102   4.831   6.394   7.369 -1.3280  1.3065 -2.0619
   6323SM  C15S 8103   4.694   6.557   7.390  0.5403 -0.4036  0.4451
   6323SM  H15S 8104   4.779   6.629   7.392 -0.1927  0.4654  1.8890
   6323SM  H15T 8105   4.616   6.595   7.459  0.3991  0.2868 -0.0867
   6323SM  C16S 8106   4.632   6.552   7.242 -0.0917 -0.3504  0.1069
   6323SM  H16S 8107   4.566   6.641   7.229 -0.9822 -1.0336 -0.1081
   6323SM  H16T 8108   4.565   6.464   7.243  1.1555 -1.3202  1.0467
   6323SM  C17S 8109   4.734   6.545   7.125 -0.4940 -0.8804  0.0491
   6323SM  H17S 8110   4.770   6.441   7.113 -1.0089 -0.8207 -2.5261
   6323SM  H17T 8111   4.826   6.604   7.146 -1.7672  0.4972  2.1754
   6323SM  C18S 8112   4.683   6.590   6.991 -0.1466 -0.5564 -0.2731
   6323SM  H18S 8113   4.597   6.528   6.958 -0.5001 -0.0429 -0.3341
   6323SM  H18T 8114   4.759   6.577   6.912 -0.2371 -1.4169 -0.2215
   6323SM  H18U 8115   4.633   6.688   7.006  0.4958 -0.1382 -0.8157
   6323SM   C1F 8116   4.447   6.005   8.591  0.5569  0.5055 -0.0852
   6323SM    OF 8117   4.374   6.103   8.621  0.8156  0.4749 -0.1991
   6323SM   C2F 8118   4.382   5.896   8.518 -0.2339 -0.5125  0.5458
   6323SM   H2F 8119   4.318   5.830   8.581  0.2085 -0.7296  0.7761
   6323SM   H2G 8120   4.453   5.823   8.473 -2.5417 -1.3852 -1.9434
   6323SM   C3F 8121   4.292   5.956   8.398 -0.2557 -0.0579  0.0348
   6323SM   H3F 8122   4.203   6.018   8.422 -1.3241 -1.3313 -0.4623
   6323SM   H3G 8123   4.246   5.864   8.354  1.7469 -0.8055 -0.6072
   6323SM   C4F 8124   4.382   6.027   8.287 -0.3120 -0.0775 -0.3197
   6323SM   H4F 8125   4.459   5.961   8.240  1.9335  2.3756 -0.3331
   6323SM   H4G 8126   4.437   6.103   8.347 -0.0352 -1.1617  0.8557
   6323SM   C5F 8127   4.305   6.069   8.165 -0.1714 -0.4221  0.3741
   6323SM   H5F 8128   4.227   6.141   8.199 -0.5894  0.0591 -1.4770
   6323SM   H5G 8129   4.273   5.972   8.121 -0.4130 -0.0409 -0.2936
   6323SM   C6F 8130   4.392   6.147   8.058 -0.0736 -0.2475  0.2841
   6323SM   H6F 8131   4.497   6.111   8.063 -0.7056 -2.3198 -0.3130
   6323SM   H6G 8132   4.385   6.255   8.081  0.0133 -0.0730 -0.4629
   6323SM   C7F 8133   4.338   6.122   7.922  0.7740  0.8303  0.5506
   6323SM   H7F 8134   4.228   6.134   7.931 -0.1950 -4.1155 -1.5229
   6323SM   H7G 8135   4.345   6.015   7.895 -0.9946  1.1088 -1.3825
   6323SM   C8F 8136   4.404   6.206   7.811  0.7075 -0.1985 -0.3632
   6323SM   H8F 8137   4.502   6.155   7.811  1.6466  1.4848  1.2448
   6323SM   H8G 8138   4.409   6.315   7.830 -1.8667  0.2429 -1.7527
   6323SM   C9F 8139   4.345   6.189   7.677  1.5757  0.7365 -0.0119
   6323SM   H9F 8140   4.255   6.254   7.668  0.8078 -0.1663  0.8906
   6323SM   H9G 8141   4.311   6.083   7.669 -0.9111  1.4503  0.3361
   6323SM  C10F 8142   4.446   6.216   7.566  0.4688  0.5452  0.4587
   6323SM  H10F 8143   4.502   6.121   7.550  1.3651  0.9848  0.9103
   6323SM  H10G 8144   4.512   6.296   7.604  0.5669 -0.2224  1.9774
   6323SM  C11F 8145   4.381   6.264   7.437 -0.6140  0.1015  0.0553
   6323SM  H11F 8146   4.453   6.318   7.373  2.1726 -2.3460  0.9181
   6323SM  H11G 8147   4.306   6.344   7.457  0.5050  1.2914 -0.4132
   6323SM  C12F 8148   4.296   6.156   7.362 -0.7233  0.0796 -0.1884
   6323SM  H12F 8149   4.217   6.116   7.429 -2.2445 -1.0406 -2.4861
   6323SM  H12G 8150   4.364   6.069   7.352 -0.5310  0.1762  0.3017
   6323SM  C13F 8151   4.232   6.210   7.236  0.4216  0.0126  0.9755
   6323SM  H13F 8152   4.168   6.298   7.257  1.0447  1.3840 -2.2432
   6323SM  H13G 8153   4.161   6.136   7.193  0.7662 -0.0290  0.4728
   6323SM  C14F 8154   4.332   6.255   7.124  0.1406  0.1241 -0.0979
   6323SM  H14F 8155   4.418   6.186   7.128 -0.5086 -0.6290  3.1503
   6323SM  H14G 8156   4.378   6.350   7.159  1.5408 -0.7503  0.4852
   6323SM  C15F 8157   4.263   6.257   6.986  0.1062  0.0424 -0.3300
   6323SM  H15F 8158   4.172   6.319   7.002  1.5351  1.6304  2.4670
   6323SM  H15G 8159   4.220   6.162   6.946 -0.3554  1.4913 -3.5711
   6323SM  C16F 8160   4.356   6.319   6.884 -0.0143 -0.9143  0.7959
   6323SM  H16F 8161   4.412   6.408   6.920  0.6008 -0.9288 -0.0724
   6323SM  H16G 8162   4.294   6.359   6.801  0.0432 -2.0320  0.1878
   6323SM  C17F 8163   4.447   6.210   6.827 -0.0763 -0.8074  0.0948
   6323SM  H17F 8164   4.487   6.166   6.922  2.9987 -0.4331 -0.9017
   6323SM  H17G 8165   4.531   6.249   6.766 -1.5217  1.3884 -0.6210
   6323SM  C18F 8166   4.377   6.099   6.748 -0.5462  0.2773 -0.3542
   6323SM  H18F 8167   4.330   6.150   6.661  0.5546  0.1049 -1.0828
   6323SM  H18G 8168   4.297   6.058   6.813  0.5020  2.2428  2.3426
   6323SM  C19F 8169   4.468   5.988   6.705  0.0620 -0.2836 -0.4666
   6323SM  H19F 8170   4.498   5.941   6.801 -0.0110 -0.6709 -0.6329
   6323SM  H19G 8171   4.567   6.025   6.670  0.1549 -0.2532 -0.1771
   6323SM  C20F 8172   4.417   5.872   6.610  0.7149  0.2559 -0.0508
   6323SM  H20F 8173   4.377   5.918   6.517  1.8686 -0.3566 -0.8746
   6323SM  H20G 8174   4.329   5.831   6.665  1.7373 -0.3071  1.2087
   6323SM  C21F 8175   4.503   5.757   6.573 -0.1702 -0.7356 -0.8176
   6323SM  H21F 8176   4.450   5.685   6.506  0.5584 -2.4134  0.3424
   6323SM  H21G 8177   4.526   5.695   6.662  0.4774 -0.4676 -0.7954
   6323SM  C22F 8178   4.638   5.791   6.510  0.3068 -0.3099 -0.3221
   6323SM  H22F 8179   4.686   5.865   6.577  0.2775  0.4793 -1.1539
   6323SM  H22G 8180   4.634   5.850   6.416  0.0192 -0.3799 -0.3544
   6323SM  C23F 8181   4.728   5.675   6.494  0.1900  0.4958  0.2746
   6323SM  H23F 8182   4.733   5.600   6.576 -3.6175 -1.0167 -0.6617
   6323SM  H23G 8183   4.833   5.696   6.464 -0.1510  0.9759 -0.6185
   6323SM  H23H 8184   4.682   5.608   6.418  1.1951 -0.6541  0.6514
   6423SM     N 8185   4.504   4.853   9.084 -0.1012 -0.1017  0.0100
   6423SM   C15 8186   4.561   4.988   9.088  0.2842  0.2455 -0.0269
   6423SM  H15A 8187   4.648   4.979   9.024 -0.6323 -2.0512 -1.0446
   6423SM  H15B 8188   4.600   5.010   9.186  0.9560  0.7113 -0.3835
   6423SM  H15C 8189   4.496   5.069   9.057 -1.0790 -1.2036 -1.1071
   6423SM   C14 8190   4.416   4.818   9.197  0.4583 -0.6271 -0.6050
   6423SM  H14A 8191   4.374   4.720   9.183 -0.0328 -0.5931  0.4945
   6423SM  H14B 8192   4.331   4.885   9.203  2.6330  2.3210  0.3511
   6423SM  H14C 8193   4.464   4.816   9.294 -2.7198  0.7513  1.1826
   6423SM   C13 8194   4.420   4.839   8.957 -0.1272 -0.1060  0.0802
   6423SM  H13A 8195   4.383   4.741   8.931  0.6218 -0.4381  0.2490
   6423SM  H13B 8196   4.473   4.883   8.874 -1.5884 -0.8198 -1.2819
   6423SM  H13C 8197   4.327   4.895   8.964 -1.6620 -2.4234 -0.5333
   6423SM   C12 8198   4.623   4.753   9.082  0.2177 -1.1070  0.0177
   6423SM  H12A 8199   4.588   4.651   9.092 -0.2121 -0.9493  0.1127
   6423SM  H12B 8200   4.685   4.772   9.169  2.2069 -1.1144 -1.3219
   6423SM   C11 8201   4.727   4.758   8.963  0.2640 -0.1357 -0.1103
   6423SM  H11A 8202   4.682   4.735   8.864 -3.9209  2.7314  0.8273
   6423SM  H11B 8203   4.789   4.668   8.983  0.8806  0.3530  0.2351
   6423SM     P 8204   4.820   4.968   8.840  0.0357 -0.0979 -0.4074
   6423SM   O13 8205   4.689   5.024   8.803 -0.2943  0.6390 -0.1023
   6423SM   O14 8206   4.934   5.057   8.875  0.0493 -0.1387 -0.1361
   6423SM   O11 8207   4.872   4.860   8.728 -0.7417 -0.4606  0.1455
   6423SM   O12 8208   4.799   4.878   8.968 -0.0713  0.1023 -0.5596
   6423SM   C1S 8209   4.792   4.868   8.610  0.3658  0.2720  0.4718
   6423SM   H1S 8210   4.781   4.967   8.560 -0.3354  0.3078  0.6849
   6423SM   H1T 8211   4.693   4.824   8.634  0.9139 -1.2066  0.1295
   6423SM    NF 8212   4.779   4.789   8.383  0.1526 -0.7532 -0.2027
   6423SM   HNF 8213   4.687   4.752   8.370 -0.8916  1.4906  0.2249
   6423SM   C2S 8214   4.849   4.765   8.511  0.4898  0.3413  0.9457
   6423SM   H2S 8215   4.956   4.785   8.493  0.8401 -0.7956  1.6185
   6423SM   C3S 8216   4.849   4.620   8.559 -0.3649 -0.1669  0.2035
   6423SM   H3S 8217   4.745   4.596   8.589 -0.0170  0.8480  2.4211
   6423SM    O3 8218   4.916   4.601   8.685  0.4848 -0.1314 -0.4209
   6423SM   HO3 8219   4.926   4.689   8.724 -0.0665 -0.0649 -0.4289
   6423SM   C4S 8220   4.897   4.531   8.440 -1.6394  0.3271 -0.4886
   6423SM   H4S 8221   4.810   4.487   8.389 -1.3440  0.3450 -1.0126
   6423SM   C5S 8222   5.029   4.486   8.422 -0.4325  0.2530  0.0343
   6423SM   H5S 8223   5.109   4.524   8.488  0.6273  0.6546 -1.4276
   6423SM   C6S 8224   5.056   4.381   8.317 -0.4020  0.1098  0.2949
   6423SM   H6S 8225   5.040   4.276   8.352 -2.0647  0.0139 -0.6591
   6423SM   H6T 8226   5.165   4.386   8.298 -0.7559  1.6214 -1.5829
   6423SM   C7S 8227   4.976   4.399   8.187 -0.2896 -0.6332 -0.1808
   6423SM   H7S 8228   5.016   4.492   8.141 -0.0074 -0.7529 -0.1776
   6423SM   H7T 8229   4.868   4.412   8.209 -0.2029  1.4934 -0.8058
   6423SM   C8S 8230   4.993   4.288   8.085  0.1439 -0.3108  0.4039
   6423SM   H8S 8231   4.915   4.215   8.116  0.7672 -0.5703  1.4104
   6423SM   H8T 8232   5.079   4.224   8.111  1.2768  0.3129 -1.6345
   6423SM   C9S 8233   4.979   4.343   7.937  0.4995  0.6025  0.5471
   6423SM   H9S 8234   5.047   4.430   7.930 -0.7544  1.9204  3.2647
   6423SM   H9T 8235   4.872   4.372   7.930 -0.1082 -1.0077  2.2607
   6423SM  C10S 8236   4.992   4.246   7.821  0.2340 -0.4074  0.0180
   6423SM  H10S 8237   4.897   4.194   7.800 -0.4472  0.7656  0.0865
   6423SM  H10T 8238   5.070   4.172   7.851  0.9617 -0.1225 -1.1233
   6423SM  C11S 8239   5.064   4.307   7.700 -0.3311  0.1582  0.1503
   6423SM  H11S 8240   5.082   4.225   7.627 -0.3202  2.0699 -2.1148
   6423SM  H11T 8241   5.166   4.343   7.725  0.2900 -2.3245  1.6047
   6423SM  C12S 8242   4.987   4.420   7.634 -0.1909  0.1513 -0.2317
   6423SM  H12S 8243   4.967   4.498   7.711  0.3664  2.0802 -1.9625
   6423SM  H12T 8244   4.891   4.384   7.591  0.6026 -0.4963 -1.5138
   6423SM  C13S 8245   5.063   4.495   7.526  0.2135 -0.9276 -0.7874
   6423SM  H13S 8246   5.149   4.556   7.562 -1.1446  1.3836 -1.2467
   6423SM  H13T 8247   4.989   4.566   7.484  0.2200 -1.4287 -1.6527
   6423SM  C14S 8248   5.108   4.416   7.405 -0.4038  0.2389 -0.1056
   6423SM  H14S 8249   5.017   4.370   7.362 -1.0115  1.1327  0.1883
   6423SM  H14T 8250   5.186   4.343   7.435  2.1360  2.0793 -1.8557
   6423SM  C15S 8251   5.179   4.504   7.305 -1.4318  0.9078  0.0120
   6423SM  H15S 8252   5.253   4.575   7.347  0.5917 -0.4133 -1.1322
   6423SM  H15T 8253   5.094   4.563   7.266 -1.0419 -0.0984 -2.5342
   6423SM  C16S 8254   5.244   4.417   7.190  0.5161 -0.3856  0.1159
   6423SM  H16S 8255   5.178   4.395   7.103  0.6327 -0.4014  0.0306
   6423SM  H16T 8256   5.265   4.315   7.230  1.8105 -0.1082  0.2035
   6423SM  C17S 8257   5.372   4.476   7.131 -0.0337  0.3894  0.1525
   6423SM  H17S 8258   5.449   4.483   7.211  1.2493 -0.0025 -1.0092
   6423SM  H17T 8259   5.366   4.580   7.092  1.8518  0.4406 -0.0911
   6423SM  C18S 8260   5.425   4.387   7.019 -0.4108 -0.1563  0.0346
   6423SM  H18S 8261   5.519   4.429   6.978 -1.3997  0.0416 -2.1446
   6423SM  H18T 8262   5.344   4.380   6.943 -1.6438 -0.5970  1.3467
   6423SM  H18U 8263   5.449   4.291   7.068  1.6449 -0.0073 -0.5879
   6423SM   C1F 8264   4.814   4.893   8.309 -0.3739  0.2941 -0.2281
   6423SM    OF 8265   4.926   4.943   8.328  0.4883 -0.0841 -0.2201
   6423SM   C2F 8266   4.707   4.955   8.231 -0.1584  0.3181  0.1955
   6423SM   H2F 8267   4.635   5.002   8.301 -0.2211  1.6690 -0.7302
   6423SM   H2G 8268   4.666   4.876   8.164  1.9355 -1.4318  0.8436
   6423SM   C3F 8269   4.753   5.062   8.130 -0.2532 -0.3867 -0.5881
   6423SM   H3F 8270   4.846   5.029   8.079 -0.1814 -0.8619 -0.1552
   6423SM   H3G 8271   4.781   5.153   8.187  1.5368 -2.3191  1.8577
   6423SM   C4F 8272   4.657   5.090   8.013  0.7500 -0.2105 -0.9471
   6423SM   H4F 8273   4.652   5.001   7.947  1.5714 -0.1639 -1.0843
   6423SM   H4G 8274   4.714   5.165   7.955  0.0273  1.2603  0.1788
   6423SM   C5F 8275   4.516   5.134   8.056 -0.4939  0.1993 -0.6908
   6423SM   H5F 8276   4.520   5.229   8.115 -2.4593 -0.0803 -0.0109
   6423SM   H5G 8277   4.458   5.063   8.119 -1.7242  0.5105 -1.4216
   6423SM   C6F 8278   4.424   5.145   7.932  0.4513  0.9110 -0.4733
   6423SM   H6F 8279   4.437   5.243   7.880 -0.7096  1.3451  0.0260
   6423SM   H6G 8280   4.318   5.131   7.958  0.9485 -2.5499  0.1483
   6423SM   C7F 8281   4.445   5.034   7.828 -1.1953 -0.6045  0.4040
   6423SM   H7F 8282   4.449   4.935   7.877  0.4433 -0.2677  1.0425
   6423SM   H7G 8283   4.543   5.056   7.779 -1.4658  2.4740  1.0298
   6423SM   C8F 8284   4.341   5.028   7.714 -0.2940  0.2292 -0.0013
   6423SM   H8F 8285   4.295   5.127   7.697 -0.2565  0.2603  0.0765
   6423SM   H8G 8286   4.254   4.967   7.747  0.9859 -1.2008  0.8874
   6423SM   C9F 8287   4.397   4.957   7.585 -0.0850  0.5942  0.0614
   6423SM   H9F 8288   4.415   4.853   7.622 -1.9388  0.2489  0.0807
   6423SM   H9G 8289   4.501   4.994   7.573  0.0948  0.5800  1.3621
   6423SM  C10F 8290   4.291   4.953   7.476 -0.1943 -0.3604  0.0413
   6423SM  H10F 8291   4.251   5.056   7.461  1.0582 -0.0457 -1.4999
   6423SM  H10G 8292   4.209   4.886   7.507 -1.0349  0.6107 -0.0283
   6423SM  C11F 8293   4.353   4.911   7.340 -0.6289 -0.2712  0.4464
   6423SM  H11F 8294   4.387   4.807   7.359  1.5155  0.4247  0.7194
   6423SM  H11G 8295   4.434   4.985   7.320 -0.3733 -1.1944 -2.3809
   6423SM  C12F 8296   4.250   4.926   7.226 -0.1895 -0.2806 -0.0930
   6423SM  H12F 8297   4.238   5.036   7.212  0.2792 -0.1899  0.1872
   6423SM  H12G 8298   4.152   4.882   7.257  0.2175 -0.7447  0.5632
   6423SM  C13F 8299   4.288   4.874   7.091  0.4442 -0.4592 -0.2234
   6423SM  H13F 8300   4.290   4.763   7.091  0.1749 -0.5357  2.4481
   6423SM  H13G 8301   4.394   4.902   7.072  0.6408 -0.8883  0.1947
   6423SM  C14F 8302   4.203   4.913   6.966 -0.1615  0.0613 -0.4588
   6423SM  H14F 8303   4.212   5.023   6.958 -0.9182  0.0683 -1.3132
   6423SM  H14G 8304   4.100   4.894   7.001  0.3840  0.0798  1.2691
   6423SM  C15F 8305   4.210   4.838   6.830 -0.3479  0.0855 -0.0545
   6423SM  H15F 8306   4.308   4.846   6.777  1.2338  1.0784  2.7999
   6423SM  H15G 8307   4.125   4.877   6.771  0.0793 -0.1247 -0.8259
   6423SM  C16F 8308   4.179   4.689   6.846  1.0031  0.2510 -0.0970
   6423SM  H16F 8309   4.127   4.643   6.759  2.9138  1.3008 -1.8602
   6423SM  H16G 8310   4.122   4.679   6.941 -0.1750  1.8257 -0.6008
   6423SM  C17F 8311   4.309   4.609   6.864  0.4140 -0.3751 -0.0125
   6423SM  H17F 8312   4.372   4.659   6.940 -2.5526  1.5259  1.4104
   6423SM  H17G 8313   4.357   4.599   6.764 -2.0068  0.0970 -1.3211
   6423SM  C18F 8314   4.293   4.460   6.904  0.3586 -0.0962 -0.6037
   6423SM  H18F 8315   4.206   4.433   6.840  0.0639  1.2540 -0.8124
   6423SM  H18G 8316   4.271   4.457   7.013  1.1986 -0.9283 -0.4495
   6423SM  C19F 8317   4.409   4.374   6.857  0.2610  0.0369 -0.4127
   6423SM  H19F 8318   4.417   4.389   6.747 -0.7198  1.4384 -0.3234
   6423SM  H19G 8319   4.381   4.267   6.868 -3.2906  0.7892 -0.8375
   6423SM  C20F 8320   4.547   4.417   6.910 -0.1044 -0.0572 -0.2702
   6423SM  H20F 8321   4.539   4.464   7.010  1.0147 -0.9146  0.2492
   6423SM  H20G 8322   4.578   4.501   6.845  1.4780 -1.4126 -1.3539
   6423SM  C21F 8323   4.641   4.301   6.911 -0.7981  0.0272  0.0991
   6423SM  H21F 8324   4.642   4.263   6.806 -0.1265  0.0816  0.0847
   6423SM  H21G 8325   4.614   4.221   6.983  0.1042 -1.6707 -1.3688
   6423SM  C22F 8326   4.779   4.356   6.936 -0.0902  0.4241 -0.2999
   6423SM  H22F 8327   4.793   4.425   6.850 -1.0596  0.4732 -0.4289
   6423SM  H22G 8328   4.846   4.268   6.943 -1.4600 -0.5719  0.8819
   6423SM  C23F 8329   4.795   4.436   7.063 -0.2282  0.2291 -0.0403
   6423SM  H23F 8330   4.734   4.385   7.141 -0.9638  0.3528 -0.5389
   6423SM  H23G 8331   4.757   4.540   7.057 -0.0415  0.3260  0.3751
   6423SM  H23H 8332   4.897   4.422   7.107 -0.4043 -0.1889  0.2525
   6523SM     N 8333   5.625   5.324   8.466 -0.4476  0.1008  0.0289
   6523SM   C15 8334   5.770   5.367   8.464  0.0172 -0.2089 -0.9688
   6523SM  H15A 8335   5.775   5.473   8.484  0.7093  0.3859 -3.8113
   6523SM  H15B 8336   5.813   5.358   8.365  1.1810  0.5219 -0.5534
   6523SM  H15C 8337   5.826   5.315   8.541 -1.2307  0.0766  0.1723
   6523SM   C14 8338   5.565   5.375   8.593  0.3764 -0.1985  0.2621
   6523SM  H14A 8339   5.626   5.351   8.679 -1.4824 -1.3562  1.3148
   6523SM  H14B 8340   5.464   5.340   8.606  0.0347 -0.5585 -2.7692
   6523SM  H14C 8341   5.571   5.482   8.581  2.2000 -0.3501 -0.5061
   6523SM   C13 8342   5.563   5.404   8.352 -0.8517 -0.6344 -0.5623
   6523SM  H13A 8343   5.627   5.404   8.265  2.1044  0.6660  1.4407
   6523SM  H13B 8344   5.553   5.505   8.389  1.7067 -0.3443 -0.4863
   6523SM  H13C 8345   5.461   5.377   8.331 -1.5394  0.7049  0.8315
   6523SM   C12 8346   5.605   5.172   8.444 -0.4085  0.3699  0.4021
   6523SM  H12A 8347   5.662   5.140   8.358  1.6424  1.1666  1.4142
   6523SM  H12B 8348   5.499   5.153   8.430 -0.4399  1.2446 -0.6439
   6523SM   C11 8349   5.662   5.076   8.557 -0.1058 -0.5442 -0.0098
   6523SM  H11A 8350   5.770   5.104   8.563 -0.2027 -0.4110  2.4026
   6523SM  H11B 8351   5.656   4.970   8.525  1.7949 -0.4894 -0.6875
   6523SM     P 8352   5.482   5.018   8.747 -0.2971 -0.2376  0.1648
   6523SM   O13 8353   5.534   4.907   8.832 -0.0660  0.0984  0.5123
   6523SM   O14 8354   5.384   5.103   8.820 -0.7457 -0.2020  0.0335
   6523SM   O11 8355   5.410   4.951   8.627 -0.0166  0.2183  0.0019
   6523SM   O12 8356   5.599   5.094   8.684  0.1414 -0.0743  0.6904
   6523SM   C1S 8357   5.316   5.031   8.555 -0.2470  0.5727 -0.7082
   6523SM   H1S 8358   5.330   5.141   8.556  1.1966  0.4420  1.4713
   6523SM   H1T 8359   5.219   5.009   8.604 -0.3947  1.2034 -0.7181
   6523SM    NF 8360   5.206   5.064   8.336 -0.5303  0.1362 -0.2993
   6523SM   HNF 8361   5.118   5.021   8.319 -1.3038  1.2911  0.6691
   6523SM   C2S 8362   5.303   4.982   8.409 -0.9172 -0.0407 -0.4769
   6523SM   H2S 8363   5.405   4.993   8.367 -0.5782  1.6199  0.7014
   6523SM   C3S 8364   5.275   4.828   8.406 -0.4944  0.4993 -0.2646
   6523SM   H3S 8365   5.174   4.821   8.451 -1.3820  0.2416 -2.1940
   6523SM    O3 8366   5.373   4.737   8.470 -0.7521  0.0695  0.0969
   6523SM   HO3 8367   5.427   4.788   8.531  1.3935 -0.5370 -1.1784
   6523SM   C4S 8368   5.261   4.793   8.263  0.1792  0.4884  0.3100
   6523SM   H4S 8369   5.357   4.771   8.214 -0.0826 -1.2503  0.5096
   6523SM   C5S 8370   5.158   4.768   8.188 -0.4359  0.6319 -0.3211
   6523SM   H5S 8371   5.056   4.771   8.229 -0.9940 -2.8044 -1.1277
   6523SM   C6S 8372   5.158   4.729   8.042 -0.3960 -0.2196  0.1309
   6523SM   H6S 8373   5.083   4.647   8.040 -1.5128  0.7744  0.3056
   6523SM   H6T 8374   5.256   4.697   8.001  0.0406  0.5550  0.5539
   6523SM   C7S 8375   5.095   4.844   7.958  0.3181  0.5317 -0.5379
   6523SM   H7S 8376   5.166   4.930   7.958  1.5489 -0.4410  0.8433
   6523SM   H7T 8377   5.003   4.878   8.011  0.0332  1.3430 -1.5178
   6523SM   C8S 8378   5.058   4.801   7.816 -0.3705  0.0020 -0.0168
   6523SM   H8S 8379   4.995   4.710   7.817 -1.2628  0.5727 -1.2151
   6523SM   H8T 8380   5.147   4.770   7.756 -0.8422  2.4279 -2.1384
   6523SM   C9S 8381   4.995   4.907   7.724 -0.1764 -0.1127  0.8108
   6523SM   H9S 8382   5.077   4.979   7.701  1.3123 -2.3002 -1.1041
   6523SM   H9T 8383   4.911   4.965   7.768 -1.2473  0.1034 -1.3899
   6523SM  C10S 8384   4.953   4.844   7.594  0.1804  0.4141 -0.7114
   6523SM  H10S 8385   4.896   4.750   7.611 -1.1592  1.2199 -0.5681
   6523SM  H10T 8386   5.040   4.817   7.530  0.2594 -1.2390  0.0438
   6523SM  C11S 8387   4.871   4.942   7.503 -0.6323 -0.0811 -1.1267
   6523SM  H11S 8388   4.925   5.039   7.507  1.0830 -0.9624 -1.9096
   6523SM  H11T 8389   4.769   4.958   7.544 -0.5322 -0.1950 -0.8302
   6523SM  C12S 8390   4.872   4.896   7.357  0.2110 -0.4864  0.4028
   6523SM  H12S 8391   4.811   4.803   7.351 -2.1276  1.0322 -0.9724
   6523SM  H12T 8392   4.978   4.880   7.329  0.7056 -0.7257  2.3142
   6523SM  C13S 8393   4.797   5.000   7.273 -0.1053 -0.0839  0.4113
   6523SM  H13S 8394   4.848   5.097   7.287  0.0702 -0.5281  3.4381
   6523SM  H13T 8395   4.693   5.003   7.312 -0.7098 -0.4614 -1.0897
   6523SM  C14S 8396   4.805   4.960   7.126  0.2955  0.0280  0.5997
   6523SM  H14S 8397   4.910   4.932   7.105 -0.1125 -2.0102  1.1082
   6523SM  H14T 8398   4.784   5.039   7.050 -0.0870 -1.9058 -1.4186
   6523SM  C15S 8399   4.706   4.853   7.082  0.0228  0.4959 -0.2283
   6523SM  H15S 8400   4.606   4.890   7.114 -0.1549  0.1929 -0.4295
   6523SM  H15T 8401   4.714   4.758   7.139  0.0346 -0.5998 -1.9756
   6523SM  C16S 8402   4.673   4.820   6.935 -0.2907  0.5157  0.0661
   6523SM  H16S 8403   4.614   4.900   6.886 -0.8513 -0.8431 -1.6208
   6523SM  H16T 8404   4.617   4.724   6.935 -0.0377  0.1905 -3.5925
   6523SM  C17S 8405   4.815   4.784   6.871  0.1870  0.6801  0.8438
   6523SM  H17S 8406   4.874   4.711   6.931 -1.7349  0.9784  3.2353
   6523SM  H17T 8407   4.878   4.874   6.852 -0.6412  1.2266  0.6101
   6523SM  C18S 8408   4.791   4.724   6.730  0.1520  0.1432 -0.7210
   6523SM  H18S 8409   4.726   4.634   6.738  1.1078 -0.4508  0.9649
   6523SM  H18T 8410   4.883   4.697   6.674  0.9363 -0.1156  0.6277
   6523SM  H18U 8411   4.744   4.804   6.669  1.0519  0.4989 -0.9631
   6523SM   C1F 8412   5.226   5.194   8.304 -0.3704  0.2773 -0.4922
   6523SM    OF 8413   5.316   5.264   8.351 -0.3551 -0.0134  0.4052
   6523SM   C2F 8414   5.126   5.247   8.211 -0.0739  0.0792 -0.2937
   6523SM   H2F 8415   5.040   5.300   8.257  0.0437  0.2226 -0.2368
   6523SM   H2G 8416   5.093   5.155   8.158  1.3524 -0.1490 -0.8451
   6523SM   C3F 8417   5.190   5.352   8.122  0.5770 -0.3152  0.1499
   6523SM   H3F 8418   5.267   5.296   8.064  1.5338  0.3398  0.7547
   6523SM   H3G 8419   5.243   5.428   8.183  2.6073 -2.0389  0.6844
   6523SM   C4F 8420   5.092   5.423   8.027  0.6683 -0.1315  0.1267
   6523SM   H4F 8421   5.156   5.488   7.964  1.3016 -2.3910 -1.6730
   6523SM   H4G 8422   5.020   5.486   8.084  1.9291 -0.2030  1.8802
   6523SM   C5F 8423   5.017   5.340   7.924  0.8605 -0.8077  0.4176
   6523SM   H5F 8424   4.960   5.256   7.971 -3.4084  2.0438  0.9559
   6523SM   H5G 8425   5.092   5.288   7.861  0.5848 -0.2229 -0.4122
   6523SM   C6F 8426   4.922   5.416   7.833  0.0645  0.9094  0.3595
   6523SM   H6F 8427   4.974   5.494   7.773  3.1768  0.3023  2.0369
   6523SM   H6G 8428   4.838   5.461   7.890 -0.3904 -0.7878  1.0972
   6523SM   C7F 8429   4.868   5.317   7.725  0.0771  0.1368 -0.5696
   6523SM   H7F 8430   4.816   5.227   7.763 -0.4532  0.1199 -1.3089
   6523SM   H7G 8431   4.957   5.279   7.671 -0.1292  0.1555 -0.9279
   6523SM   C8F 8432   4.774   5.392   7.620 -0.7326 -0.0721  0.1565
   6523SM   H8F 8433   4.820   5.482   7.574 -0.2576  0.2375  1.1973
   6523SM   H8G 8434   4.699   5.445   7.682  0.4159  0.0776  1.4622
   6523SM   C9F 8435   4.716   5.295   7.510  0.2616  0.1501 -0.3989
   6523SM   H9F 8436   4.660   5.211   7.556 -1.3510  0.0448 -2.4079
   6523SM   H9G 8437   4.809   5.264   7.458  1.2105  0.0883  1.2606
   6523SM  C10F 8438   4.620   5.363   7.406  1.0577  0.0803 -0.8510
   6523SM  H10F 8439   4.671   5.448   7.356  0.3523  1.5706  0.8229
   6523SM  H10G 8440   4.536   5.405   7.466  1.3709  0.3399 -0.5842
   6523SM  C11F 8441   4.558   5.274   7.289 -0.3911 -0.3748  0.2763
   6523SM  H11F 8442   4.519   5.184   7.340 -0.0432 -0.8772 -0.3239
   6523SM  H11G 8443   4.645   5.250   7.224 -1.0101 -2.1838  0.0497
   6523SM  C12F 8444   4.453   5.347   7.213 -0.2524  0.4304  0.2292
   6523SM  H12F 8445   4.495   5.440   7.172 -1.9692  0.6430 -1.1662
   6523SM  H12G 8446   4.371   5.374   7.284 -0.1788 -0.1441  0.5420
   6523SM  C13F 8447   4.396   5.257   7.103 -0.9670 -0.4554 -0.6270
   6523SM  H13F 8448   4.301   5.295   7.060 -0.7079  0.8872 -0.0474
   6523SM  H13G 8449   4.387   5.155   7.147 -1.8835 -0.6817 -1.3090
   6523SM  C14F 8450   4.501   5.228   6.988 -0.1148  0.5386 -0.0350
   6523SM  H14F 8451   4.578   5.157   7.024  1.2914  1.1054 -1.8111
   6523SM  H14G 8452   4.548   5.324   6.959 -1.0798  0.6409 -1.3689
   6523SM  C15F 8453   4.441   5.158   6.863 -0.8843  0.1517  0.9359
   6523SM  H15F 8454   4.344   5.206   6.840 -0.0481  1.1906 -0.5312
   6523SM  H15G 8455   4.425   5.051   6.890 -2.2579  0.0722 -0.1025
   6523SM  C16F 8456   4.532   5.166   6.739 -0.2359 -0.4969 -0.5448
   6523SM  H16F 8457   4.510   5.076   6.677 -0.2668  0.2763 -1.6907
   6523SM  H16G 8458   4.640   5.175   6.763 -0.6721  1.3200  0.9887
   6523SM  C17F 8459   4.499   5.286   6.660 -0.7403 -0.5120 -1.1285
   6523SM  H17F 8460   4.557   5.372   6.697  0.6301 -1.8391 -0.0827
   6523SM  H17G 8461   4.390   5.305   6.647 -1.0955 -1.2124  0.5563
   6523SM  C18F 8462   4.548   5.264   6.518 -0.0185  0.3734 -0.4027
   6523SM  H18F 8463   4.512   5.171   6.470  1.1382  0.1520 -0.8696
   6523SM  H18G 8464   4.657   5.244   6.509 -0.0964  0.5285 -1.9867
   6523SM  C19F 8465   4.498   5.374   6.428 -0.2831  0.2553  1.1125
   6523SM  H19F 8466   4.524   5.469   6.479  1.4695 -0.8291  2.3506
   6523SM  H19G 8467   4.389   5.371   6.404 -0.3224 -3.2335  1.1897
   6523SM  C20F 8468   4.583   5.364   6.295 -0.0785 -0.0207 -0.5611
   6523SM  H20F 8469   4.588   5.263   6.249  0.1337 -0.2852  0.0332
   6523SM  H20G 8470   4.685   5.396   6.323  0.3789 -0.8547 -1.2016
   6523SM  C21F 8471   4.535   5.471   6.193 -0.0201 -0.1459 -0.1657
   6523SM  H21F 8472   4.517   5.567   6.246 -1.1839 -0.1606 -0.4917
   6523SM  H21G 8473   4.436   5.442   6.150  1.0677 -3.8357 -0.5260
   6523SM  C22F 8474   4.634   5.499   6.078  0.3746 -0.0727 -0.5829
   6523SM  H22F 8475   4.729   5.541   6.118  1.3470 -2.9596  0.3759
   6523SM  H22G 8476   4.600   5.581   6.011  0.0301 -1.7816 -2.6116
   6523SM  C23F 8477   4.654   5.376   5.995 -0.1685  0.5097  0.8635
   6523SM  H23F 8478   4.563   5.333   5.949 -0.4930 -0.1068  2.0465
   6523SM  H23G 8479   4.726   5.312   6.051  0.1168 -0.4604 -0.5650
   6523SM  H23H 8480   4.720   5.412   5.913 -0.0165 -1.0428  0.2809
   6623SM     N 8481   4.099   3.012   8.748  0.5068 -0.5452 -0.2401
   6623SM   C15 8482   4.183   2.910   8.811 -0.1284  0.1803 -0.3271
   6623SM  H15A 8483   4.237   2.959   8.890 -0.2209  0.6395 -0.5494
   6623SM  H15B 8484   4.254   2.878   8.737  0.4659 -1.5404  0.9143
   6623SM  H15C 8485   4.128   2.822   8.843 -0.7103 -0.2043 -2.2784
   6623SM   C14 8486   3.992   2.942   8.666  0.2538  0.4239  0.1106
   6623SM  H14A 8487   3.926   3.010   8.614 -0.4636 -0.6735 -0.4769
   6623SM  H14B 8488   3.937   2.871   8.726  0.0597  0.6037  0.1460
   6623SM  H14C 8489   4.045   2.877   8.597  1.1655  1.5880 -0.3126
   6623SM   C13 8490   4.018   3.099   8.844  0.0276  0.0062 -0.4578
   6623SM  H13A 8491   3.975   3.179   8.785 -2.3343 -1.0945 -0.3438
   6623SM  H13B 8492   4.083   3.145   8.917 -2.2138  1.3152  0.8205
   6623SM  H13C 8493   3.940   3.052   8.901  0.5313 -0.4217 -0.1184
   6623SM   C12 8494   4.184   3.115   8.672  0.1980 -0.0746 -0.0308
   6623SM  H12A 8495   4.267   3.058   8.631 -0.1355 -0.9828  0.5235
   6623SM  H12B 8496   4.224   3.185   8.743  4.0467 -0.6758 -1.3562
   6623SM   C11 8497   4.120   3.187   8.552  0.0497 -0.7190 -0.5503
   6623SM  H11A 8498   4.092   3.119   8.469  0.6948 -0.0515 -1.3437
   6623SM  H11B 8499   4.201   3.246   8.503  1.9397 -2.6880  0.0278
   6623SM     P 8500   4.020   3.430   8.593 -0.4752  0.2080  0.1231
   6623SM   O13 8501   3.891   3.493   8.612  0.2865 -0.2377  0.1974
   6623SM   O14 8502   4.134   3.467   8.677 -0.0267  0.3029 -0.2469
   6623SM   O11 8503   4.067   3.457   8.448  0.0561  0.0197  0.0002
   6623SM   O12 8504   4.009   3.270   8.599 -0.3498  0.2100 -0.4654
   6623SM   C1S 8505   4.019   3.559   8.365  0.0240 -0.3622  0.9008
   6623SM   H1S 8506   4.077   3.649   8.397  1.5348 -0.7836 -0.5167
   6623SM   H1T 8507   3.912   3.585   8.382  0.5830  3.1289 -0.0727
   6623SM    NF 8508   4.038   3.652   8.137  0.1371 -0.3679  0.3496
   6623SM   HNF 8509   3.955   3.662   8.083  1.6582 -1.8519 -2.4730
   6623SM   C2S 8510   4.050   3.532   8.212  0.3307  0.3025 -0.6075
   6623SM   H2S 8511   4.160   3.522   8.219  0.4672  1.2746 -1.1730
   6623SM   C3S 8512   3.973   3.404   8.165 -0.3845 -0.8549 -0.2103
   6623SM   H3S 8513   3.868   3.436   8.149  0.1398  0.1046 -1.9159
   6623SM    O3 8514   3.970   3.297   8.262  0.1928  0.0184 -0.9169
   6623SM   HO3 8515   3.996   3.336   8.346 -2.8961 -0.2476  0.2764
   6623SM   C4S 8516   4.029   3.355   8.028  0.0918 -0.6024  0.4557
   6623SM   H4S 8517   3.972   3.388   7.940  1.9810  1.2467 -0.1633
   6623SM   C5S 8518   4.138   3.277   8.006 -0.0941  0.3973  0.2250
   6623SM   H5S 8519   4.196   3.232   8.089 -0.2305  0.7920  0.5369
   6623SM   C6S 8520   4.183   3.228   7.871 -0.4967 -0.3775  0.2800
   6623SM   H6S 8521   4.232   3.129   7.883 -2.3403 -1.2210  1.1401
   6623SM   H6T 8522   4.264   3.298   7.839 -0.3123 -1.2323 -1.2347
   6623SM   C7S 8523   4.082   3.220   7.747  0.3019  0.1348 -0.9524
   6623SM   H7S 8524   4.029   3.317   7.746 -0.1516  0.0236  1.9724
   6623SM   H7T 8525   4.010   3.141   7.779  0.4163  0.9891  1.7102
   6623SM   C8S 8526   4.130   3.183   7.611  0.1769 -0.3660 -0.1090
   6623SM   H8S 8527   4.042   3.150   7.553  1.2896 -4.1269  0.0276
   6623SM   H8T 8528   4.190   3.089   7.606 -1.1268 -1.1499 -1.9266
   6623SM   C9S 8529   4.199   3.291   7.527 -0.2817  0.8609 -0.1051
   6623SM   H9S 8530   4.310   3.288   7.535 -0.1914  2.3719 -0.5054
   6623SM   H9T 8531   4.168   3.395   7.549  2.8668  2.1955 -1.3899
   6623SM  C10S 8532   4.175   3.271   7.376 -0.1558 -0.2188  0.1879
   6623SM  H10S 8533   4.203   3.172   7.336  3.5953 -0.2588  2.4507
   6623SM  H10T 8534   4.231   3.349   7.320  0.0449  1.0265  2.0296
   6623SM  C11S 8535   4.030   3.303   7.343 -0.0060 -0.4343 -0.5220
   6623SM  H11S 8536   4.004   3.402   7.385  0.0901 -1.6818  2.8054
   6623SM  H11T 8537   3.964   3.223   7.383  1.4173 -1.6934 -0.5983
   6623SM  C12S 8538   4.002   3.297   7.192  0.4034 -0.0658  0.5662
   6623SM  H12S 8539   4.054   3.378   7.136 -0.6920  0.9078  0.9296
   6623SM  H12T 8540   3.896   3.327   7.181  0.6600 -0.0322 -2.5267
   6623SM  C13S 8541   4.028   3.168   7.120 -0.3323 -0.7622  0.1084
   6623SM  H13S 8542   3.991   3.081   7.178  1.4131 -1.1681  0.6722
   6623SM  H13T 8543   4.136   3.149   7.102  0.1707 -0.7269  2.6566
   6623SM  C14S 8544   3.963   3.168   6.976  0.3727 -0.0797 -0.5271
   6623SM  H14S 8545   4.004   3.246   6.909  2.4343  0.3182  1.0978
   6623SM  H14T 8546   3.854   3.192   6.977  0.1086 -1.0451 -1.7805
   6623SM  C15S 8547   3.968   3.030   6.908 -0.8659  0.3447 -0.0946
   6623SM  H15S 8548   3.937   2.943   6.970  0.8394 -1.7383 -1.9254
   6623SM  H15T 8549   4.076   3.011   6.889 -0.8522  0.8213 -0.5039
   6623SM  C16S 8550   3.892   3.000   6.779  0.0630  0.4319  0.3348
   6623SM  H16S 8551   3.902   3.088   6.712  1.3840 -3.0341 -4.6575
   6623SM  H16T 8552   3.786   2.974   6.796  0.6438 -2.6539 -0.1047
   6623SM  C17S 8553   3.947   2.879   6.710  0.2936 -0.5033  0.5216
   6623SM  H17S 8554   3.953   2.798   6.787 -0.4434 -0.7455  0.3364
   6623SM  H17T 8555   4.050   2.909   6.682  0.4157 -1.3132  0.0780
   6623SM  C18S 8556   3.868   2.835   6.586 -0.2952  0.1513 -0.0219
   6623SM  H18S 8557   3.765   2.799   6.605 -0.3820 -0.8316 -2.1072
   6623SM  H18T 8558   3.915   2.750   6.534 -2.1617 -0.8888 -0.0981
   6623SM  H18U 8559   3.855   2.918   6.513  1.8643  0.7701  0.2163
   6623SM   C1F 8560   4.115   3.758   8.142  0.4509 -0.3455 -0.9622
   6623SM    OF 8561   4.208   3.762   8.221 -0.3473  0.3080  0.2262
   6623SM   C2F 8562   4.088   3.871   8.042  0.1677 -0.2740 -1.1165
   6623SM   H2F 8563   4.080   3.969   8.094  0.4481 -0.7607 -0.1521
   6623SM   H2G 8564   3.989   3.856   7.994  0.9166 -0.8954 -2.5174
   6623SM   C3F 8565   4.207   3.882   7.935 -0.0588 -0.2091 -0.3421
   6623SM   H3F 8566   4.306   3.904   7.981 -0.1970  1.1099 -0.6177
   6623SM   H3G 8567   4.182   3.973   7.876  0.0001 -0.8988 -1.4623
   6623SM   C4F 8568   4.205   3.756   7.848 -0.6930 -0.0680 -0.0585
   6623SM   H4F 8569   4.101   3.735   7.817 -0.2920 -0.0715 -1.4913
   6623SM   H4G 8570   4.243   3.666   7.901 -2.9274 -3.5248 -3.7395
   6623SM   C5F 8571   4.296   3.782   7.731  0.0445 -0.0720 -0.3049
   6623SM   H5F 8572   4.402   3.801   7.759  0.4762 -0.6381 -1.4672
   6623SM   H5G 8573   4.274   3.875   7.674  0.0094 -0.3925 -0.8189
   6623SM   C6F 8574   4.292   3.669   7.626  0.2266  0.4420  0.0066
   6623SM   H6F 8575   4.187   3.671   7.590 -0.6074  0.0405  2.2859
   6623SM   H6G 8576   4.310   3.567   7.666 -0.3141  0.1258 -0.5323
   6623SM   C7F 8577   4.394   3.695   7.512 -1.1425 -0.2335 -0.0528
   6623SM   H7F 8578   4.489   3.708   7.568 -0.6095 -0.4300 -0.9048
   6623SM   H7G 8579   4.364   3.795   7.473 -1.3311 -0.0486  0.5419
   6623SM   C8F 8580   4.410   3.594   7.394 -0.6550 -0.4009 -0.2552
   6623SM   H8F 8581   4.309   3.565   7.356 -0.4590 -1.5411  0.0582
   6623SM   H8G 8582   4.461   3.510   7.445  1.5411  2.0156  1.7930
   6623SM   C9F 8583   4.517   3.646   7.294  0.1385  0.4041 -0.4454
   6623SM   H9F 8584   4.610   3.676   7.348 -0.0698  3.0202 -1.3971
   6623SM   H9G 8585   4.473   3.744   7.265 -0.3408  0.4227  0.3236
   6623SM  C10F 8586   4.547   3.543   7.175  0.1071  0.4172 -0.9955
   6623SM  H10F 8587   4.571   3.442   7.213 -3.4473 -0.2234 -0.0844
   6623SM  H10G 8588   4.637   3.587   7.127  1.3004 -0.4995  0.3381
   6623SM  C11F 8589   4.437   3.517   7.076  0.8582  0.4126 -0.4291
   6623SM  H11F 8590   4.401   3.617   7.044 -1.3798 -0.9226 -2.3881
   6623SM  H11G 8591   4.363   3.465   7.141 -1.8053  0.9728 -2.8243
   6623SM  C12F 8592   4.480   3.424   6.965 -0.5245 -0.2700  0.6653
   6623SM  H12F 8593   4.521   3.339   7.024 -1.7849 -1.1482  0.3246
   6623SM  H12G 8594   4.556   3.463   6.894 -2.1969 -0.4599 -1.3444
   6623SM  C13F 8595   4.364   3.377   6.879 -0.3322 -0.1255  0.1924
   6623SM  H13F 8596   4.310   3.460   6.829 -1.2832  1.1814  3.1516
   6623SM  H13G 8597   4.283   3.322   6.933 -0.8996 -0.6758 -1.1674
   6623SM  C14F 8598   4.407   3.290   6.761 -0.1480 -0.6727  0.6054
   6623SM  H14F 8599   4.455   3.197   6.800  1.5156 -0.6314 -1.1647
   6623SM  H14G 8600   4.475   3.336   6.686 -0.8220 -3.2488 -1.7960
   6623SM  C15F 8601   4.290   3.249   6.664  1.2122  0.2677  0.2759
   6623SM  H15F 8602   4.249   3.338   6.611  1.3074 -0.4137 -0.9925
   6623SM  H15G 8603   4.206   3.199   6.717 -0.2843  1.2436 -1.0805
   6623SM  C16F 8604   4.345   3.154   6.548 -0.2959 -0.5698 -0.3168
   6623SM  H16F 8605   4.409   3.204   6.472 -1.1877  1.6548  0.3211
   6623SM  H16G 8606   4.254   3.123   6.493 -2.8732  4.3082  0.6315
   6623SM  C17F 8607   4.411   3.027   6.596 -0.2738  0.0521 -0.3440
   6623SM  H17F 8608   4.358   2.975   6.678  0.6965 -1.7299 -0.7958
   6623SM  H17G 8609   4.510   3.062   6.632 -0.5727  2.4649 -1.6003
   6623SM  C18F 8610   4.446   2.920   6.494  0.5504 -0.1313 -0.6539
   6623SM  H18F 8611   4.512   2.847   6.546 -0.2251 -1.0312 -0.9192
   6623SM  H18G 8612   4.507   2.966   6.414 -0.4917 -0.8168 -1.8674
   6623SM  C19F 8613   4.326   2.850   6.426  0.4455  0.2051 -0.0190
   6623SM  H19F 8614   4.291   2.916   6.344  2.0762  1.2273  0.0608
   6623SM  H19G 8615   4.254   2.837   6.509  1.0301  0.4677  0.5293
   6623SM  C20F 8616   4.360   2.712   6.376 -0.3953 -0.1512 -0.3295
   6623SM  H20F 8617   4.274   2.671   6.317 -0.4359  0.8283 -0.9878
   6623SM  H20G 8618   4.378   2.654   6.468  0.7560 -0.8113 -0.9485
   6623SM  C21F 8619   4.484   2.708   6.282  0.0303 -0.0727 -0.2411
   6623SM  H21F 8620   4.579   2.737   6.332  0.6318 -1.1029 -0.7347
   6623SM  H21G 8621   4.468   2.790   6.209  0.2407 -0.1365 -0.3604
   6623SM  C22F 8622   4.484   2.571   6.208  0.1295  0.5915 -0.6886
   6623SM  H22F 8623   4.549   2.590   6.120  0.0928 -0.5494 -0.9820
   6623SM  H22G 8624   4.381   2.541   6.180 -0.8432  0.9502  2.1295
   6623SM  C23F 8625   4.549   2.457   6.295  0.3253 -0.1441 -0.4935
   6623SM  H23F 8626   4.631   2.500   6.356 -1.9242  0.7823  2.0984
   6623SM  H23G 8627   4.587   2.378   6.227 -0.6249 -1.1096  0.0728
   6623SM  H23H 8628   4.477   2.417   6.370  0.6365  1.0091  0.4585
   6723SM     N 8629   3.307   7.133   9.035 -0.7345 -0.0516  0.8172
   6723SM   C15 8630   3.199   7.123   9.129 -0.1610  0.3308 -0.5184
   6723SM  H15A 8631   3.114   7.164   9.076  0.2863  0.9640 -0.7624
   6723SM  H15B 8632   3.227   7.184   9.213  0.9090  1.7894 -1.8625
   6723SM  H15C 8633   3.179   7.021   9.157  0.6927 -0.5670 -2.8808
   6723SM   C14 8634   3.285   7.037   8.923  0.3597 -0.1060 -0.5549
   6723SM  H14A 8635   3.203   7.071   8.861  2.4487  1.5377 -2.5884
   6723SM  H14B 8636   3.274   6.938   8.963  0.9704  1.6711  4.8640
   6723SM  H14C 8637   3.373   7.043   8.861  0.2762  2.4296 -0.5500
   6723SM   C13 8638   3.317   7.270   8.985  0.7723 -0.1982  0.1553
   6723SM  H13A 8639   3.395   7.271   8.911  0.7724 -2.6853  0.0390
   6723SM  H13B 8640   3.322   7.342   9.065 -2.2243  0.6472 -0.3026
   6723SM  H13C 8641   3.229   7.291   8.927  1.8972  1.9739 -0.9035
   6723SM   C12 8642   3.435   7.096   9.107  0.0287  0.8299 -1.1505
   6723SM  H12A 8643   3.418   6.998   9.147 -1.4175  0.1193 -3.3480
   6723SM  H12B 8644   3.461   7.161   9.189  2.1963 -2.2333  0.7998
   6723SM   C11 8645   3.561   7.087   9.019 -0.5699 -0.1172 -0.2091
   6723SM  H11A 8646   3.647   7.128   9.076  0.1280 -2.6550  0.6925
   6723SM  H11B 8647   3.546   7.159   8.935  1.2992 -0.9826 -1.3538
   6723SM     P 8648   3.721   6.920   8.915  0.2665 -0.1912 -0.0359
   6723SM   O13 8649   3.753   7.032   8.817  0.4330  0.0014 -0.3999
   6723SM   O14 8650   3.810   6.903   9.030 -0.2967 -0.5019 -0.1171
   6723SM   O11 8651   3.705   6.789   8.839  0.1202 -0.3415 -0.0296
   6723SM   O12 8652   3.581   6.948   8.974 -0.6543  0.0710  0.3787
   6723SM   C1S 8653   3.602   6.761   8.744 -0.0284 -0.1397  0.1164
   6723SM   H1S 8654   3.543   6.854   8.726  0.6534 -0.0996 -2.2880
   6723SM   H1T 8655   3.538   6.675   8.772  2.4449 -2.7541 -1.7170
   6723SM    NF 8656   3.563   6.703   8.513  0.7922  0.4012 -0.0246
   6723SM   HNF 8657   3.546   6.617   8.466 -0.0181  0.1662  0.6633
   6723SM   C2S 8658   3.666   6.718   8.614  0.6928 -0.2360  0.1422
   6723SM   H2S 8659   3.740   6.792   8.577  1.1586 -1.6418 -1.9341
   6723SM   C3S 8660   3.760   6.598   8.629 -0.2858  0.0856 -0.3323
   6723SM   H3S 8661   3.690   6.516   8.653 -0.2833 -0.3361 -1.6908
   6723SM    O3 8662   3.849   6.595   8.743 -0.0452  0.3484 -0.0498
   6723SM   HO3 8663   3.819   6.670   8.796  2.2617  0.4143  1.3345
   6723SM   C4S 8664   3.831   6.561   8.508  0.2936  0.4613 -0.1352
   6723SM   H4S 8665   3.770   6.511   8.432  2.3482 -1.3589 -0.7073
   6723SM   C5S 8666   3.952   6.612   8.468  0.5543 -0.3301 -0.7171
   6723SM   H5S 8667   4.010   6.679   8.534  0.6651 -0.2743 -0.8705
   6723SM   C6S 8668   4.018   6.607   8.341  0.3358  0.2382  0.2401
   6723SM   H6S 8669   4.123   6.571   8.352  0.3468  0.2215  0.0907
   6723SM   H6T 8670   4.018   6.702   8.283 -1.9613 -0.0779 -0.3798
   6723SM   C7S 8671   3.948   6.502   8.249  0.1421 -0.6332  0.1359
   6723SM   H7S 8672   3.844   6.537   8.235 -0.2023 -0.9078  1.8132
   6723SM   H7T 8673   3.941   6.404   8.300 -2.0223  0.2882  1.7578
   6723SM   C8S 8674   4.023   6.485   8.119 -0.0034  0.0760 -0.1508
   6723SM   H8S 8675   4.109   6.415   8.130  1.0181  1.2446 -0.5747
   6723SM   H8T 8676   4.064   6.587   8.106 -2.0511  1.2388  1.7719
   6723SM   C9S 8677   3.927   6.436   8.007  0.2381 -0.1372 -0.0417
   6723SM   H9S 8678   3.826   6.476   8.029 -0.7564 -2.7034  0.3732
   6723SM   H9T 8679   3.911   6.327   8.020 -1.4207  0.1359  0.4492
   6723SM  C10S 8680   3.976   6.484   7.869 -0.4631 -0.2838 -0.1974
   6723SM  H10S 8681   4.074   6.435   7.847  0.3397  0.6569  1.1945
   6723SM  H10T 8682   3.995   6.593   7.873 -1.8623  0.0734 -1.9237
   6723SM  C11S 8683   3.879   6.455   7.759  0.4139 -0.3680  0.3898
   6723SM  H11S 8684   3.786   6.513   7.773  0.3180 -0.3627 -0.2163
   6723SM  H11T 8685   3.845   6.349   7.765 -1.8298  0.2216 -0.7740
   6723SM  C12S 8686   3.927   6.493   7.617 -0.0714  0.2543 -0.1323
   6723SM  H12S 8687   4.030   6.456   7.603 -0.2218 -0.2417  0.0739
   6723SM  H12T 8688   3.936   6.604   7.605  0.0821  0.1471 -1.1409
   6723SM  C13S 8689   3.818   6.444   7.526  1.1716  0.1474  0.2380
   6723SM  H13S 8690   3.723   6.498   7.547 -0.4185 -2.3830  0.0616
   6723SM  H13T 8691   3.804   6.334   7.539 -0.3049  0.3758  0.8191
   6723SM  C14S 8692   3.854   6.482   7.381 -0.0289  0.1167  0.7391
   6723SM  H14S 8693   3.909   6.397   7.335  0.0729  0.7652 -0.3519
   6723SM  H14T 8694   3.919   6.572   7.377 -1.3353  1.0530  0.0012
   6723SM  C15S 8695   3.734   6.501   7.290 -0.1861  0.2970  0.0729
   6723SM  H15S 8696   3.768   6.544   7.193  1.7351 -1.0504  0.0687
   6723SM  H15T 8697   3.665   6.576   7.332 -0.4620  0.4165 -0.5736
   6723SM  C16S 8698   3.657   6.372   7.261  0.7112  0.7658  0.5645
   6723SM  H16S 8699   3.630   6.319   7.355 -2.3801  0.7693 -0.1903
   6723SM  H16T 8700   3.708   6.287   7.210  1.7722  1.6402  0.1419
   6723SM  C17S 8701   3.518   6.387   7.183  0.2989 -0.2882 -0.1864
   6723SM  H17S 8702   3.475   6.288   7.157  1.2186 -0.7368 -0.0369
   6723SM  H17T 8703   3.551   6.428   7.085 -0.0949 -2.8278 -1.4762
   6723SM  C18S 8704   3.425   6.478   7.270 -0.4669 -0.2247 -0.4624
   6723SM  H18S 8705   3.464   6.581   7.282 -1.7825  0.1570  0.7438
   6723SM  H18T 8706   3.409   6.433   7.370 -0.0764 -0.2955 -0.4324
   6723SM  H18U 8707   3.327   6.499   7.221  0.5170 -0.3119 -2.5725
   6723SM   C1F 8708   3.471   6.791   8.477  0.3314 -0.6880 -0.1789
   6723SM    OF 8709   3.483   6.906   8.505 -0.3031 -0.2348  0.3766
   6723SM   C2F 8710   3.354   6.745   8.389 -0.2362 -0.2768  0.3806
   6723SM   H2F 8711   3.276   6.713   8.461  0.8148 -3.7740  0.1540
   6723SM   H2G 8712   3.377   6.650   8.336  1.1043  0.3453 -0.2005
   6723SM   C3F 8713   3.310   6.855   8.291  0.4046 -0.6432 -0.2942
   6723SM   H3F 8714   3.399   6.903   8.246  0.5813  1.6038  2.1915
   6723SM   H3G 8715   3.257   6.933   8.350 -0.2427 -2.4958  1.7388
   6723SM   C4F 8716   3.218   6.816   8.174 -0.1832  0.4030 -0.1492
   6723SM   H4F 8717   3.177   6.903   8.118  1.8027  0.5748 -1.4135
   6723SM   H4G 8718   3.127   6.763   8.209 -1.2438  0.5091 -2.5551
   6723SM   C5F 8719   3.299   6.739   8.074  0.1541  1.0762  0.5273
   6723SM   H5F 8720   3.346   6.652   8.126  0.3380  0.7526 -0.1685
   6723SM   H5G 8721   3.385   6.798   8.036  0.9438 -0.8658 -0.8575
   6723SM   C6F 8722   3.228   6.689   7.949 -0.2545 -0.6970  0.3893
   6723SM   H6F 8723   3.161   6.607   7.983 -0.7319 -0.9092 -0.9707
   6723SM   H6G 8724   3.293   6.639   7.874 -0.1724 -1.3355  0.8794
   6723SM   C7F 8725   3.149   6.795   7.871  0.1686  0.4605 -0.4752
   6723SM   H7F 8726   3.231   6.868   7.851  0.2761  0.9896  1.6397
   6723SM   H7G 8727   3.074   6.846   7.934  0.0908  0.4937 -0.5950
   6723SM   C8F 8728   3.084   6.735   7.742  0.0680 -0.3089 -0.7471
   6723SM   H8F 8729   3.000   6.667   7.769 -0.9257  1.4036  0.7651
   6723SM   H8G 8730   3.162   6.685   7.682 -1.5413 -2.1682 -1.4068
   6723SM   C9F 8731   3.050   6.851   7.646  0.5708  0.7545  0.8797
   6723SM   H9F 8732   3.150   6.888   7.616  0.8891 -0.2671  0.6220
   6723SM   H9G 8733   2.986   6.933   7.683 -2.2747 -1.0587  0.2898
   6723SM  C10F 8734   2.989   6.788   7.511  0.1977 -0.3462  0.0923
   6723SM  H10F 8735   2.894   6.735   7.535 -0.1637  0.4217  0.3738
   6723SM  H10G 8736   3.059   6.709   7.474 -0.9841 -0.9897 -0.8232
   6723SM  C11F 8737   2.966   6.878   7.396  0.0444  0.2340  0.5418
   6723SM  H11F 8738   3.067   6.889   7.351 -0.9344 -0.5243 -2.0160
   6723SM  H11G 8739   2.920   6.975   7.424 -1.8196 -0.4590  0.0204
   6723SM  C12F 8740   2.871   6.805   7.292  0.7607 -0.2322  0.7228
   6723SM  H12F 8741   2.767   6.794   7.329 -0.8551 -0.0889 -3.3509
   6723SM  H12G 8742   2.921   6.709   7.268 -1.4681 -1.4560  0.7468
   6723SM  C13F 8743   2.858   6.878   7.157 -0.1743 -0.3433 -0.0783
   6723SM  H13F 8744   2.958   6.918   7.129  0.4631 -1.0767  1.0980
   6723SM  H13G 8745   2.783   6.959   7.162 -0.6476 -0.5391 -2.5952
   6723SM  C14F 8746   2.804   6.785   7.047  0.3335 -0.7740  0.0942
   6723SM  H14F 8747   2.707   6.746   7.084  0.8382 -0.1769  2.1576
   6723SM  H14G 8748   2.861   6.692   7.023 -0.8135 -1.7473  1.0311
   6723SM  C15F 8749   2.792   6.858   6.908 -0.5873  0.3301 -0.1449
   6723SM  H15F 8750   2.890   6.902   6.879 -1.6501  3.0504  0.0309
   6723SM  H15G 8751   2.725   6.945   6.925  3.0002  3.6562 -1.5111
   6723SM  C16F 8752   2.737   6.774   6.799  0.3860  0.2905  0.3121
   6723SM  H16F 8753   2.642   6.731   6.836 -0.1426  1.8272  0.8112
   6723SM  H16G 8754   2.804   6.687   6.780 -1.0264 -1.0206  1.1670
   6723SM  C17F 8755   2.718   6.846   6.667 -0.0103 -0.2633  0.0308
   6723SM  H17F 8756   2.735   6.786   6.574 -1.1801  2.1538 -1.8566
   6723SM  H17G 8757   2.803   6.918   6.666  0.1569 -0.3793  1.9721
   6723SM  C18F 8758   2.583   6.915   6.641  0.5692  0.2913 -0.2727
   6723SM  H18F 8759   2.603   7.006   6.701  2.8989 -0.7069  0.6245
   6723SM  H18G 8760   2.501   6.854   6.685  0.6866  0.2239 -0.1402
   6723SM  C19F 8761   2.553   6.949   6.492  0.4537 -0.5904  0.4820
   6723SM  H19F 8762   2.448   6.986   6.489 -0.4292 -2.8840  1.3864
   6723SM  H19G 8763   2.556   6.862   6.423  0.6934  0.1650 -0.4839
   6723SM  C20F 8764   2.638   7.059   6.432  0.1614  0.7353 -0.3910
   6723SM  H20F 8765   2.746   7.041   6.455  0.5659  0.9246 -2.0327
   6723SM  H20G 8766   2.604   7.153   6.479  1.7146  0.2889  1.8612
   6723SM  C21F 8767   2.640   7.067   6.281  0.2571  0.2796  0.2755
   6723SM  H21F 8768   2.536   7.083   6.245  0.0392  1.7380  1.4620
   6723SM  H21G 8769   2.673   6.969   6.240  1.1682  0.5346  0.3926
   6723SM  C22F 8770   2.740   7.176   6.229  0.5699 -0.2956 -0.3608
   6723SM  H22F 8771   2.837   7.165   6.281  0.1127  0.7583  0.7406
   6723SM  H22G 8772   2.698   7.277   6.248  0.1305 -1.0324  3.2369
   6723SM  C23F 8773   2.761   7.166   6.078 -0.3811 -0.5825  0.4027
   6723SM  H23F 8774   2.667   7.194   6.024  0.3251 -0.1820 -0.6541
   6723SM  H23G 8775   2.798   7.067   6.044 -0.5954  0.0386 -1.8344
   6723SM  H23H 8776   2.850   7.229   6.059 -1.4433  1.3566  1.4684
   6823SM     N 8777   3.144   1.863   8.648 -0.0531  0.3632 -0.2394
   6823SM   C15 8778   3.072   1.930   8.539 -0.2559 -0.2101 -0.0264
   6823SM  H15A 8779   3.003   2.002   8.581 -1.8905 -1.0866 -1.0988
   6823SM  H15B 8780   3.013   1.861   8.482  0.5175 -0.8313 -0.0966
   6823SM  H15C 8781   3.133   1.994   8.477  0.3053  3.3327  3.6855
   6823SM   C14 8782   3.237   1.756   8.602 -0.9614  0.7791 -0.5017
   6823SM  H14A 8783   3.320   1.798   8.547 -0.4807 -0.0646 -0.4303
   6823SM  H14B 8784   3.183   1.699   8.529 -1.9348 -1.7837  2.0362
   6823SM  H14C 8785   3.276   1.696   8.683 -0.6805 -1.2844 -2.0988
   6823SM   C13 8786   3.217   1.975   8.721 -0.3454 -0.4984 -0.1710
   6823SM  H13A 8787   3.287   2.030   8.660  0.3329  0.8872  1.7558
   6823SM  H13B 8788   3.272   1.940   8.806  1.0831 -0.2694 -0.9678
   6823SM  H13C 8789   3.154   2.038   8.782  2.0359 -0.0506  1.9616
   6823SM   C12 8790   3.042   1.817   8.744  0.0049  0.0030 -0.4991
   6823SM  H12A 8791   3.077   1.791   8.843 -2.3381 -0.3661  0.3013
   6823SM  H12B 8792   3.005   1.721   8.714 -1.4106  0.3397  0.0605
   6823SM   C11 8793   2.919   1.917   8.781 -0.2230  0.8636 -0.3298
   6823SM  H11A 8794   2.898   1.871   8.880  0.7172 -1.9952 -1.3338
   6823SM  H11B 8795   2.828   1.909   8.717 -1.6935  2.0951  1.5139
   6823SM     P 8796   2.851   2.156   8.821  0.1048  0.0217 -0.1909
   6823SM   O13 8797   2.747   2.085   8.904 -0.0816 -0.0517 -0.0543
   6823SM   O14 8798   2.910   2.283   8.876  0.3684  0.2159 -0.5733
   6823SM   O11 8799   2.793   2.178   8.671  0.1576  0.2619 -0.1605
   6823SM   O12 8800   2.966   2.050   8.795 -0.3789  0.1127  0.1140
   6823SM   C1S 8801   2.653   2.213   8.666  0.0296  0.6088  0.1046
   6823SM   H1S 8802   2.628   2.287   8.744 -0.4247  0.7260 -0.1497
   6823SM   H1T 8803   2.594   2.119   8.679 -0.5829  0.8162 -1.0381
   6823SM    NF 8804   2.498   2.356   8.523 -0.0356  0.0213 -0.0937
   6823SM   HNF 8805   2.421   2.316   8.474  0.8574 -1.5987 -0.2775
   6823SM   C2S 8806   2.617   2.272   8.524 -0.5295  0.7110 -0.2309
   6823SM   H2S 8807   2.706   2.332   8.496 -0.3156  0.5952  0.1952
   6823SM   C3S 8808   2.610   2.143   8.429  0.1244 -0.1979  0.5971
   6823SM   H3S 8809   2.519   2.084   8.454  0.1131 -0.8977 -1.0134
   6823SM    O3 8810   2.713   2.045   8.437 -0.0620  0.0196 -0.2461
   6823SM   HO3 8811   2.776   2.077   8.501  1.5121 -0.8143 -1.3079
   6823SM   C4S 8812   2.606   2.187   8.286  0.5484  0.5034 -0.1183
   6823SM   H4S 8813   2.703   2.233   8.262  1.6913 -1.2633  0.8604
   6823SM   C5S 8814   2.501   2.169   8.200  0.5327  0.0914  0.0633
   6823SM   H5S 8815   2.407   2.126   8.237  0.5240  0.8714  0.9657
   6823SM   C6S 8816   2.507   2.224   8.053 -0.5187  0.3094  0.2844
   6823SM   H6S 8817   2.453   2.155   7.985  0.4772  1.4548 -1.7388
   6823SM   H6T 8818   2.611   2.233   8.016 -0.0803 -2.4411  0.6006
   6823SM   C7S 8819   2.436   2.359   8.047 -0.9556  0.6342 -0.7561
   6823SM   H7S 8820   2.503   2.430   8.100 -0.9919 -1.1884  1.9723
   6823SM   H7T 8821   2.345   2.361   8.111 -1.7490 -1.3963 -1.7208
   6823SM   C8S 8822   2.420   2.408   7.903 -0.2177  0.9184 -0.8549
   6823SM   H8S 8823   2.363   2.503   7.905 -0.3683  0.8446 -1.5124
   6823SM   H8T 8824   2.349   2.345   7.846  0.6914 -2.0285  0.9978
   6823SM   C9S 8825   2.553   2.429   7.828 -0.0323 -0.1535 -0.0072
   6823SM   H9S 8826   2.601   2.331   7.807  0.2484  0.1935 -1.0365
   6823SM   H9T 8827   2.622   2.488   7.891  2.0377  1.3555 -3.4319
   6823SM  C10S 8828   2.528   2.512   7.703  0.1464  0.4018  0.8383
   6823SM  H10S 8829   2.505   2.619   7.722  2.3027  1.1867 -0.6265
   6823SM  H10T 8830   2.442   2.462   7.653  0.9857 -0.4998  0.2620
   6823SM  C11S 8831   2.649   2.506   7.609  0.1465 -1.0040 -0.2996
   6823SM  H11S 8832   2.686   2.402   7.619  0.2561 -0.7694  3.1074
   6823SM  H11T 8833   2.731   2.571   7.648  0.0367 -0.8867 -0.2653
   6823SM  C12S 8834   2.619   2.560   7.465 -0.5590  0.2617 -0.3049
   6823SM  H12S 8835   2.626   2.670   7.482  0.3603  0.2854 -0.7708
   6823SM  H12T 8836   2.523   2.512   7.438  0.8674 -2.2132 -1.3000
   6823SM  C13S 8837   2.738   2.535   7.365  0.2605 -0.4791  0.6081
   6823SM  H13S 8838   2.840   2.540   7.408  1.5040 -2.4174 -1.8375
   6823SM  H13T 8839   2.722   2.615   7.289  0.8131 -0.2642  0.7123
   6823SM  C14S 8840   2.730   2.398   7.285 -0.4213 -0.9177 -0.1838
   6823SM  H14S 8841   2.624   2.382   7.257 -0.3865  0.5805 -1.2299
   6823SM  H14T 8842   2.745   2.316   7.359 -1.8163 -0.2231  0.9256
   6823SM  C15S 8843   2.825   2.379   7.164 -0.0361  0.0275 -0.1513
   6823SM  H15S 8844   2.931   2.396   7.191 -0.4324  1.2195  0.7449
   6823SM  H15T 8845   2.788   2.455   7.092 -2.8289 -0.4471  0.6438
   6823SM  C16S 8846   2.814   2.240   7.105  0.2867  0.1632 -1.5556
   6823SM  H16S 8847   2.709   2.223   7.074  0.5286  0.4033 -2.5797
   6823SM  H16T 8848   2.834   2.161   7.180 -2.4360 -0.0674 -1.0021
   6823SM  C17S 8849   2.895   2.220   6.976 -0.5043  0.7412  0.0211
   6823SM  H17S 8850   2.880   2.306   6.908  0.6726  0.5671 -0.4735
   6823SM  H17T 8851   2.862   2.131   6.920  1.7098 -0.2401  0.1849
   6823SM  C18S 8852   3.046   2.203   6.998  0.1672  0.3112 -0.7595
   6823SM  H18S 8853   3.103   2.211   6.903  0.3064  0.9153 -0.6316
   6823SM  H18T 8854   3.065   2.108   7.052 -1.5665  0.1036 -0.4773
   6823SM  H18U 8855   3.078   2.286   7.065 -2.2692 -0.0648  1.0049
   6823SM   C1F 8856   2.484   2.476   8.574  0.8036 -0.2078  0.5278
   6823SM    OF 8857   2.557   2.518   8.657 -0.2614 -0.2103  0.3890
   6823SM   C2F 8858   2.358   2.556   8.547 -0.7401  0.3655  0.0863
   6823SM   H2F 8859   2.376   2.653   8.598 -0.8404  0.7870 -0.6627
   6823SM   H2G 8860   2.272   2.507   8.597  0.1691 -1.7615 -0.3187
   6823SM   C3F 8861   2.324   2.596   8.408  0.1524 -0.0357 -0.2141
   6823SM   H3F 8862   2.226   2.647   8.403  0.4482  0.8583  1.9609
   6823SM   H3G 8863   2.303   2.500   8.357 -1.3270 -1.0119  2.0858
   6823SM   C4F 8864   2.446   2.670   8.339 -0.4373 -0.1576 -0.3303
   6823SM   H4F 8865   2.526   2.596   8.317  0.7667  1.3114 -1.0243
   6823SM   H4G 8866   2.493   2.729   8.420  0.0645 -2.3300  1.0449
   6823SM   C5F 8867   2.412   2.754   8.214 -0.1610  0.2587 -0.0628
   6823SM   H5F 8868   2.323   2.818   8.227 -0.4983 -0.4323  1.2856
   6823SM   H5G 8869   2.398   2.684   8.129  0.5120  1.0031 -0.8008
   6823SM   C6F 8870   2.530   2.840   8.176 -0.2851  0.5391 -0.1976
   6823SM   H6F 8871   2.611   2.776   8.137 -0.0782  0.6702  0.0166
   6823SM   H6G 8872   2.576   2.897   8.260  2.5670 -1.4328 -0.2731
   6823SM   C7F 8873   2.497   2.927   8.051 -0.4522  0.5206 -0.4880
   6823SM   H7F 8874   2.575   3.006   8.050 -2.3861  2.5530  0.2941
   6823SM   H7G 8875   2.403   2.983   8.070 -0.4968 -0.3788  2.3583
   6823SM   C8F 8876   2.495   2.853   7.923  0.0227 -0.4653  0.0544
   6823SM   H8F 8877   2.418   2.773   7.929 -1.7702  0.8558 -2.7189
   6823SM   H8G 8878   2.586   2.799   7.889 -0.8457 -1.7770 -0.2991
   6823SM   C9F 8879   2.464   2.956   7.810  0.0524 -0.6924  0.0335
   6823SM   H9F 8880   2.532   3.042   7.825 -0.1500 -0.4381 -0.4998
   6823SM   H9G 8881   2.366   3.006   7.821  0.5228  0.7164 -1.8239
   6823SM  C10F 8882   2.465   2.899   7.671 -0.8173  0.5935  0.3094
   6823SM  H10F 8883   2.390   2.818   7.660 -0.6153  0.5556 -0.8535
   6823SM  H10G 8884   2.566   2.859   7.649  0.1572  2.1826  1.6122
   6823SM  C11F 8885   2.444   3.005   7.561 -0.9059 -0.2814 -0.2765
   6823SM  H11F 8886   2.520   3.085   7.577  0.8835 -2.3203  2.3045
   6823SM  H11G 8887   2.343   3.050   7.570  0.3006  2.3942  1.2536
   6823SM  C12F 8888   2.469   2.948   7.416 -0.5006  0.1423 -1.5670
   6823SM  H12F 8889   2.379   2.892   7.383 -0.7904 -0.8922  0.7879
   6823SM  H12G 8890   2.552   2.874   7.427 -0.2178  0.5540 -0.8430
   6823SM  C13F 8891   2.512   3.057   7.312  0.1789 -0.5421  1.1585
   6823SM  H13F 8892   2.611   3.099   7.340 -0.3037  0.9350  0.7234
   6823SM  H13G 8893   2.439   3.141   7.314 -1.0969 -1.5777  0.2589
   6823SM  C14F 8894   2.514   2.987   7.167  0.1712 -0.5505 -0.8534
   6823SM  H14F 8895   2.423   2.927   7.148 -1.2249  2.1475 -3.4078
   6823SM  H14G 8896   2.597   2.913   7.172  1.6338  1.0708  0.4669
   6823SM  C15F 8897   2.537   3.075   7.039  0.1139  0.6368 -0.1102
   6823SM  H15F 8898   2.640   3.116   7.051 -0.6142  2.6424 -0.3542
   6823SM  H15G 8899   2.469   3.163   7.035  0.0260  0.5307 -1.4125
   6823SM  C16F 8900   2.543   3.003   6.902  0.3369 -0.6707 -0.4685
   6823SM  H16F 8901   2.608   2.914   6.913 -1.1034 -1.9182 -1.5354
   6823SM  H16G 8902   2.582   3.067   6.821  1.0716 -1.3434 -0.6611
   6823SM  C17F 8903   2.402   2.959   6.848 -0.4700 -0.4472 -0.2123
   6823SM  H17F 8904   2.337   3.046   6.822  1.1564  1.2990  1.2529
   6823SM  H17G 8905   2.362   2.908   6.938  0.9828  2.1184  2.0473
   6823SM  C18F 8906   2.422   2.869   6.730  0.2337  0.2499  0.1967
   6823SM  H18F 8907   2.485   2.781   6.755 -1.7954 -0.7992  1.9493
   6823SM  H18G 8908   2.466   2.922   6.643  0.2226  1.4052  0.8772
   6823SM  C19F 8909   2.288   2.812   6.680  0.5498 -1.2522  0.1379
   6823SM  H19F 8910   2.210   2.891   6.685  0.6364 -0.8377 -2.8020
   6823SM  H19G 8911   2.257   2.735   6.753 -1.1945 -1.2288 -0.5330
   6823SM  C20F 8912   2.278   2.749   6.535  0.2515  0.1053 -0.7277
   6823SM  H20F 8913   2.340   2.657   6.526 -1.1865 -0.8204 -1.4697
   6823SM  H20G 8914   2.328   2.819   6.465 -0.5393  1.0637 -0.3515
   6823SM  C21F 8915   2.141   2.723   6.474  0.2039 -0.3731 -0.3560
   6823SM  H21F 8916   2.138   2.712   6.363 -2.8653 -0.2931 -0.3907
   6823SM  H21G 8917   2.083   2.815   6.497 -1.7340 -1.7818  0.7537
   6823SM  C22F 8918   2.069   2.600   6.537 -1.1043  0.4336  1.0068
   6823SM  H22F 8919   2.048   2.633   6.641 -0.4793 -0.0283  1.2818
   6823SM  H22G 8920   2.129   2.507   6.546 -0.2216  1.1391  2.7695
   6823SM  C23F 8921   1.933   2.572   6.472 -0.9420  0.0846  0.0539
   6823SM  H23F 8922   1.875   2.663   6.447 -0.0538  0.1028 -2.2198
   6823SM  H23G 8923   1.868   2.510   6.537  2.3076 -0.9184  2.6398
   6823SM  H23H 8924   1.943   2.530   6.369  0.3112  0.3297  0.0613
   6923SM     N 8925   5.696   1.658   9.181 -0.2354  0.4650 -0.1150
   6923SM   C15 8926   5.627   1.600   9.306 -0.4345 -0.4919  0.3897
   6923SM  H15A 8927   5.555   1.525   9.276 -1.5970  0.8224 -0.2153
   6923SM  H15B 8928   5.574   1.677   9.359  0.9416  0.0539  1.0177
   6923SM  H15C 8929   5.707   1.562   9.368  1.3403  2.4313  0.0816
   6923SM   C14 8930   5.613   1.775   9.135 -0.4550  0.0220  0.0290
   6923SM  H14A 8931   5.506   1.758   9.129 -1.0386  1.1336  4.2103
   6923SM  H14B 8932   5.647   1.819   9.043  1.0354 -1.1271  0.0055
   6923SM  H14C 8933   5.611   1.850   9.213 -2.4638  0.7174 -0.6318
   6923SM   C13 8934   5.823   1.718   9.227  1.0297  0.4916 -0.1176
   6923SM  H13A 8935   5.813   1.778   9.317 -0.8108 -3.5074  2.6319
   6923SM  H13B 8936   5.856   1.781   9.146 -1.3247 -0.6027 -2.0377
   6923SM  H13C 8937   5.897   1.641   9.243 -0.1675 -0.6583 -0.0329
   6923SM   C12 8938   5.703   1.560   9.072 -0.0931  0.3155  0.2714
   6923SM  H12A 8939   5.608   1.514   9.048  1.0602 -1.5818 -0.9160
   6923SM  H12B 8940   5.759   1.472   9.101 -1.1965 -0.6288 -0.3873
   6923SM   C11 8941   5.756   1.598   8.935  0.1536  0.5196 -0.6512
   6923SM  H11A 8942   5.853   1.652   8.931  0.4005  0.0769 -0.7056
   6923SM  H11B 8943   5.674   1.667   8.906 -1.5959 -0.9582  0.5105
   6923SM     P 8944   5.642   1.397   8.795  0.0343 -0.6750  0.1793
   6923SM   O13 8945   5.711   1.281   8.729  0.5798  0.2784  0.0344
   6923SM   O14 8946   5.526   1.370   8.888 -0.3196 -0.4676 -0.2522
   6923SM   O11 8947   5.589   1.498   8.690  0.4891 -0.3299  0.0053
   6923SM   O12 8948   5.762   1.478   8.867  0.5283  0.6875  0.6230
   6923SM   C1S 8949   5.671   1.594   8.623 -0.2978 -0.0382 -0.8381
   6923SM   H1S 8950   5.776   1.590   8.659 -0.6472  0.2336  0.2454
   6923SM   H1T 8951   5.626   1.693   8.648 -0.7334 -0.7523  1.3596
   6923SM    NF 8952   5.798   1.627   8.418  0.0908 -0.2746 -0.6422
   6923SM   HNF 8953   5.789   1.723   8.392  1.1745 -0.2663 -1.0339
   6923SM   C2S 8954   5.682   1.560   8.474  0.2484  0.1303  0.1600
   6923SM   H2S 8955   5.684   1.450   8.461 -3.6690 -0.1838  0.9415
   6923SM   C3S 8956   5.546   1.595   8.404 -0.4872 -0.0021  0.3153
   6923SM   H3S 8957   5.538   1.706   8.400 -0.3707 -0.0047 -0.0119
   6923SM    O3 8958   5.430   1.561   8.474  0.5026  1.2031 -0.1222
   6923SM   HO3 8959   5.458   1.569   8.565 -0.4571  0.8668  0.2175
   6923SM   C4S 8960   5.551   1.552   8.264  0.0619 -0.1593  0.6444
   6923SM   H4S 8961   5.572   1.630   8.189  0.2721 -0.7725  0.0518
   6923SM   C5S 8962   5.519   1.428   8.220 -0.3394 -0.3071 -0.6055
   6923SM   H5S 8963   5.487   1.358   8.299  0.6263  0.0753  0.1530
   6923SM   C6S 8964   5.518   1.374   8.080 -0.0466 -0.4638 -0.1565
   6923SM   H6S 8965   5.418   1.331   8.056  0.3934 -0.6980 -1.6380
   6923SM   H6T 8966   5.584   1.286   8.087  0.2562 -0.1794  0.6877
   6923SM   C7S 8967   5.559   1.473   7.965 -0.0286 -1.3524 -0.4226
   6923SM   H7S 8968   5.662   1.515   7.971 -0.9437  1.6953 -3.1966
   6923SM   H7T 8969   5.476   1.546   7.959  0.4728 -0.8236 -1.0192
   6923SM   C8S 8970   5.561   1.414   7.827  0.5311  0.2066 -0.3155
   6923SM   H8S 8971   5.459   1.380   7.799  1.1712 -0.1386 -2.3968
   6923SM   H8T 8972   5.640   1.335   7.828  1.4014  1.0028 -1.9830
   6923SM   C9S 8973   5.610   1.521   7.725  1.0387  0.1968 -0.5784
   6923SM   H9S 8974   5.718   1.538   7.741  1.5375 -0.0789 -3.2261
   6923SM   H9T 8975   5.550   1.613   7.742  0.3063 -0.4026  0.1611
   6923SM  C10S 8976   5.598   1.470   7.581  0.6406 -0.5142 -0.0383
   6923SM  H10S 8977   5.496   1.437   7.554 -0.7716  2.8204  0.7598
   6923SM  H10T 8978   5.659   1.377   7.585 -0.1049 -0.9870  0.4587
   6923SM  C11S 8979   5.662   1.571   7.477  0.2740  0.5360  0.3227
   6923SM  H11S 8980   5.765   1.588   7.513  1.3964  0.5375 -2.6572
   6923SM  H11T 8981   5.603   1.666   7.472 -0.1741  0.2579  0.3018
   6923SM  C12S 8982   5.671   1.531   7.328  0.0404  0.4175  0.6374
   6923SM  H12S 8983   5.574   1.504   7.281 -0.0414  0.0699  0.9960
   6923SM  H12T 8984   5.734   1.439   7.324  0.1737  0.3252  3.2171
   6923SM  C13S 8985   5.731   1.649   7.247  0.7477 -0.0331  0.3562
   6923SM  H13S 8986   5.803   1.689   7.323  0.1979  0.2525  0.7342
   6923SM  H13T 8987   5.652   1.721   7.218  0.1709 -0.7048  0.2405
   6923SM  C14S 8988   5.803   1.604   7.118 -0.0231 -0.1313  0.2765
   6923SM  H14S 8989   5.793   1.495   7.103  0.6045 -0.0258 -1.0283
   6923SM  H14T 8990   5.912   1.623   7.123  0.1029 -1.0514  1.8335
   6923SM  C15S 8991   5.754   1.682   6.991  0.3358  0.8722  0.0104
   6923SM  H15S 8992   5.755   1.791   7.013 -4.6835  1.3353 -1.0616
   6923SM  H15T 8993   5.647   1.659   6.974  0.5533 -0.8091  0.7318
   6923SM  C16S 8994   5.833   1.648   6.867  1.0772 -0.2456  0.3495
   6923SM  H16S 8995   5.944   1.650   6.876  1.2730  0.1436 -1.7426
   6923SM  H16T 8996   5.791   1.723   6.796 -0.9380  1.1278  2.7960
   6923SM  C17S 8997   5.795   1.510   6.798 -0.3279 -0.3389  0.2460
   6923SM  H17S 8998   5.684   1.504   6.809 -0.1350 -2.7136  1.7893
   6923SM  H17T 8999   5.838   1.423   6.853 -2.1614 -1.1745  0.4553
   6923SM  C18S 9000   5.845   1.506   6.657  0.3324 -0.6054  0.0987
   6923SM  H18S 9001   5.955   1.524   6.651  0.8528 -2.7796  1.8460
   6923SM  H18T 9002   5.803   1.590   6.598 -0.0694 -0.4714  0.5706
   6923SM  H18U 9003   5.822   1.404   6.619 -1.4380 -0.2505  0.1265
   6923SM   C1F 9004   5.917   1.569   8.418 -0.1621 -0.0495  0.5118
   6923SM    OF 9005   5.927   1.451   8.439 -0.1463  0.0523  0.7674
   6923SM   C2F 9006   6.040   1.654   8.386  0.0599  0.2448  0.5059
   6923SM   H2F 9007   6.096   1.666   8.482 -0.2734  0.0147  0.7317
   6923SM   H2G 9008   6.003   1.753   8.352 -1.0339 -0.1360  0.5763
   6923SM   C3F 9009   6.133   1.585   8.275 -0.3986 -0.9357 -0.5544
   6923SM   H3F 9010   6.164   1.489   8.321 -1.2236  0.1205  2.4494
   6923SM   H3G 9011   6.219   1.654   8.263 -0.9392 -0.1787 -0.2133
   6923SM   C4F 9012   6.068   1.564   8.138 -0.6081  0.6789  0.5241
   6923SM   H4F 9013   6.000   1.476   8.138 -0.2828  0.4230  0.0189
   6923SM   H4G 9014   6.136   1.540   8.054 -1.0495  2.2021 -0.3204
   6923SM   C5F 9015   5.978   1.673   8.083  0.8298 -0.2233 -1.4708
   6923SM   H5F 9016   6.015   1.772   8.116 -3.4454  0.7829  1.1408
   6923SM   H5G 9017   5.887   1.651   8.143  1.6642  1.7188  0.6359
   6923SM   C6F 9018   5.967   1.671   7.927  0.1515  0.0389  1.3248
   6923SM   H6F 9019   5.927   1.574   7.890  0.2161  1.0633 -1.6805
   6923SM   H6G 9020   6.074   1.684   7.902 -0.3357 -0.0745 -0.9562
   6923SM   C7F 9021   5.890   1.787   7.878  0.0914 -0.5646  0.4259
   6923SM   H7F 9022   5.933   1.880   7.919 -0.2532 -0.0001 -0.4536
   6923SM   H7G 9023   5.794   1.780   7.934 -1.6450  1.5115 -2.0373
   6923SM   C8F 9024   5.884   1.782   7.726 -0.4870  0.1483  0.2848
   6923SM   H8F 9025   5.834   1.697   7.675  0.6993  0.1966 -1.0339
   6923SM   H8G 9026   5.984   1.786   7.677 -0.2722 -2.0940  0.4490
   6923SM   C9F 9027   5.816   1.915   7.680  0.2618 -0.4426 -0.7776
   6923SM   H9F 9028   5.873   2.005   7.711 -0.3590 -0.7175  1.2988
   6923SM   H9G 9029   5.720   1.921   7.735  0.5762  0.0474 -0.2742
   6923SM  C10F 9030   5.787   1.930   7.530 -0.4223  0.4845  0.2637
   6923SM  H10F 9031   5.733   2.025   7.510  0.8374  1.2953  0.5962
   6923SM  H10G 9032   5.724   1.853   7.482 -2.9078  2.5178  0.0339
   6923SM  C11F 9033   5.918   1.941   7.442  0.3920 -0.1586  0.1906
   6923SM  H11F 9034   5.960   1.838   7.445 -1.1254 -0.8747 -1.2330
   6923SM  H11G 9035   5.994   2.010   7.483  1.5134 -1.8815  1.1420
   6923SM  C12F 9036   5.886   1.991   7.297  0.1768  0.1410  0.2966
   6923SM  H12F 9037   5.857   2.098   7.300 -1.6735 -0.2624 -0.8521
   6923SM  H12G 9038   5.800   1.938   7.250  1.4082  0.7438 -2.8765
   6923SM  C13F 9039   6.008   1.972   7.206  0.4505 -0.2273  0.2449
   6923SM  H13F 9040   6.002   1.864   7.183  0.3942 -0.1154 -0.2860
   6923SM  H13G 9041   6.104   1.996   7.257 -0.1445  0.1641  1.2053
   6923SM  C14F 9042   5.996   2.068   7.083 -0.3365  0.3410 -0.0148
   6923SM  H14F 9043   6.005   2.177   7.104  0.7840  0.2305  0.1008
   6923SM  H14G 9044   5.903   2.055   7.022 -0.0213  0.4751 -0.5314
   6923SM  C15F 9045   6.113   2.049   6.989  0.3080  0.6047  0.4871
   6923SM  H15F 9046   6.132   1.946   6.952 -0.1927  1.4202 -2.2253
   6923SM  H15G 9047   6.208   2.070   7.043  0.3301  0.8497  0.3540
   6923SM  C16F 9048   6.125   2.143   6.870 -0.5074  0.2038  0.7241
   6923SM  H16F 9049   6.084   2.241   6.902 -0.6578 -0.7477  3.7920
   6923SM  H16G 9050   6.068   2.107   6.782  0.5355 -0.4637  0.3074
   6923SM  C17F 9051   6.268   2.165   6.810 -0.6763 -0.9029  0.4991
   6923SM  H17F 9052   6.306   2.061   6.814  1.6821 -0.1128 -0.0373
   6923SM  H17G 9053   6.323   2.243   6.867  0.0735  0.4073 -1.8625
   6923SM  C18F 9054   6.261   2.215   6.663  0.0142 -0.2807  0.1157
   6923SM  H18F 9055   6.210   2.314   6.668 -3.8609 -2.1635  2.2273
   6923SM  H18G 9056   6.199   2.150   6.598  0.4244  0.7215 -1.3440
   6923SM  C19F 9057   6.389   2.229   6.586  0.2057 -0.6234  0.2402
   6923SM  H19F 9058   6.459   2.143   6.592 -0.9342 -1.4688  3.4348
   6923SM  H19G 9059   6.448   2.317   6.619 -2.0488  1.3537 -0.7643
   6923SM  C20F 9060   6.361   2.268   6.439  0.0045  0.0961 -0.1619
   6923SM  H20F 9061   6.281   2.346   6.439 -0.2788 -0.1332  1.8581
   6923SM  H20G 9062   6.321   2.171   6.402 -0.0648 -0.4664  1.3059
   6923SM  C21F 9063   6.490   2.332   6.375 -0.5431  0.2640  0.2011
   6923SM  H21F 9064   6.563   2.249   6.363  0.1171  0.7850  0.5211
   6923SM  H21G 9065   6.546   2.399   6.445 -0.2862  1.4710 -1.1186
   6923SM  C22F 9066   6.466   2.398   6.240  0.4476  0.0566  0.4380
   6923SM  H22F 9067   6.400   2.486   6.256 -0.6263 -0.4450 -0.9873
   6923SM  H22G 9068   6.403   2.332   6.177 -0.6113  1.0094  0.4688
   6923SM  C23F 9069   6.601   2.433   6.175 -0.5923 -0.2849  0.2435
   6923SM  H23F 9070   6.666   2.499   6.237 -0.9370 -1.3562  1.7991
   6923SM  H23G 9071   6.583   2.500   6.088  1.8055  0.7230  0.4448
   6923SM  H23H 9072   6.658   2.343   6.146 -1.5935 -0.4065 -1.5095
   7023SM     N 9073   5.732   2.439   8.830 -0.2048  0.2187  0.7304
   7023SM   C15 9074   5.818   2.360   8.920  1.1481 -0.2975  0.2639
   7023SM  H15A 9075   5.860   2.419   9.000  0.4646  2.2387 -1.1536
   7023SM  H15B 9076   5.892   2.305   8.864  0.2957 -0.9088 -0.2795
   7023SM  H15C 9077   5.766   2.281   8.972 -1.8435  1.6252  0.3963
   7023SM   C14 9078   5.644   2.513   8.915 -0.3669 -0.5229 -0.4337
   7023SM  H14A 9079   5.604   2.448   8.992  0.0259  0.9380  1.0649
   7023SM  H14B 9080   5.567   2.550   8.850 -2.6521 -1.9664  1.2805
   7023SM  H14C 9081   5.688   2.599   8.965 -0.8910 -1.7856  2.4333
   7023SM   C13 9082   5.812   2.529   8.741  0.0942  0.2618  0.5223
   7023SM  H13A 9083   5.871   2.600   8.797 -0.6367  1.1301  0.2219
   7023SM  H13B 9084   5.755   2.581   8.665 -1.5096 -0.8416  0.8980
   7023SM  H13C 9085   5.881   2.470   8.682  0.8146 -0.1032  1.7042
   7023SM   C12 9086   5.646   2.347   8.745 -0.4568  0.3032 -0.5478
   7023SM  H12A 9087   5.629   2.256   8.801  0.8274 -0.1256 -0.7995
   7023SM  H12B 9088   5.702   2.298   8.666  0.9155  1.5619 -0.4124
   7023SM   C11 9089   5.520   2.400   8.669  0.4227  0.1901  0.1830
   7023SM  H11A 9090   5.448   2.437   8.745 -0.2291  1.5926 -1.0686
   7023SM  H11B 9091   5.466   2.325   8.608  2.4904 -0.8185 -0.5166
   7023SM     P 9092   5.617   2.499   8.444  0.1444 -0.3259 -0.0972
   7023SM   O13 9093   5.582   2.619   8.369  0.0391  0.1379  0.4848
   7023SM   O14 9094   5.757   2.467   8.463 -0.4027 -0.2178  0.3648
   7023SM   O11 9095   5.546   2.373   8.385  0.1541 -0.2246 -0.0725
   7023SM   O12 9096   5.546   2.517   8.589 -0.6213  0.4954 -0.2809
   7023SM   C1S 9097   5.416   2.378   8.331  0.1014  0.0997  0.1773
   7023SM   H1S 9098   5.355   2.458   8.378 -0.7786  0.3422 -1.3241
   7023SM   H1T 9099   5.357   2.286   8.349 -0.7287  0.0674 -2.3210
   7023SM    NF 9100   5.298   2.411   8.113 -0.2437 -0.1163 -0.4043
   7023SM   HNF 9101   5.246   2.327   8.098  0.9331 -1.2098  1.2524
   7023SM   C2S 9102   5.436   2.402   8.172 -0.1341  0.7235 -0.9579
   7023SM   H2S 9103   5.497   2.494   8.161  3.4734 -1.5395 -1.1659
   7023SM   C3S 9104   5.505   2.284   8.112 -0.1991 -0.1679  0.7023
   7023SM   H3S 9105   5.434   2.199   8.108 -0.2320 -0.1154 -1.8614
   7023SM    O3 9106   5.632   2.253   8.177 -0.5461  0.1273 -0.2719
   7023SM   HO3 9107   5.640   2.310   8.254 -1.6735 -1.1692  0.8687
   7023SM   C4S 9108   5.531   2.321   7.968  0.4914 -0.1599  0.5915
   7023SM   H4S 9109   5.569   2.422   7.949 -2.6451  0.9435 -0.4521
   7023SM   C5S 9110   5.506   2.246   7.862 -0.7144  0.7273 -0.6713
   7023SM   H5S 9111   5.462   2.146   7.879  1.3293 -0.0882  0.0666
   7023SM   C6S 9112   5.522   2.287   7.712  0.3128  0.6531 -0.2184
   7023SM   H6S 9113   5.584   2.212   7.660  0.7062 -1.1034  2.5627
   7023SM   H6T 9114   5.570   2.387   7.715 -1.3257  1.4746 -0.1252
   7023SM   C7S 9115   5.384   2.296   7.639  0.5169  0.0491 -0.7953
   7023SM   H7S 9116   5.310   2.361   7.690  0.2120 -0.7492 -0.1805
   7023SM   H7T 9117   5.344   2.192   7.649  1.2679 -0.2572 -0.9471
   7023SM   C8S 9118   5.383   2.328   7.489  0.1896  0.6229  0.8124
   7023SM   H8S 9119   5.409   2.435   7.479  0.6792  0.8624  3.7287
   7023SM   H8T 9120   5.285   2.303   7.443  0.7883  1.0092 -0.7470
   7023SM   C9S 9121   5.488   2.246   7.415 -0.6039 -0.3055 -0.2367
   7023SM   H9S 9122   5.470   2.137   7.429  1.6942 -0.4996  1.8796
   7023SM   H9T 9123   5.594   2.251   7.449 -0.3125 -0.5345 -1.0836
   7023SM  C10S 9124   5.466   2.274   7.266  0.1067  0.1679  0.4149
   7023SM  H10S 9125   5.490   2.377   7.230  0.1015 -0.6276 -2.0986
   7023SM  H10T 9126   5.358   2.265   7.240 -0.0681  1.0717  0.7855
   7023SM  C11S 9127   5.551   2.181   7.180  0.3793  0.3635  0.3830
   7023SM  H11S 9128   5.558   2.077   7.218  0.0010  0.1623 -0.0873
   7023SM  H11T 9129   5.657   2.216   7.181  0.8670 -1.0205 -0.2859
   7023SM  C12S 9130   5.505   2.178   7.033  0.5626  0.3534  0.1201
   7023SM  H12S 9131   5.482   2.286   7.018  0.4011  0.2178 -0.6295
   7023SM  H12T 9132   5.409   2.122   7.036  1.2689 -1.0529  4.8939
   7023SM  C13S 9133   5.610   2.125   6.932 -0.0057  0.1039  0.2704
   7023SM  H13S 9134   5.634   2.020   6.958 -1.7905  0.1298  2.3977
   7023SM  H13T 9135   5.709   2.174   6.931 -0.9545  2.1413 -1.0692
   7023SM  C14S 9136   5.553   2.124   6.783  0.6499  0.2873 -0.7604
   7023SM  H14S 9137   5.507   2.224   6.772 -0.2763  0.0306  0.6356
   7023SM  H14T 9138   5.477   2.044   6.772  1.8110 -0.8331 -0.9618
   7023SM  C15S 9139   5.657   2.116   6.674 -0.1782  0.0649 -0.0185
   7023SM  H15S 9140   5.736   2.192   6.694  0.4979 -0.4433 -0.7137
   7023SM  H15T 9141   5.618   2.120   6.570 -0.6957  0.0256  0.1721
   7023SM  C16S 9142   5.745   1.983   6.670  0.1589  0.3339  0.8410
   7023SM  H16S 9143   5.680   1.894   6.655 -0.2655  0.6152  0.9940
   7023SM  H16T 9144   5.784   1.976   6.774  1.4887  1.1795  0.4224
   7023SM  C17S 9145   5.863   1.998   6.579  0.3184 -0.7847  0.3597
   7023SM  H17S 9146   5.912   2.097   6.584  1.1038 -1.0430 -1.5802
   7023SM  H17T 9147   5.826   1.989   6.475 -1.0382  0.9215  0.6452
   7023SM  C18S 9148   5.971   1.890   6.594  0.6261  0.0617 -0.1752
   7023SM  H18S 9149   6.060   1.903   6.529  1.0295  1.3934  0.5926
   7023SM  H18T 9150   5.933   1.786   6.581  1.2334 -0.2876  0.7427
   7023SM  H18U 9151   6.010   1.908   6.696 -2.3871  0.9819  0.9428
   7023SM   C1F 9152   5.234   2.526   8.133  0.1582  0.5343 -1.3080
   7023SM    OF 9153   5.283   2.623   8.190  0.1165  0.2020  0.2136
   7023SM   C2F 9154   5.091   2.534   8.076  0.3552 -1.2251  0.2529
   7023SM   H2F 9155   5.037   2.594   8.151  1.4954  0.3405 -0.1273
   7023SM   H2G 9156   5.051   2.430   8.078 -0.4023 -0.9322  2.1940
   7023SM   C3F 9157   5.085   2.606   7.939 -0.6537  0.7356 -0.4177
   7023SM   H3F 9158   5.170   2.563   7.881 -0.9862  0.8656 -1.0069
   7023SM   H3G 9159   5.093   2.716   7.951 -2.8536  0.6372  3.8244
   7023SM   C4F 9160   4.948   2.581   7.875 -0.0084 -0.2674  0.1492
   7023SM   H4F 9161   4.872   2.623   7.945  1.0973 -2.6545  3.0207
   7023SM   H4G 9162   4.936   2.471   7.866  0.5040 -0.3611  0.5713
   7023SM   C5F 9163   4.935   2.647   7.733 -0.3965  0.3373  0.4495
   7023SM   H5F 9164   4.981   2.748   7.731 -1.4171  0.8135 -0.7191
   7023SM   H5G 9165   4.832   2.670   7.697 -0.2895  1.2359  0.6969
   7023SM   C6F 9166   5.016   2.566   7.623  0.8373  0.0487  0.3902
   7023SM   H6F 9167   4.984   2.460   7.626 -1.4774  0.7083  0.4192
   7023SM   H6G 9168   5.124   2.578   7.646  0.4443  0.4726  2.1579
   7023SM   C7F 9169   4.986   2.615   7.482  0.0653 -0.1842 -0.5069
   7023SM   H7F 9170   5.035   2.711   7.455 -1.2103  0.8312  0.6291
   7023SM   H7G 9171   4.877   2.635   7.478  0.0325 -0.5190 -1.8555
   7023SM   C8F 9172   5.006   2.505   7.372  0.8716  0.2696  0.2203
   7023SM   H8F 9173   4.909   2.453   7.364  2.1603 -2.2874  0.2707
   7023SM   H8G 9174   5.081   2.433   7.409  1.2612  0.6967  0.2760
   7023SM   C9F 9175   5.034   2.564   7.237  0.2075  0.3703  0.0380
   7023SM   H9F 9176   5.125   2.628   7.233  0.4022  0.0724 -2.7766
   7023SM   H9G 9177   4.938   2.613   7.209 -1.0589 -1.5490  0.7827
   7023SM  C10F 9178   5.045   2.448   7.131  0.5778  0.4026 -0.1567
   7023SM  H10F 9179   4.948   2.435   7.078  1.2768  2.4762 -2.1091
   7023SM  H10G 9180   5.077   2.355   7.183 -1.6144 -0.0245  0.5324
   7023SM  C11F 9181   5.136   2.486   7.021  0.2475 -0.1142 -0.0387
   7023SM  H11F 9182   5.241   2.492   7.059  0.1446 -2.7526  0.9074
   7023SM  H11G 9183   5.102   2.582   6.980  2.0755  0.3779 -0.5145
   7023SM  C12F 9184   5.139   2.384   6.907 -0.0581  0.1239 -0.0937
   7023SM  H12F 9185   5.039   2.368   6.862 -0.3847 -0.0624  0.6726
   7023SM  H12G 9186   5.158   2.280   6.940 -1.2232 -0.5073 -1.3312
   7023SM  C13F 9187   5.235   2.416   6.792 -0.0343 -0.6911 -0.3958
   7023SM  H13F 9188   5.338   2.417   6.832 -0.4863 -0.3158  0.8064
   7023SM  H13G 9189   5.222   2.513   6.739 -0.3372 -1.7108 -2.2902
   7023SM  C14F 9190   5.239   2.311   6.682  0.2856 -0.1639  0.2289
   7023SM  H14F 9191   5.136   2.286   6.647  0.7496 -0.1935 -1.1446
   7023SM  H14G 9192   5.287   2.219   6.723  1.4938  0.7999  1.0549
   7023SM  C15F 9193   5.328   2.353   6.567  0.3070 -0.4275  0.2902
   7023SM  H15F 9194   5.432   2.372   6.601 -0.6829  0.8529  2.8907
   7023SM  H15G 9195   5.299   2.453   6.529  0.3473 -0.4703  0.1492
   7023SM  C16F 9196   5.326   2.235   6.460 -0.1232  0.2506  0.1675
   7023SM  H16F 9197   5.217   2.215   6.447 -0.8428  3.8242 -0.5004
   7023SM  H16G 9198   5.385   2.156   6.510  1.6213  2.4921  1.9079
   7023SM  C17F 9199   5.384   2.276   6.324 -0.0252  0.3898 -0.3872
   7023SM  H17F 9200   5.478   2.328   6.350 -1.2466  1.2463  2.8450
   7023SM  H17G 9201   5.317   2.355   6.283  0.1576  1.2396  0.8992
   7023SM  C18F 9202   5.386   2.152   6.231  0.9261 -0.6839 -0.3757
   7023SM  H18F 9203   5.286   2.111   6.205  0.9548 -1.6441  0.9330
   7023SM  H18G 9204   5.440   2.071   6.284 -0.6554 -1.5241 -0.0160
   7023SM  C19F 9205   5.467   2.161   6.099 -0.6678 -0.3877 -0.1064
   7023SM  H19F 9206   5.423   2.247   6.043  0.5390  0.0168 -0.4643
   7023SM  H19G 9207   5.451   2.064   6.047 -0.3500  0.1622 -1.2643
   7023SM  C20F 9208   5.619   2.194   6.126  0.0554  0.1684  0.0306
   7023SM  H20F 9209   5.664   2.108   6.181 -2.4782  1.0174  3.8257
   7023SM  H20G 9210   5.642   2.281   6.191 -1.4088  0.5678  0.0494
   7023SM  C21F 9211   5.710   2.221   6.000  0.4190 -0.6085  0.2432
   7023SM  H21F 9212   5.814   2.241   6.032  0.2751  0.3592  0.1217
   7023SM  H21G 9213   5.673   2.314   5.952  1.5518 -0.7531 -0.9605
   7023SM  C22F 9214   5.712   2.113   5.894 -0.0313  0.1857 -0.7347
   7023SM  H22F 9215   5.609   2.091   5.858 -0.1076 -0.2009 -0.2889
   7023SM  H22G 9216   5.743   2.015   5.936  0.5572  0.0112 -1.5503
   7023SM  C23F 9217   5.812   2.142   5.784 -0.0787 -0.0728 -0.4202
   7023SM  H23F 9218   5.803   2.061   5.708  1.7041  0.4709 -1.2547
   7023SM  H23G 9219   5.919   2.153   5.812 -0.6162  2.0593  0.9547
   7023SM  H23H 9220   5.780   2.237   5.736 -1.1378 -0.7280 -1.0543
   7123SM     N 9221   3.716   0.577   8.317 -0.5005  0.5241 -0.2300
   7123SM   C15 9222   3.812   0.661   8.231 -0.5540 -0.0631 -0.0037
   7123SM  H15A 9223   3.886   0.699   8.300 -1.6991  0.4467  0.9819
   7123SM  H15B 9224   3.743   0.736   8.196 -0.5349  0.7046  1.5119
   7123SM  H15C 9225   3.857   0.616   8.143 -1.1686  1.2501 -1.0220
   7123SM   C14 9226   3.802   0.498   8.414  0.0802 -0.2957  0.3593
   7123SM  H14A 9227   3.754   0.411   8.455  1.3741 -0.6540  1.1810
   7123SM  H14B 9228   3.829   0.561   8.498  1.0609 -1.0026  0.5887
   7123SM  H14C 9229   3.889   0.465   8.358 -0.6900 -1.1794 -0.3469
   7123SM   C13 9230   3.645   0.678   8.404 -0.2950 -0.1885  0.1770
   7123SM  H13A 9231   3.605   0.635   8.495 -0.9551 -0.3005 -0.1620
   7123SM  H13B 9232   3.561   0.717   8.350  0.5225  0.5239 -0.6261
   7123SM  H13C 9233   3.709   0.762   8.430  1.4462 -0.2177 -3.4186
   7123SM   C12 9234   3.632   0.487   8.230 -0.8222 -0.8561 -0.0249
   7123SM  H12A 9235   3.697   0.413   8.186 -2.2791 -2.1490 -0.0900
   7123SM  H12B 9236   3.582   0.541   8.151  0.0674  0.2923  0.1750
   7123SM   C11 9237   3.515   0.406   8.293  0.3243 -0.3846  0.1876
   7123SM  H11A 9238   3.553   0.346   8.378  1.6274  1.0393  0.6637
   7123SM  H11B 9239   3.478   0.328   8.223 -0.7162  1.1847 -1.0832
   7123SM     P 9240   3.342   0.600   8.232  0.3602 -0.1594 -0.0257
   7123SM   O13 9241   3.201   0.631   8.271  0.5830 -0.4340 -0.0555
   7123SM   O14 9242   3.424   0.721   8.205  0.2645  0.1613  0.5100
   7123SM   O11 9243   3.326   0.532   8.097 -0.0221  0.3451  0.4312
   7123SM   O12 9244   3.412   0.498   8.327  0.4816  0.0590 -0.2824
   7123SM   C1S 9245   3.222   0.437   8.061 -0.2954 -0.4951 -0.2489
   7123SM   H1S 9246   3.122   0.484   8.074 -0.9481 -2.0903  0.8248
   7123SM   H1T 9247   3.228   0.350   8.131 -0.3983 -0.8906 -0.7253
   7123SM    NF 9248   3.124   0.323   7.864 -0.9452 -0.1862  0.6632
   7123SM   HNF 9249   3.116   0.227   7.889  0.4857 -0.5992 -0.4030
   7123SM   C2S 9250   3.249   0.383   7.915  0.5659 -0.2350  0.3339
   7123SM   H2S 9251   3.273   0.473   7.855  0.2936  0.6637  1.5208
   7123SM   C3S 9252   3.374   0.293   7.923  0.2439 -0.8245  0.6137
   7123SM   H3S 9253   3.364   0.217   8.003  0.0737 -0.3117  1.0839
   7123SM    O3 9254   3.491   0.377   7.945 -0.3712  0.0623 -0.2658
   7123SM   HO3 9255   3.453   0.447   7.998 -0.9014 -1.3174  1.2518
   7123SM   C4S 9256   3.401   0.231   7.786 -0.2408 -0.4218 -0.2423
   7123SM   H4S 9257   3.460   0.297   7.720 -1.1768  0.9100  0.1953
   7123SM   C5S 9258   3.363   0.118   7.739 -0.3221  0.1843  0.5466
   7123SM   H5S 9259   3.315   0.046   7.806 -1.1838  2.3421  2.4074
   7123SM   C6S 9260   3.406   0.072   7.598  0.0108  0.0979 -0.0084
   7123SM   H6S 9261   3.442  -0.033   7.601 -0.8512 -0.3140 -2.3612
   7123SM   H6T 9262   3.487   0.133   7.553  2.1803 -1.4196  1.5918
   7123SM   C7S 9263   3.279   0.076   7.507 -0.6826 -0.1296 -0.1672
   7123SM   H7S 9264   3.238   0.178   7.497  0.7165  0.6062  1.2364
   7123SM   H7T 9265   3.206   0.006   7.554 -0.0046  0.7089  2.2697
   7123SM   C8S 9266   3.334   0.022   7.374 -0.2684  0.2069 -0.8300
   7123SM   H8S 9267   3.397  -0.067   7.395  0.1831  0.6352 -0.3145
   7123SM   H8T 9268   3.395   0.098   7.322  0.6026  0.7606  0.9140
   7123SM   C9S 9269   3.222  -0.019   7.278 -0.3183 -0.0792 -0.0255
   7123SM   H9S 9270   3.167  -0.107   7.318  1.1983 -1.3454 -0.6093
   7123SM   H9T 9271   3.265  -0.053   7.181 -1.6544 -1.0334 -0.3093
   7123SM  C10S 9272   3.117   0.089   7.255  0.3414 -0.0034  0.1061
   7123SM  H10S 9273   3.179   0.178   7.229 -0.0811  1.0722  2.5033
   7123SM  H10T 9274   3.077   0.125   7.352 -0.4369 -0.8264  0.1054
   7123SM  C11S 9275   3.006   0.047   7.159  0.4392 -0.1634  0.6746
   7123SM  H11S 9276   2.960  -0.051   7.183 -2.3613  0.2976 -2.1149
   7123SM  H11T 9277   3.048   0.027   7.058 -1.5053  0.0775 -0.2273
   7123SM  C12S 9278   2.881   0.143   7.150 -0.4005  0.4987 -0.2880
   7123SM  H12S 9279   2.926   0.244   7.161  0.3670  0.2936 -1.3409
   7123SM  H12T 9280   2.818   0.115   7.236 -0.9340  0.8897 -0.5484
   7123SM  C13S 9281   2.815   0.132   7.011  0.3213  0.6500 -0.3354
   7123SM  H13S 9282   2.756   0.038   7.003  0.9126  0.1959  0.4740
   7123SM  H13T 9283   2.893   0.130   6.932  0.9770  2.5040  0.2138
   7123SM  C14S 9284   2.725   0.253   6.986 -0.1280 -0.8879  0.2121
   7123SM  H14S 9285   2.794   0.330   7.027 -0.1080 -0.8049  0.0272
   7123SM  H14T 9286   2.639   0.245   7.056 -3.1119 -0.7987 -3.1492
   7123SM  C15S 9287   2.679   0.286   6.845  0.5184 -0.3464 -0.0663
   7123SM  H15S 9288   2.762   0.305   6.774 -0.6387  2.2542 -0.8477
   7123SM  H15T 9289   2.616   0.378   6.854 -0.3882 -1.0601  1.2322
   7123SM  C16S 9290   2.602   0.181   6.771  0.2173  0.2573  0.5531
   7123SM  H16S 9291   2.531   0.128   6.839 -2.2175  1.0188 -1.2633
   7123SM  H16T 9292   2.684   0.111   6.745 -0.1512  0.0257 -0.0097
   7123SM  C17S 9293   2.539   0.235   6.645  0.2419 -0.1516  0.3447
   7123SM  H17S 9294   2.624   0.278   6.587  0.0718 -0.0940  0.1409
   7123SM  H17T 9295   2.459   0.301   6.684 -1.7233 -3.0891  1.5891
   7123SM  C18S 9296   2.484   0.117   6.563  0.3106 -0.6583  0.1219
   7123SM  H18S 9297   2.558   0.090   6.485  0.5755 -0.9846  0.4847
   7123SM  H18T 9298   2.383   0.138   6.521  0.8580  1.1591 -0.4068
   7123SM  H18U 9299   2.472   0.032   6.633  1.7345  0.5076  1.8742
   7123SM   C1F 9300   3.026   0.403   7.822  0.2262 -0.8880 -0.6737
   7123SM    OF 9301   3.042   0.520   7.786 -0.0493  0.0811  0.1346
   7123SM   C2F 9302   2.894   0.335   7.826 -0.3469 -0.3912  0.1971
   7123SM   H2F 9303   2.845   0.368   7.921  1.1776 -0.5207  1.0664
   7123SM   H2G 9304   2.906   0.225   7.822 -0.8598 -0.4918  1.0967
   7123SM   C3F 9305   2.797   0.373   7.709 -0.7988  0.2066 -0.3550
   7123SM   H3F 9306   2.835   0.332   7.613  0.0829  0.1789 -0.0075
   7123SM   H3G 9307   2.775   0.481   7.701 -1.4848 -0.0235 -1.8024
   7123SM   C4F 9308   2.657   0.313   7.733  0.3355 -0.2864  0.1541
   7123SM   H4F 9309   2.593   0.354   7.652 -0.5190  1.3330  1.5691
   7123SM   H4G 9310   2.599   0.344   7.823 -2.7111 -0.2473 -1.6654
   7123SM   C5F 9311   2.640   0.163   7.723 -0.0366  0.3284  0.0851
   7123SM   H5F 9312   2.667   0.115   7.820  1.8384  0.0565 -0.5421
   7123SM   H5G 9313   2.712   0.126   7.647  0.3216  1.0804  0.0509
   7123SM   C6F 9314   2.497   0.120   7.694  0.2568  0.4656 -0.2173
   7123SM   H6F 9315   2.414   0.162   7.755 -1.1273  0.0039 -1.6952
   7123SM   H6G 9316   2.491   0.014   7.730  2.8082 -0.3728 -2.0159
   7123SM   C7F 9317   2.457   0.108   7.544 -0.0609 -0.4685  0.1038
   7123SM   H7F 9318   2.523   0.029   7.501 -0.4066 -0.0674 -1.2244
   7123SM   H7G 9319   2.479   0.205   7.494 -0.2564 -0.5342 -0.1097
   7123SM   C8F 9320   2.308   0.078   7.516 -0.2783 -0.2960  0.4843
   7123SM   H8F 9321   2.231   0.153   7.543 -0.6280  1.0058 -3.4916
   7123SM   H8G 9322   2.289  -0.015   7.575 -2.1680 -0.5697 -0.4792
   7123SM   C9F 9323   2.281   0.035   7.371  0.1577  0.3681  0.6049
   7123SM   H9F 9324   2.174   0.010   7.354  0.0340  2.1703 -1.7054
   7123SM   H9G 9325   2.340  -0.053   7.339 -0.8360 -0.5993  1.3006
   7123SM  C10F 9326   2.306   0.146   7.270  0.1544 -0.6268  0.0293
   7123SM  H10F 9327   2.399   0.192   7.309 -0.5781 -1.0273  2.4163
   7123SM  H10G 9328   2.225   0.221   7.269 -1.6160 -2.4307 -1.5855
   7123SM  C11F 9329   2.336   0.087   7.133 -0.4712 -0.4186 -0.2141
   7123SM  H11F 9330   2.409   0.005   7.144  1.7949  1.6211  0.8197
   7123SM  H11G 9331   2.370   0.174   7.072 -1.5050  1.2469  1.4771
   7123SM  C12F 9332   2.212   0.024   7.073  0.4640 -1.1608  0.0513
   7123SM  H12F 9333   2.126   0.094   7.073  1.7492  0.4660  0.8434
   7123SM  H12G 9334   2.178  -0.062   7.135 -1.3755 -0.6960 -0.2482
   7123SM  C13F 9335   2.221  -0.024   6.931  0.2781  0.5669  0.5950
   7123SM  H13F 9336   2.327  -0.052   6.911 -0.2409 -1.0981  0.0325
   7123SM  H13G 9337   2.203   0.060   6.860  1.0356  2.0275  2.0470
   7123SM  C14F 9338   2.118  -0.133   6.889 -0.1364  0.6567 -0.0753
   7123SM  H14F 9339   2.021  -0.095   6.927  0.0453  0.1676  0.8854
   7123SM  H14G 9340   2.137  -0.233   6.933 -0.0223  0.9164  0.4768
   7123SM  C15F 9341   2.093  -0.140   6.733  0.2684 -0.0645 -0.1987
   7123SM  H15F 9342   2.056  -0.043   6.694  3.5938  2.3175  2.0927
   7123SM  H15G 9343   2.022  -0.226   6.723  1.7032 -1.0924 -2.2644
   7123SM  C16F 9344   2.226  -0.169   6.659 -0.5099  0.1679 -0.3308
   7123SM  H16F 9345   2.266  -0.269   6.685 -4.1708 -1.4867 -0.4637
   7123SM  H16G 9346   2.294  -0.083   6.676 -1.3725  0.5137  1.6276
   7123SM  C17F 9347   2.207  -0.169   6.504  0.3326  0.2450 -0.0547
   7123SM  H17F 9348   2.160  -0.073   6.476 -0.8835  0.1867  1.6194
   7123SM  H17G 9349   2.156  -0.262   6.468  1.0751 -0.3236  0.3331
   7123SM  C18F 9350   2.341  -0.186   6.431 -0.2471  0.7341 -0.5008
   7123SM  H18F 9351   2.398  -0.281   6.433  0.7891  1.3205 -0.9809
   7123SM  H18G 9352   2.413  -0.121   6.486 -2.0200  0.3254  2.5223
   7123SM  C19F 9353   2.332  -0.148   6.285  0.3643 -0.0936  0.2345
   7123SM  H19F 9354   2.427  -0.126   6.232 -0.2116  1.7997 -0.0739
   7123SM  H19G 9355   2.279  -0.051   6.278  1.4487  0.7071  2.1878
   7123SM  C20F 9356   2.258  -0.261   6.208 -0.0720 -0.5677  0.0733
   7123SM  H20F 9357   2.150  -0.270   6.233 -0.3953  0.3396 -0.9282
   7123SM  H20G 9358   2.296  -0.361   6.241  0.1020 -1.2683 -2.1060
   7123SM  C21F 9359   2.279  -0.242   6.058 -0.0693 -0.0192  0.3731
   7123SM  H21F 9360   2.389  -0.244   6.040  0.0932  3.5411  0.3050
   7123SM  H21G 9361   2.239  -0.142   6.031 -0.7040 -0.2461  0.4645
   7123SM  C22F 9362   2.200  -0.359   5.988 -0.0714 -0.3071  0.0419
   7123SM  H22F 9363   2.093  -0.350   6.017 -0.0284 -1.2234  0.5069
   7123SM  H22G 9364   2.242  -0.456   6.021  0.0946 -0.2585 -0.0227
   7123SM  C23F 9365   2.209  -0.352   5.833  0.3237 -0.3065  1.0089
   7123SM  H23F 9366   2.161  -0.439   5.783  1.5530 -0.1876 -0.4561
   7123SM  H23G 9367   2.316  -0.354   5.804  0.9343  0.8820  3.0190
   7123SM  H23H 9368   2.165  -0.256   5.799  2.4671  0.6415  0.7961
   7223SM     N 9369   6.520   3.475   8.992  0.1453 -0.4183  0.0067
   7223SM   C15 9370   6.651   3.420   8.968 -0.1312  0.6117 -0.3048
   7223SM  H15A 9371   6.640   3.312   8.962  2.4036  0.2940 -0.3350
   7223SM  H15B 9372   6.711   3.430   9.057 -1.7231  0.9168  0.7680
   7223SM  H15C 9373   6.718   3.448   8.887 -0.5836 -1.6547 -1.5616
   7223SM   C14 9374   6.524   3.622   9.011  0.1275 -0.3429  0.3312
   7223SM  H14A 9375   6.425   3.661   9.029  0.8275  2.0491 -0.6080
   7223SM  H14B 9376   6.572   3.672   8.928  2.5403 -1.3150  1.0621
   7223SM  H14C 9377   6.584   3.652   9.095  0.8051 -2.3003  0.5856
   7223SM   C13 9378   6.433   3.452   8.870  0.1246  0.1954 -0.8223
   7223SM  H13A 9379   6.488   3.494   8.787  1.0295 -1.0182 -0.8700
   7223SM  H13B 9380   6.338   3.502   8.877  0.3329  0.6370 -1.1030
   7223SM  H13C 9381   6.414   3.347   8.850 -0.8962  0.2582 -0.2268
   7223SM   C12 9382   6.463   3.414   9.115 -1.2395  0.1201  1.4229
   7223SM  H12A 9383   6.370   3.467   9.132  0.7270  3.5119  2.3972
   7223SM  H12B 9384   6.522   3.444   9.200  1.5392 -0.5538 -0.1717
   7223SM   C11 9385   6.456   3.261   9.131  0.0694  1.4061  0.3903
   7223SM  H11A 9386   6.411   3.230   9.228  2.5596  0.0444  1.2057
   7223SM  H11B 9387   6.560   3.221   9.134  0.1787  1.7501  1.4917
   7223SM     P 9388   6.341   3.051   9.018 -0.0826  0.1729  0.1699
   7223SM   O13 9389   6.450   2.981   9.094 -0.1087  0.3491  0.4094
   7223SM   O14 9390   6.206   3.034   9.077  0.6231 -0.5768 -0.4073
   7223SM   O11 9391   6.346   3.023   8.865  0.0851  0.0241  0.3015
   7223SM   O12 9392   6.376   3.200   9.023  0.0890  0.0183 -0.0719
   7223SM   C1S 9393   6.461   3.081   8.799 -0.6933  0.3894  0.2659
   7223SM   H1S 9394   6.548   3.013   8.817 -2.6008 -2.4853 -0.7172
   7223SM   H1T 9395   6.490   3.183   8.831  2.2360  0.0290 -0.8999
   7223SM    NF 9396   6.555   3.150   8.579  0.0423  0.1048 -0.2669
   7223SM   HNF 9397   6.561   3.245   8.549  0.1931 -0.1815 -1.1735
   7223SM   C2S 9398   6.434   3.098   8.647  0.2627  0.4190 -1.4581
   7223SM   H2S 9399   6.408   3.000   8.602 -1.3272  0.0851  0.0631
   7223SM   C3S 9400   6.317   3.199   8.630  0.0350 -0.7740 -0.2753
   7223SM   H3S 9401   6.352   3.295   8.672 -1.4637 -0.4272  0.2805
   7223SM    O3 9402   6.199   3.178   8.711 -0.4611  0.2727 -0.2809
   7223SM   HO3 9403   6.219   3.120   8.784 -1.1163  0.3661 -0.0173
   7223SM   C4S 9404   6.291   3.223   8.482  0.7383  0.0233 -0.2658
   7223SM   H4S 9405   6.314   3.321   8.437 -0.4774 -0.4116 -1.9519
   7223SM   C5S 9406   6.219   3.141   8.406 -0.5480 -0.4140  0.2067
   7223SM   H5S 9407   6.185   3.049   8.457  1.0003 -1.3337 -0.3427
   7223SM   C6S 9408   6.180   3.150   8.260 -0.0888  0.5321 -0.1701
   7223SM   H6S 9409   6.236   3.233   8.211  1.2168  0.1148  0.5653
   7223SM   H6T 9410   6.080   3.197   8.265 -0.2849 -0.0238  2.0942
   7223SM   C7S 9411   6.184   3.018   8.179  0.1613 -1.0045  0.2106
   7223SM   H7S 9412   6.129   2.935   8.228 -0.9981  0.1721  0.9705
   7223SM   H7T 9413   6.286   2.979   8.162  1.0931  0.5915  1.7718
   7223SM   C8S 9414   6.117   3.041   8.044  0.0046  0.0003  0.4576
   7223SM   H8S 9415   6.164   3.132   7.999 -1.2210  0.8299  0.7984
   7223SM   H8T 9416   6.008   3.057   8.057 -0.2062 -2.5996  2.8022
   7223SM   C9S 9417   6.126   2.924   7.936  1.1629  0.4336 -0.0312
   7223SM   H9S 9418   6.082   2.831   7.978  0.0622  1.2464  0.6677
   7223SM   H9T 9419   6.234   2.903   7.919  0.7025 -2.1659 -0.0182
   7223SM  C10S 9420   6.068   2.958   7.792  0.3965  0.1465  0.8216
   7223SM  H10S 9421   6.139   3.036   7.758 -1.0018  2.3237  2.6120
   7223SM  H10T 9422   5.962   2.991   7.795  0.3165 -0.1663  2.0920
   7223SM  C11S 9423   6.067   2.835   7.697  0.1320 -0.6111  0.5174
   7223SM  H11S 9424   5.971   2.780   7.691  1.1725 -2.4196 -0.4252
   7223SM  H11T 9425   6.146   2.773   7.743  0.4626 -0.5463  0.0407
   7223SM  C12S 9426   6.114   2.866   7.554  0.8675 -0.0901 -0.5021
   7223SM  H12S 9427   6.200   2.934   7.566  1.1122 -0.3459 -0.8102
   7223SM  H12T 9428   6.032   2.919   7.501  2.6664  1.6804 -1.6571
   7223SM  C13S 9429   6.138   2.747   7.458  0.8164  0.5870 -0.0140
   7223SM  H13S 9430   6.036   2.714   7.432  1.1945 -1.3734  0.7959
   7223SM  H13T 9431   6.182   2.667   7.522 -1.4049  0.4235  1.3927
   7223SM  C14S 9432   6.214   2.788   7.331  0.1831 -0.3651  0.0397
   7223SM  H14S 9433   6.323   2.812   7.339  0.0062  0.2499  0.7742
   7223SM  H14T 9434   6.167   2.882   7.295 -1.4551 -1.4390 -0.7412
   7223SM  C15S 9435   6.199   2.667   7.235  0.1603  0.0100  0.2231
   7223SM  H15S 9436   6.111   2.602   7.253  1.8837 -2.7590 -0.7728
   7223SM  H15T 9437   6.278   2.591   7.249  0.0978  0.0919  1.1178
   7223SM  C16S 9438   6.185   2.708   7.088  0.5017 -0.1371 -0.7009
   7223SM  H16S 9439   6.274   2.769   7.059  0.2908 -0.4487 -2.0921
   7223SM  H16T 9440   6.089   2.762   7.077 -0.8925 -2.1290  0.9877
   7223SM  C17S 9441   6.180   2.588   6.996 -0.1089 -0.3933  0.3933
   7223SM  H17S 9442   6.106   2.511   7.028 -0.3518 -0.1612  0.3967
   7223SM  H17T 9443   6.285   2.552   7.000  0.3916  0.8808 -0.6199
   7223SM  C18S 9444   6.139   2.613   6.850  0.4638  0.3039 -0.1378
   7223SM  H18S 9445   6.158   2.517   6.798  2.8229  0.1959  0.8237
   7223SM  H18T 9446   6.212   2.685   6.806  0.0701  1.0027  0.3287
   7223SM  H18U 9447   6.029   2.633   6.844  0.5461  0.6660 -0.4913
   7223SM   C1F 9448   6.665   3.074   8.565  0.1267 -0.5892 -0.1793
   7223SM    OF 9449   6.669   2.965   8.622  0.2495  0.1796 -0.2314
   7223SM   C2F 9450   6.783   3.141   8.505 -0.8908  0.3702  0.3667
   7223SM   H2F 9451   6.866   3.105   8.569  0.7182 -0.8998 -2.2417
   7223SM   H2G 9452   6.763   3.250   8.510 -1.5515  0.6741 -4.2469
   7223SM   C3F 9453   6.815   3.097   8.360  0.2847  0.5491 -0.1519
   7223SM   H3F 9454   6.854   2.994   8.353  2.0478  1.1079  0.8578
   7223SM   H3G 9455   6.900   3.163   8.333 -0.1809  1.6438  0.9816
   7223SM   C4F 9456   6.712   3.120   8.243  0.3830 -0.3548  0.0020
   7223SM   H4F 9457   6.620   3.063   8.266 -0.5327  1.3329  0.7475
   7223SM   H4G 9458   6.760   3.095   8.146 -0.1996  1.1557 -0.7071
   7223SM   C5F 9459   6.681   3.267   8.222 -0.4956 -0.2595  0.4892
   7223SM   H5F 9460   6.781   3.314   8.229 -0.8730  0.5862  0.2289
   7223SM   H5G 9461   6.615   3.309   8.301  0.2939  0.1041  0.9688
   7223SM   C6F 9462   6.626   3.289   8.086 -0.1111 -0.1859  0.5015
   7223SM   H6F 9463   6.701   3.250   8.014  0.5918  1.6185  0.2028
   7223SM   H6G 9464   6.626   3.396   8.056  1.0393 -0.8992 -2.3877
   7223SM   C7F 9465   6.481   3.238   8.069  0.1229  0.8031  0.2546
   7223SM   H7F 9466   6.415   3.299   8.134  0.7111  1.6351  0.0921
   7223SM   H7G 9467   6.474   3.131   8.096 -1.3254  0.9065  0.3454
   7223SM   C8F 9468   6.427   3.261   7.931  0.0103  0.1139 -0.1498
   7223SM   H8F 9469   6.446   3.365   7.896 -0.4604  0.6146  1.0270
   7223SM   H8G 9470   6.318   3.237   7.933 -0.9849  4.0476  0.6454
   7223SM   C9F 9471   6.495   3.167   7.831  0.1096 -0.1196 -0.5031
   7223SM   H9F 9472   6.496   3.062   7.866 -0.6380 -0.1768 -0.6405
   7223SM   H9G 9473   6.600   3.204   7.834  1.3254 -3.2291 -0.8192
   7223SM  C10F 9474   6.423   3.172   7.698 -0.3377  0.5753 -0.3596
   7223SM  H10F 9475   6.381   3.272   7.674 -0.9090  0.6600  0.9226
   7223SM  H10G 9476   6.335   3.104   7.706 -0.0655  0.2582 -0.0265
   7223SM  C11F 9477   6.513   3.125   7.580 -0.1466 -0.7229 -0.9921
   7223SM  H11F 9478   6.558   3.027   7.604  0.2120 -0.1638  0.7762
   7223SM  H11G 9479   6.595   3.198   7.565 -0.7842  0.0319 -0.8771
   7223SM  C12F 9480   6.440   3.113   7.449 -0.7146 -0.0769 -0.5485
   7223SM  H12F 9481   6.375   3.201   7.429 -2.8147 -1.7066 -1.3313
   7223SM  H12G 9482   6.359   3.038   7.466  0.0037 -0.8688 -0.5689
   7223SM  C13F 9483   6.532   3.075   7.327  0.5177  0.4866 -0.2369
   7223SM  H13F 9484   6.541   2.965   7.339 -1.0748  0.2287 -1.1826
   7223SM  H13G 9485   6.635   3.115   7.339  1.0239 -0.3889 -1.4699
   7223SM  C14F 9486   6.465   3.086   7.192  0.1921  1.1956 -1.4968
   7223SM  H14F 9487   6.482   3.184   7.143 -0.4234  1.7700 -0.6058
   7223SM  H14G 9488   6.357   3.062   7.203  0.9440 -1.5602  1.7533
   7223SM  C15F 9489   6.536   2.980   7.106 -0.2447 -0.2683 -0.3251
   7223SM  H15F 9490   6.512   2.878   7.143  1.5667 -0.0129  1.7958
   7223SM  H15G 9491   6.644   3.006   7.112 -0.2856 -0.3037  0.7111
   7223SM  C16F 9492   6.487   2.999   6.960  0.1369 -0.4124  0.0255
   7223SM  H16F 9493   6.524   3.094   6.918  1.2635 -0.6460  0.4575
   7223SM  H16G 9494   6.376   3.004   6.968  0.2191  2.0874  0.2211
   7223SM  C17F 9495   6.511   2.890   6.861 -0.1595 -0.7129 -0.0649
   7223SM  H17F 9496   6.447   2.802   6.886  0.3978 -0.2463  3.3840
   7223SM  H17G 9497   6.615   2.852   6.861 -0.6461 -2.3642 -3.0149
   7223SM  C18F 9498   6.489   2.930   6.714  0.4382  0.7154  0.6240
   7223SM  H18F 9499   6.531   2.855   6.643  2.0340  0.9791  1.2502
   7223SM  H18G 9500   6.547   3.021   6.689  2.3790 -0.4253  0.8387
   7223SM  C19F 9501   6.334   2.950   6.688  0.8541  0.3531 -0.1268
   7223SM  H19F 9502   6.292   3.014   6.769  0.0845 -0.4082  0.0846
   7223SM  H19G 9503   6.291   2.848   6.696 -0.5135  0.9115 -0.2246
   7223SM  C20F 9504   6.286   3.014   6.561 -0.5584  0.2616  0.9998
   7223SM  H20F 9505   6.177   3.032   6.569 -0.8634 -1.4051  1.0101
   7223SM  H20G 9506   6.303   2.942   6.478  0.8836 -0.3411  1.7843
   7223SM  C21F 9507   6.351   3.147   6.524 -0.2139 -0.2187 -0.7194
   7223SM  H21F 9508   6.462   3.149   6.518 -0.1975  1.8894 -0.5493
   7223SM  H21G 9509   6.309   3.205   6.609 -3.0686  0.6731 -2.5942
   7223SM  C22F 9510   6.287   3.206   6.393 -0.8177 -0.3468  0.1248
   7223SM  H22F 9511   6.179   3.208   6.419 -0.3502  1.1844  2.1912
   7223SM  H22G 9512   6.310   3.121   6.325 -0.4551 -1.7950  1.9873
   7223SM  C23F 9513   6.353   3.337   6.348  0.4156  0.5759 -0.5100
   7223SM  H23F 9514   6.460   3.321   6.322  0.5734  1.4749 -0.4464
   7223SM  H23G 9515   6.340   3.404   6.435 -1.2256  0.0479 -0.3234
   7223SM  H23H 9516   6.302   3.376   6.257  0.7431  0.0595 -0.9249
   7323SM     N 9517   5.097   2.762   8.552  0.0744  0.0098 -0.5071
   7323SM   C15 9518   4.975   2.739   8.638  0.3564  0.0700 -0.0022
   7323SM  H15A 9519   4.893   2.680   8.598  0.1696  1.4578 -1.8076
   7323SM  H15B 9520   4.933   2.831   8.676 -0.1885 -0.7328  1.4035
   7323SM  H15C 9521   5.008   2.674   8.718 -0.6600 -1.4895 -0.7996
   7323SM   C14 9522   5.055   2.831   8.424  0.2776  0.3772 -0.5927
   7323SM  H14A 9523   5.130   2.867   8.356  0.6650  1.3100  0.3023
   7323SM  H14B 9524   4.987   2.911   8.449 -2.1092 -2.0090  1.2114
   7323SM  H14C 9525   4.986   2.763   8.375 -1.9211  1.5316  0.7408
   7323SM   C13 9526   5.196   2.853   8.620 -0.7894 -0.8035 -0.1653
   7323SM  H13A 9527   5.231   2.815   8.715 -2.5357  0.3261  0.9884
   7323SM  H13B 9528   5.143   2.940   8.655  1.1815  0.4468 -0.1004
   7323SM  H13C 9529   5.273   2.893   8.556 -1.6040  1.2260  0.0577
   7323SM   C12 9530   5.159   2.620   8.513  0.6600  0.0772 -0.0404
   7323SM  H12A 9531   5.256   2.648   8.476  1.0106  4.0534  3.1778
   7323SM  H12B 9532   5.088   2.579   8.442  1.3215  0.5845 -1.0120
   7323SM   C11 9533   5.184   2.504   8.616 -0.1534  0.3397 -0.2123
   7323SM  H11A 9534   5.251   2.538   8.697 -2.2122  2.0136  0.8990
   7323SM  H11B 9535   5.233   2.427   8.553 -1.5796 -0.1892 -0.7243
   7323SM     P 9536   5.081   2.311   8.754  0.2904 -0.0153 -0.0633
   7323SM   O13 9537   5.192   2.328   8.851  0.2162  0.2917 -0.2093
   7323SM   O14 9538   4.945   2.268   8.804 -0.0062  0.2874 -0.2998
   7323SM   O11 9539   5.131   2.217   8.634  0.4151 -0.2081 -0.2491
   7323SM   O12 9540   5.064   2.453   8.674 -0.2754  0.2198 -0.0098
   7323SM   C1S 9541   5.063   2.088   8.622  0.1565 -0.4883  0.5954
   7323SM   H1S 9542   4.954   2.104   8.609  0.2735  0.1944  0.4343
   7323SM   H1T 9543   5.083   2.023   8.710 -0.0456 -2.9713 -1.1018
   7323SM    NF 9544   5.020   1.891   8.476 -0.4507  0.7094 -0.5052
   7323SM   HNF 9545   5.051   1.797   8.465 -4.0807 -0.7425  0.2845
   7323SM   C2S 9546   5.115   1.997   8.498  0.0111 -0.0151 -0.5600
   7323SM   H2S 9547   5.099   2.063   8.410  0.3894  0.5230 -0.2289
   7323SM   C3S 9548   5.260   1.955   8.501  0.5182 -0.6667 -0.1001
   7323SM   H3S 9549   5.286   1.894   8.590  0.7631 -1.4666 -0.7041
   7323SM    O3 9550   5.334   2.075   8.537 -0.2042  0.8134  0.1318
   7323SM   HO3 9551   5.266   2.133   8.572 -0.9603 -0.1685  0.3349
   7323SM   C4S 9552   5.312   1.893   8.385  0.7517  0.1770  0.7487
   7323SM   H4S 9553   5.313   1.783   8.393 -1.9690  0.1476  1.7872
   7323SM   C5S 9554   5.359   1.950   8.269  0.5170  0.1418 -0.6556
   7323SM   H5S 9555   5.369   2.059   8.257  1.9339  0.5720  3.0780
   7323SM   C6S 9556   5.417   1.882   8.145 -0.1887  0.0253 -0.4101
   7323SM   H6S 9557   5.402   1.772   8.154  1.5366 -0.2185 -0.1542
   7323SM   H6T 9558   5.526   1.905   8.134 -0.0739  0.7337  1.7341
   7323SM   C7S 9559   5.341   1.924   8.014 -0.4281 -0.0206  0.1977
   7323SM   H7S 9560   5.355   2.034   8.005  2.3567 -0.3396 -0.4047
   7323SM   H7T 9561   5.236   1.892   8.023  0.0425 -0.9685  4.4812
   7323SM   C8S 9562   5.414   1.881   7.881  0.0924  1.0361 -0.2896
   7323SM   H8S 9563   5.451   1.778   7.895 -0.4131  0.7504 -0.9967
   7323SM   H8T 9564   5.511   1.935   7.875  2.1773 -2.2502  1.2336
   7323SM   C9S 9565   5.320   1.901   7.761  0.2363  0.0581  0.0048
   7323SM   H9S 9566   5.302   2.010   7.746  1.2502  0.0956 -1.0170
   7323SM   H9T 9567   5.226   1.844   7.777  0.2851 -0.2882 -0.9084
   7323SM  C10S 9568   5.393   1.851   7.640  0.7168 -0.2182 -0.3947
   7323SM  H10S 9569   5.394   1.740   7.648 -0.0117 -0.4744 -3.1352
   7323SM  H10T 9570   5.500   1.883   7.637  1.3835 -2.2412 -0.1926
   7323SM  C11S 9571   5.307   1.881   7.516  0.1660 -0.8511  0.6302
   7323SM  H11S 9572   5.293   1.990   7.502 -0.7516 -0.9065  1.0719
   7323SM  H11T 9573   5.203   1.846   7.534 -0.7270  2.5197  2.8847
   7323SM  C12S 9574   5.364   1.833   7.387 -0.8578 -0.8750  0.6910
   7323SM  H12S 9575   5.364   1.722   7.384  2.5359 -0.9548  0.3584
   7323SM  H12T 9576   5.469   1.867   7.380 -1.6783  1.9855  1.0300
   7323SM  C13S 9577   5.278   1.869   7.269 -0.1791  0.1022 -0.0959
   7323SM  H13S 9578   5.284   1.979   7.258 -0.3044  0.1149 -0.0311
   7323SM  H13T 9579   5.176   1.835   7.297 -0.5392  1.0571 -0.2301
   7323SM  C14S 9580   5.331   1.811   7.142 -0.2911 -0.6987  0.7778
   7323SM  H14S 9581   5.370   1.707   7.137  0.7120 -0.2564 -3.2105
   7323SM  H14T 9582   5.410   1.881   7.109 -2.5318  2.1220  0.9609
   7323SM  C15S 9583   5.220   1.824   7.033  0.2722 -0.3766 -0.1801
   7323SM  H15S 9584   5.198   1.932   7.042 -1.3127 -0.7740  1.0956
   7323SM  H15T 9585   5.136   1.754   7.051 -1.4378  1.0837 -2.1557
   7323SM  C16S 9586   5.277   1.802   6.895 -0.0519 -0.3488  0.6380
   7323SM  H16S 9587   5.310   1.699   6.874 -0.3225 -0.5382  1.1314
   7323SM  H16T 9588   5.375   1.854   6.884 -0.0822 -0.0494  1.6695
   7323SM  C17S 9589   5.184   1.839   6.781 -0.4005 -0.1361 -0.6652
   7323SM  H17S 9590   5.116   1.752   6.773 -0.3541 -0.0494 -2.2928
   7323SM  H17T 9591   5.242   1.840   6.687  0.8478  2.7015  0.0228
   7323SM  C18S 9592   5.098   1.962   6.787 -0.5047  0.2767  0.0615
   7323SM  H18S 9593   5.031   1.968   6.699 -1.0689 -0.1229  0.4570
   7323SM  H18T 9594   5.162   2.053   6.791 -0.2838  0.0981  0.9296
   7323SM  H18U 9595   5.033   1.954   6.877  0.1955 -0.6276  0.5085
   7323SM   C1F 9596   4.893   1.908   8.439 -0.1307  0.1927 -0.8267
   7323SM    OF 9597   4.839   2.014   8.442  0.0956 -0.1755 -0.0820
   7323SM   C2F 9598   4.827   1.787   8.402  0.5989  0.1576  0.6260
   7323SM   H2F 9599   4.812   1.719   8.489  0.7923 -1.3008 -0.4536
   7323SM   H2G 9600   4.895   1.734   8.332 -0.2113  0.6787 -0.5878
   7323SM   C3F 9601   4.704   1.800   8.324  0.0002  0.0608  0.2056
   7323SM   H3F 9602   4.625   1.862   8.371  0.7620  1.0570  0.1989
   7323SM   H3G 9603   4.664   1.696   8.319 -0.6023  0.3203 -0.5586
   7323SM   C4F 9604   4.724   1.845   8.181  0.8384  0.1377 -0.6557
   7323SM   H4F 9605   4.805   1.795   8.124  2.7622  2.6323 -0.2720
   7323SM   H4G 9606   4.754   1.952   8.183 -1.7578  0.9902 -2.1691
   7323SM   C5F 9607   4.595   1.840   8.094 -0.1972  0.0501 -0.0592
   7323SM   H5F 9608   4.627   1.870   7.991  1.5113 -0.1143  0.3981
   7323SM   H5G 9609   4.522   1.910   8.139  1.3663  0.6633  1.6541
   7323SM   C6F 9610   4.526   1.703   8.074  0.3627  0.2461 -0.2562
   7323SM   H6F 9611   4.444   1.716   7.999  1.4686  1.1880 -1.3515
   7323SM   H6G 9612   4.487   1.676   8.174  0.5887  0.8539  0.0023
   7323SM   C7F 9613   4.608   1.592   8.011  0.5534 -0.0341 -0.9058
   7323SM   H7F 9614   4.587   1.503   8.075 -1.1790  0.8091 -0.2477
   7323SM   H7G 9615   4.714   1.625   8.013  1.0094 -1.4354 -0.8466
   7323SM   C8F 9616   4.579   1.555   7.862 -0.3256  0.5607  0.6268
   7323SM   H8F 9617   4.678   1.529   7.818 -0.7970 -0.8730  0.3652
   7323SM   H8G 9618   4.539   1.640   7.803 -2.8710 -0.2538  1.0674
   7323SM   C9F 9619   4.486   1.435   7.838 -0.7900  0.3732  0.2682
   7323SM   H9F 9620   4.393   1.462   7.892  0.1469  2.8388  0.7760
   7323SM   H9G 9621   4.538   1.347   7.882 -1.5166  0.1647  0.7238
   7323SM  C10F 9622   4.471   1.402   7.689  0.2710 -0.3857 -0.2533
   7323SM  H10F 9623   4.570   1.367   7.650  0.3213 -0.9552  0.3582
   7323SM  H10G 9624   4.444   1.496   7.636 -1.1775  0.8601  2.5060
   7323SM  C11F 9625   4.354   1.303   7.658 -0.4001  0.0050  0.3824
   7323SM  H11F 9626   4.259   1.350   7.690 -1.2433 -0.3140 -1.5381
   7323SM  H11G 9627   4.374   1.207   7.710 -0.0282 -0.3149 -0.3311
   7323SM  C12F 9628   4.344   1.275   7.509 -0.2636  0.4668 -0.9357
   7323SM  H12F 9629   4.435   1.219   7.479 -1.1301 -2.1117  0.9653
   7323SM  H12G 9630   4.341   1.371   7.453  2.0480  1.3061  0.2586
   7323SM  C13F 9631   4.219   1.200   7.471 -0.0843 -0.0793 -0.2706
   7323SM  H13F 9632   4.131   1.263   7.499  1.6734  2.1809  0.5578
   7323SM  H13G 9633   4.209   1.107   7.530 -2.3742  0.7852  0.8626
   7323SM  C14F 9634   4.207   1.160   7.320  0.6405 -0.7502 -0.8610
   7323SM  H14F 9635   4.305   1.117   7.292  2.2957  2.4756 -0.4872
   7323SM  H14G 9636   4.208   1.258   7.268 -2.0165 -0.0536  0.2294
   7323SM  C15F 9637   4.088   1.074   7.291 -0.1634 -1.0359 -0.0194
   7323SM  H15F 9638   4.099   0.977   7.343  2.5216  0.1932  1.9372
   7323SM  H15G 9639   4.083   1.048   7.183  0.7098 -1.7551  0.1059
   7323SM  C16F 9640   3.946   1.142   7.330 -0.5830 -0.1270  0.3899
   7323SM  H16F 9641   3.936   1.243   7.285  1.3353  0.0393  0.2598
   7323SM  H16G 9642   3.947   1.166   7.439  0.3524 -0.2099  0.4071
   7323SM  C17F 9643   3.821   1.057   7.324  0.0443  1.1178 -0.9463
   7323SM  H17F 9644   3.730   1.099   7.373 -0.6486 -2.1479  0.8913
   7323SM  H17G 9645   3.822   0.963   7.383 -2.8603  0.6250 -1.5584
   7323SM  C18F 9646   3.777   1.035   7.184 -0.1104 -0.3356  0.4972
   7323SM  H18F 9647   3.864   0.996   7.126  1.1022  0.3820  1.7591
   7323SM  H18G 9648   3.762   1.139   7.150  0.5014  0.9665  3.8907
   7323SM  C19F 9649   3.652   0.951   7.178  0.3347  0.6071  0.4977
   7323SM  H19F 9650   3.578   0.984   7.254  0.6993 -0.8693  1.5336
   7323SM  H19G 9651   3.668   0.844   7.204 -0.1677  0.9879  2.5552
   7323SM  C20F 9652   3.592   0.961   7.038 -0.1140 -0.1168  0.5258
   7323SM  H20F 9653   3.664   0.931   6.959 -0.7251 -1.5896  0.4952
   7323SM  H20G 9654   3.580   1.071   7.027 -2.5361 -0.3973 -0.2687
   7323SM  C21F 9655   3.459   0.883   7.018 -0.0705  0.0623 -0.3507
   7323SM  H21F 9656   3.401   0.926   6.934  0.0671  2.7755  0.8528
   7323SM  H21G 9657   3.399   0.904   7.109 -0.6273 -0.7263 -0.5272
   7323SM  C22F 9658   3.483   0.733   6.997 -0.0770 -0.4960 -0.0492
   7323SM  H22F 9659   3.542   0.682   7.077  1.7488 -1.7566 -2.0818
   7323SM  H22G 9660   3.535   0.715   6.901 -0.6816  2.5465 -1.0359
   7323SM  C23F 9661   3.351   0.660   7.007 -0.0331 -0.6989 -0.8644
   7323SM  H23F 9662   3.361   0.549   7.006 -1.3445 -0.8592  0.5731
   7323SM  H23G 9663   3.284   0.693   6.925 -0.1844  2.4921  0.4237
   7323SM  H23H 9664   3.295   0.684   7.100 -0.4850 -1.9303 -0.7993
   7423SM     N 9665   7.015   4.953   8.917  0.1774  0.7182  0.7902
   7423SM   C15 9666   7.002   4.812   8.964  0.0831  0.0054  0.6438
   7423SM  H15A 9667   7.084   4.760   8.917  1.3403  3.4686 -1.3641
   7423SM  H15B 9668   6.907   4.774   8.929 -0.0976 -0.0488  1.1857
   7423SM  H15C 9669   6.999   4.808   9.072 -2.3386  1.8533  0.7302
   7423SM   C14 9670   6.892   5.014   8.966  0.2833  1.0900  0.0784
   7423SM  H14A 9671   6.814   4.984   8.898 -0.1602 -0.4534  1.1986
   7423SM  H14B 9672   6.888   5.121   8.963  0.2436  1.0607 -1.6690
   7423SM  H14C 9673   6.859   4.989   9.066 -2.4009  2.8569 -0.2582
   7423SM   C13 9674   7.132   5.014   8.982  0.3669 -0.0756  0.3946
   7423SM  H13A 9675   7.225   4.971   8.947 -0.0849  0.5102 -1.6310
   7423SM  H13B 9676   7.125   5.004   9.089 -1.2837  2.7807  0.6559
   7423SM  H13C 9677   7.129   5.119   8.960  0.9296  0.0950  1.1242
   7423SM   C12 9678   7.024   4.977   8.764 -0.0647 -0.3935  0.1758
   7423SM  H12A 9679   7.123   4.939   8.741  0.6080 -0.3831  2.7767
   7423SM  H12B 9680   7.026   5.083   8.744 -2.7412 -0.4864 -1.0769
   7423SM   C11 9681   6.916   4.915   8.678 -0.4179 -0.1535  0.5161
   7423SM  H11A 9682   6.922   4.807   8.703 -1.2434 -0.5262 -0.7628
   7423SM  H11B 9683   6.940   4.918   8.569 -2.0393 -2.0435  0.0582
   7423SM     P 9684   6.757   5.118   8.651  0.0665 -0.2903 -0.0705
   7423SM   O13 9685   6.653   5.173   8.742  0.0206  0.4449 -0.7490
   7423SM   O14 9686   6.880   5.197   8.634 -0.0065 -0.2586 -0.0954
   7423SM   O11 9687   6.692   5.068   8.516 -0.3473  0.7103 -0.0619
   7423SM   O12 9688   6.790   4.973   8.707 -0.1242 -0.3422 -0.0875
   7423SM   C1S 9689   6.690   5.144   8.393  0.2143 -0.1801  0.1094
   7423SM   H1S 9690   6.750   5.236   8.407 -1.0810  0.6293  0.4481
   7423SM   H1T 9691   6.596   5.194   8.365  0.2532  0.3061  0.8345
   7423SM    NF 9692   6.736   5.147   8.144  0.3516  0.1300 -0.5722
   7423SM   HNF 9693   6.658   5.134   8.083  0.2493  0.4101 -0.5024
   7423SM   C2S 9694   6.746   5.065   8.265 -0.2111 -0.1946  0.0944
   7423SM   H2S 9695   6.855   5.055   8.285  0.1437  1.9325 -0.4669
   7423SM   C3S 9696   6.688   4.922   8.256 -0.2504  0.4393 -0.1282
   7423SM   H3S 9697   6.580   4.932   8.231 -0.4832  0.4284  0.8496
   7423SM    O3 9698   6.679   4.850   8.378 -0.1267  0.2423  0.3516
   7423SM   HO3 9699   6.681   4.913   8.451 -0.0787 -0.6057  1.1048
   7423SM   C4S 9700   6.752   4.839   8.144  0.0552  0.8760  0.1036
   7423SM   H4S 9701   6.696   4.852   8.050  2.9150  1.0602 -1.7074
   7423SM   C5S 9702   6.859   4.768   8.152 -0.9106  1.1808 -0.2744
   7423SM   H5S 9703   6.916   4.778   8.246  0.4271  0.8701 -1.0337
   7423SM   C6S 9704   6.922   4.673   8.051  0.1282  0.0278  0.0012
   7423SM   H6S 9705   6.920   4.568   8.088 -1.6974 -0.9494 -2.6097
   7423SM   H6T 9706   7.028   4.706   8.048 -0.0943  0.7893  0.1900
   7423SM   C7S 9707   6.841   4.665   7.916  0.4981  0.5706 -0.1303
   7423SM   H7S 9708   6.834   4.767   7.872  1.9413 -0.7278 -3.8615
   7423SM   H7T 9709   6.736   4.633   7.927  0.7098 -0.8261 -1.7065
   7423SM   C8S 9710   6.910   4.564   7.814  0.4972  0.1469 -0.2000
   7423SM   H8S 9711   6.915   4.463   7.861  0.3376 -0.6419 -1.8087
   7423SM   H8T 9712   7.016   4.595   7.801  0.0034  1.3456 -1.7430
   7423SM   C9S 9713   6.836   4.566   7.683  1.2612  0.3704 -0.0637
   7423SM   H9S 9714   6.810   4.673   7.668  0.7986  0.1367 -0.9977
   7423SM   H9T 9715   6.742   4.509   7.696  0.2979  1.9764  0.3473
   7423SM  C10S 9716   6.920   4.522   7.559 -0.6931  0.5510 -0.2164
   7423SM  H10S 9717   6.976   4.428   7.581  0.8727  1.6539  0.7328
   7423SM  H10T 9718   6.994   4.603   7.541 -0.9138  0.9197  0.4653
   7423SM  C11S 9719   6.840   4.499   7.430  0.2587  0.1598 -0.4389
   7423SM  H11S 9720   6.744   4.451   7.458 -1.0007  3.0354  0.5061
   7423SM  H11T 9721   6.896   4.424   7.370 -0.1947  0.6426 -1.4778
   7423SM  C12S 9722   6.806   4.635   7.366  0.1368 -0.1249 -0.9018
   7423SM  H12S 9723   6.903   4.689   7.355 -0.3221  0.8261 -0.4128
   7423SM  H12T 9724   6.743   4.683   7.444 -2.4548 -2.1680 -1.6061
   7423SM  C13S 9725   6.725   4.618   7.239 -0.5944 -0.2405  0.1229
   7423SM  H13S 9726   6.774   4.540   7.177 -4.3442 -0.3746 -2.9814
   7423SM  H13T 9727   6.731   4.715   7.185  1.9450  0.2060  1.0548
   7423SM  C14S 9728   6.577   4.586   7.270  0.1940 -0.7890 -1.1137
   7423SM  H14S 9729   6.537   4.660   7.342  2.8907  0.4222 -0.7636
   7423SM  H14T 9730   6.570   4.488   7.322 -2.4201  0.0314  0.2663
   7423SM  C15S 9731   6.486   4.564   7.148  0.6866  0.2990 -0.2073
   7423SM  H15S 9732   6.381   4.574   7.182  0.8633 -1.7595  1.1432
   7423SM  H15T 9733   6.490   4.458   7.116  0.1583 -0.4679  2.0931
   7423SM  C16S 9734   6.498   4.661   7.035 -0.8123  0.6929 -0.4158
   7423SM  H16S 9735   6.438   4.622   6.950 -0.6679 -0.6735  0.0707
   7423SM  H16T 9736   6.601   4.667   6.996 -1.1110 -1.9166 -1.8612
   7423SM  C17S 9737   6.458   4.798   7.087  0.2818  0.3301  0.2776
   7423SM  H17S 9738   6.526   4.837   7.166  1.8261 -0.3611 -0.6640
   7423SM  H17T 9739   6.357   4.786   7.133 -0.3385  1.3089 -0.7809
   7423SM  C18S 9740   6.456   4.912   6.984 -0.3636  0.0000 -0.5087
   7423SM  H18S 9741   6.393   4.986   7.038  1.5721  0.5925  1.0236
   7423SM  H18T 9742   6.407   4.882   6.888 -2.6626 -2.6117  1.3166
   7423SM  H18U 9743   6.559   4.948   6.965  0.0456 -0.1526  1.2460
   7423SM   C1F 9744   6.811   5.256   8.131  0.0589 -0.1740 -0.0259
   7423SM    OF 9745   6.889   5.298   8.216  0.4535 -0.1120 -0.0372
   7423SM   C2F 9746   6.798   5.325   8.000 -0.2128 -0.5688 -0.7864
   7423SM   H2F 9747   6.731   5.271   7.931  2.1524 -4.1935 -0.4965
   7423SM   H2G 9748   6.898   5.316   7.954  0.1908 -1.2388  0.1888
   7423SM   C3F 9749   6.754   5.474   8.013 -0.0056 -0.3094  0.1447
   7423SM   H3F 9750   6.823   5.529   8.081  0.1988  0.2615 -0.5121
   7423SM   H3G 9751   6.651   5.471   8.053 -0.0699  1.9197  0.2852
   7423SM   C4F 9752   6.774   5.547   7.879 -0.7494 -0.1694 -0.7659
   7423SM   H4F 9753   6.877   5.526   7.843 -0.7337 -0.4417 -0.5681
   7423SM   H4G 9754   6.778   5.658   7.871 -0.2742 -0.1352 -0.1669
   7423SM   C5F 9755   6.675   5.496   7.780  0.0569 -0.4500  0.8112
   7423SM   H5F 9756   6.685   5.387   7.760 -1.0717 -0.5613  0.7937
   7423SM   H5G 9757   6.716   5.550   7.692  2.7838  0.8839  2.7728
   7423SM   C6F 9758   6.529   5.539   7.802  0.7403 -1.1933 -0.1495
   7423SM   H6F 9759   6.533   5.648   7.780  0.6717 -1.3526 -0.9874
   7423SM   H6G 9760   6.485   5.518   7.902 -1.1557  1.4021 -0.3439
   7423SM   C7F 9761   6.423   5.468   7.722 -0.0956  0.1032  1.5535
   7423SM   H7F 9762   6.326   5.501   7.764  0.3354  3.9941 -0.1215
   7423SM   H7G 9763   6.446   5.361   7.743  3.6872  1.0363  3.0312
   7423SM   C8F 9764   6.419   5.507   7.571  0.5364 -0.3074  0.6045
   7423SM   H8F 9765   6.515   5.484   7.520  0.5058 -0.9681  0.8367
   7423SM   H8G 9766   6.385   5.613   7.573 -1.3844 -0.8820 -0.2885
   7423SM   C9F 9767   6.308   5.436   7.500  0.0665  0.2867  0.3909
   7423SM   H9F 9768   6.217   5.414   7.560 -0.6699 -1.2732 -1.2085
   7423SM   H9G 9769   6.341   5.345   7.447 -0.9837  0.9738 -1.5666
   7423SM  C10F 9770   6.263   5.527   7.378 -0.3704  1.2676 -0.3468
   7423SM  H10F 9771   6.360   5.566   7.339 -0.1676  1.9126  0.7331
   7423SM  H10G 9772   6.210   5.618   7.413 -0.6898  0.3846  1.5826
   7423SM  C11F 9773   6.174   5.457   7.275  0.0429 -0.1587  0.1465
   7423SM  H11F 9774   6.142   5.523   7.191 -0.2284 -0.7529 -0.2196
   7423SM  H11G 9775   6.089   5.430   7.341  0.2757 -1.8555 -0.2060
   7423SM  C12F 9776   6.224   5.326   7.214 -0.3022 -0.2543  0.5132
   7423SM  H12F 9777   6.157   5.310   7.127 -2.4238 -2.8899  2.4679
   7423SM  H12G 9778   6.200   5.241   7.280  1.9997  0.3791  2.2927
   7423SM  C13F 9779   6.364   5.320   7.151 -0.8206  0.4199 -0.0262
   7423SM  H13F 9780   6.375   5.222   7.098 -0.8455  0.9218 -0.9786
   7423SM  H13G 9781   6.448   5.336   7.222 -1.3281 -2.5410  1.3983
   7423SM  C14F 9782   6.370   5.424   7.040 -0.8256 -0.2813 -0.6582
   7423SM  H14F 9783   6.340   5.520   7.087  3.8169  0.7200  0.7351
   7423SM  H14G 9784   6.299   5.397   6.958 -0.5941 -0.2946 -0.8555
   7423SM  C15F 9785   6.518   5.461   6.989  0.2987 -0.7618  0.0744
   7423SM  H15F 9786   6.506   5.546   6.918  0.2218  0.3930  1.4388
   7423SM  H15G 9787   6.562   5.376   6.931  2.2179 -0.2163  0.6773
   7423SM  C16F 9788   6.622   5.502   7.098  0.4239  0.5117  0.6239
   7423SM  H16F 9789   6.626   5.423   7.176 -0.2280  0.8506  1.0087
   7423SM  H16G 9790   6.593   5.596   7.149 -1.7742  1.3081 -1.8667
   7423SM  C17F 9791   6.764   5.510   7.038  0.5235  0.0054  0.2071
   7423SM  H17F 9792   6.783   5.430   6.962  1.9547 -0.0210  0.5630
   7423SM  H17G 9793   6.839   5.510   7.120 -1.0335  0.0388  1.6607
   7423SM  C18F 9794   6.799   5.645   6.976 -0.1911 -0.1044 -0.0097
   7423SM  H18F 9795   6.783   5.720   7.056 -3.1361 -1.7937  1.1607
   7423SM  H18G 9796   6.720   5.669   6.902  0.0166 -0.1914 -0.2612
   7423SM  C19F 9797   6.938   5.662   6.917 -0.4847 -0.7068 -0.4256
   7423SM  H19F 9798   6.959   5.769   6.895 -3.0526 -0.0948 -0.2462
   7423SM  H19G 9799   6.936   5.613   6.818  1.4030  0.8496 -1.2973
   7423SM  C20F 9800   7.048   5.590   6.990  0.6308  0.4207 -0.1742
   7423SM  H20F 9801   7.020   5.483   6.990  3.0890 -0.2765 -0.0086
   7423SM  H20G 9802   7.064   5.620   7.096  1.2312  1.2135 -0.4810
   7423SM  C21F 9803   7.175   5.611   6.912 -0.0417 -0.2758 -0.2778
   7423SM  H21F 9804   7.172   5.612   6.801 -0.9759 -0.1103 -0.2578
   7423SM  H21G 9805   7.239   5.528   6.948 -1.2235  0.0961  3.0582
   7423SM  C22F 9806   7.241   5.749   6.947 -0.6052  0.0510  0.3546
   7423SM  H22F 9807   7.241   5.769   7.056 -2.8922  1.8480  0.0986
   7423SM  H22G 9808   7.178   5.834   6.912  1.7025  1.6116 -0.2939
   7423SM  C23F 9809   7.384   5.751   6.884  0.3018  0.3698 -0.5784
   7423SM  H23F 9810   7.436   5.848   6.894  0.2644  0.7431 -3.1898
   7423SM  H23G 9811   7.377   5.739   6.773 -0.2841 -1.3670 -0.3807
   7423SM  H23H 9812   7.462   5.680   6.920  1.0114  1.8220  0.8789
   7523SM     N 9813   0.067   6.568   8.995  0.0854  0.4418  0.4215
   7523SM   C15 9814   0.190   6.649   8.939 -0.0614  0.0529 -0.5847
   7523SM  H15A 9815   0.252   6.584   8.879  0.1552  0.7491 -1.1360
   7523SM  H15B 9816   0.244   6.692   9.021 -0.1938  1.2170 -1.0791
   7523SM  H15C 9817   0.157   6.728   8.873  1.2874  0.2802 -1.0104
   7523SM   C14 9818   0.130   6.458   9.075 -0.1294 -0.0111 -0.0760
   7523SM  H14A 9819   0.210   6.495   9.138  0.7217 -2.2294  0.2552
   7523SM  H14B 9820   0.180   6.386   9.012  0.2972 -0.9350  1.2956
   7523SM  H14C 9821   0.052   6.402   9.124 -0.6676  0.6080 -0.2154
   7523SM   C13 9822  -0.017   6.655   9.082 -0.5291  0.2955  0.0551
   7523SM  H13A 9823  -0.109   6.605   9.106 -0.1010  0.3609  1.9581
   7523SM  H13B 9824  -0.039   6.747   9.030 -0.6424  1.4285  2.0233
   7523SM  H13C 9825   0.021   6.668   9.182  1.4434  1.0353 -0.7159
   7523SM   C12 9826  -0.009   6.509   8.881  1.0760  0.8077 -0.3675
   7523SM  H12A 9827   0.058   6.455   8.816  2.9895  1.7621  0.7118
   7523SM  H12B 9828  -0.056   6.583   8.818 -1.2738  1.4647  1.9849
   7523SM   C11 9829  -0.134   6.430   8.925 -0.3056 -0.5693  0.2655
   7523SM  H11A 9830  -0.109   6.371   9.015 -0.5292  0.1848  0.8341
   7523SM  H11B 9831  -0.166   6.364   8.841 -1.2260  0.8392 -0.5373
   7523SM     P 9832  -0.329   6.590   8.849  0.1095 -0.4503 -0.4994
   7523SM   O13 9833  -0.472   6.544   8.875  0.2922  0.1064  0.4120
   7523SM   O14 9834  -0.312   6.733   8.857 -0.2220  0.0313 -0.5816
   7523SM   O11 9835  -0.269   6.547   8.712  0.3992 -0.0781  0.1207
   7523SM   O12 9836  -0.243   6.523   8.959  0.0505  0.5469 -0.1856
   7523SM   C1S 9837  -0.340   6.453   8.629 -0.3206  0.4070 -0.0658
   7523SM   H1S 9838  -0.450   6.471   8.632 -0.0547  2.1702  1.8253
   7523SM   H1T 9839  -0.316   6.350   8.662 -1.7758  0.3831  1.0140
   7523SM    NF 9840  -0.398   6.406   8.389  0.2689  0.4597 -0.1642
   7523SM   HNF 9841  -0.370   6.329   8.332  1.0250  0.2595  0.4546
   7523SM   C2S 9842  -0.294   6.467   8.481 -0.6909 -0.1439  0.3218
   7523SM   H2S 9843  -0.298   6.576   8.462 -0.5950  0.0048  1.1203
   7523SM   C3S 9844  -0.154   6.400   8.463 -0.3882 -0.6782  0.5593
   7523SM   H3S 9845  -0.164   6.289   8.468 -0.3375 -0.7136 -0.0956
   7523SM    O3 9846  -0.067   6.433   8.571  0.2660 -0.3070 -0.5750
   7523SM   HO3 9847  -0.128   6.488   8.620 -0.9539 -0.9797 -1.2781
   7523SM   C4S 9848  -0.088   6.434   8.332 -0.9618  0.0593  0.4672
   7523SM   H4S 9849  -0.104   6.358   8.255  0.0519 -0.6002  0.8905
   7523SM   C5S 9850  -0.012   6.546   8.308  0.0873  0.0312 -0.3217
   7523SM   H5S 9851  -0.000   6.628   8.380  1.4802 -0.0840 -0.3830
   7523SM   C6S 9852   0.038   6.579   8.169 -0.2693  0.0625  0.8262
   7523SM   H6S 9853   0.140   6.543   8.142 -0.6534  0.7283 -1.7336
   7523SM   H6T 9854   0.043   6.690   8.172 -1.4099  0.1147  1.6667
   7523SM   C7S 9855  -0.054   6.547   8.053 -0.3561 -0.1406 -0.1346
   7523SM   H7S 9856  -0.149   6.601   8.072  0.3972  0.9394  0.6815
   7523SM   H7T 9857  -0.068   6.437   8.049  0.2013 -0.2519  0.6045
   7523SM   C8S 9858   0.019   6.603   7.924 -0.7381 -0.1690  0.5394
   7523SM   H8S 9859   0.109   6.540   7.907 -1.4897 -1.4802  1.2380
   7523SM   H8T 9860   0.058   6.706   7.941  0.7293 -0.4441 -0.9236
   7523SM   C9S 9861  -0.075   6.604   7.802 -0.1472 -0.8275  0.1587
   7523SM   H9S 9862  -0.167   6.664   7.820 -0.5963 -1.0690 -1.2132
   7523SM   H9T 9863  -0.100   6.498   7.781 -0.9257 -0.5605 -0.3150
   7523SM  C10S 9864  -0.029   6.677   7.674  0.3761  0.3967  0.8159
   7523SM  H10S 9865  -0.006   6.786   7.677  0.8080  0.3213  0.2810
   7523SM  H10T 9866  -0.124   6.684   7.617 -0.3498  2.2183  2.1684
   7523SM  C11S 9867   0.086   6.620   7.594 -0.6132 -0.2818  0.3586
   7523SM  H11S 9868   0.185   6.627   7.644 -1.6885 -2.0875  2.9935
   7523SM  H11T 9869   0.087   6.676   7.499  0.6254  0.7833  0.9721
   7523SM  C12S 9870   0.062   6.465   7.564  0.1906  0.1061 -0.0238
   7523SM  H12S 9871  -0.045   6.436   7.570  0.5453 -1.1141  0.7513
   7523SM  H12T 9872   0.110   6.396   7.636  0.3865  0.9771  0.7005
   7523SM  C13S 9873   0.113   6.421   7.424 -0.1168  0.7371 -0.3520
   7523SM  H13S 9874   0.223   6.426   7.409 -0.1512 -0.8256 -1.3062
   7523SM  H13T 9875   0.080   6.486   7.340  0.2199  1.0770 -0.2271
   7523SM  C14S 9876   0.078   6.274   7.400 -0.2076  0.8821  0.9106
   7523SM  H14S 9877   0.124   6.214   7.482 -0.8356 -1.6605 -0.5054
   7523SM  H14T 9878   0.127   6.245   7.305  2.0476  3.0734  1.2945
   7523SM  C15S 9879  -0.066   6.229   7.396  0.0197 -0.1682  0.2983
   7523SM  H15S 9880  -0.123   6.287   7.320 -0.7527  1.4741  2.0754
   7523SM  H15T 9881  -0.113   6.243   7.495 -0.7053  1.6007 -0.2723
   7523SM  C16S 9882  -0.085   6.076   7.358  0.7255  0.1127  0.5239
   7523SM  H16S 9883  -0.021   6.018   7.428 -0.7001 -0.4504  1.4057
   7523SM  H16T 9884  -0.039   6.055   7.259 -0.9796 -1.2208 -0.0280
   7523SM  C17S 9885  -0.236   6.035   7.362 -0.5213  0.0252 -0.2602
   7523SM  H17S 9886  -0.295   6.115   7.313 -1.3506  0.8563  1.9791
   7523SM  H17T 9887  -0.262   6.032   7.470  0.4194  2.7868  0.1034
   7523SM  C18S 9888  -0.254   5.895   7.301 -0.5925 -0.2717  0.0893
   7523SM  H18S 9889  -0.190   5.812   7.340 -1.3773  0.5525  3.4866
   7523SM  H18T 9890  -0.218   5.907   7.197 -2.3963  0.7841 -0.4557
   7523SM  H18U 9891  -0.358   5.856   7.301 -0.8879  0.3599  2.5265
   7523SM   C1F 9892  -0.524   6.450   8.379 -0.0004  0.0846  0.5424
   7523SM    OF 9893  -0.566   6.547   8.446 -0.3287  0.2096  0.3970
   7523SM   C2F 9894  -0.613   6.369   8.288  0.6299  0.0339 -0.2475
   7523SM   H2F 9895  -0.624   6.274   8.344  1.5265  0.2010  0.2351
   7523SM   H2G 9896  -0.570   6.343   8.189 -0.6775  0.2650 -0.8948
   7523SM   C3F 9897  -0.755   6.429   8.258  0.0409  0.0261  0.2226
   7523SM   H3F 9898  -0.758   6.524   8.200 -2.7664 -0.3841 -0.4686
   7523SM   H3G 9899  -0.797   6.459   8.356 -1.3140 -1.0788  0.0156
   7523SM   C4F 9900  -0.850   6.334   8.191 -0.0881 -0.8358  0.1906
   7523SM   H4F 9901  -0.945   6.390   8.177  0.4489  0.5641  1.7137
   7523SM   H4G 9902  -0.870   6.246   8.256  0.3026 -1.1056 -0.0443
   7523SM   C5F 9903  -0.802   6.290   8.056 -0.6316 -0.3147 -0.3692
   7523SM   H5F 9904  -0.702   6.242   8.065  0.0472  1.2211  0.5620
   7523SM   H5G 9905  -0.799   6.373   7.982 -0.4888 -1.0746 -1.2507
   7523SM   C6F 9906  -0.897   6.199   7.990  0.6104  0.3917 -0.1997
   7523SM   H6F 9907  -0.996   6.243   7.967 -0.3772 -1.4590  0.2952
   7523SM   H6G 9908  -0.931   6.112   8.050  1.1638  0.3715  0.0945
   7523SM   C7F 9909  -0.843   6.144   7.858  0.2770 -0.1449 -0.4054
   7523SM   H7F 9910  -0.776   6.056   7.866 -1.9262 -1.7602  1.4230
   7523SM   H7G 9911  -0.789   6.233   7.819  2.0586 -0.0231  2.0514
   7523SM   C8F 9912  -0.949   6.118   7.744  0.0036 -0.5764  0.0464
   7523SM   H8F 9913  -0.895   6.064   7.663 -0.7503  0.6042 -1.2931
   7523SM   H8G 9914  -0.990   6.212   7.700 -0.4405  1.1135  3.7000
   7523SM   C9F 9915  -1.077   6.038   7.788 -0.0119  0.3632  0.9791
   7523SM   H9F 9916  -1.132   6.100   7.862 -1.5111  2.5585 -1.7678
   7523SM   H9G 9917  -1.036   5.943   7.828  1.6373 -0.4607 -2.3289
   7523SM  C10F 9918  -1.169   6.008   7.668 -0.1079 -1.1427  0.1376
   7523SM  H10F 9919  -1.197   6.107   7.626  1.4771  0.7906  3.2464
   7523SM  H10G 9920  -1.263   5.967   7.711  0.4632 -0.7122  1.8533
   7523SM  C11F 9921  -1.108   5.911   7.564  0.8287 -0.9796  0.3880
   7523SM  H11F 9922  -1.053   5.824   7.606  0.6839 -1.0780  0.3731
   7523SM  H11G 9923  -1.029   5.966   7.508  0.0115 -1.0869 -0.9268
   7523SM  C12F 9924  -1.218   5.848   7.476 -0.5452  0.3816 -0.0536
   7523SM  H12F 9925  -1.312   5.824   7.531 -1.4811  3.1212 -0.2701
   7523SM  H12G 9926  -1.174   5.749   7.453  0.8832  0.9256  0.2706
   7523SM  C13F 9927  -1.254   5.930   7.348 -0.1359 -0.3124  0.9148
   7523SM  H13F 9928  -1.156   5.951   7.300 -0.3756  1.8896  1.2838
   7523SM  H13G 9929  -1.296   6.030   7.371  1.3952  0.1710  1.6961
   7523SM  C14F 9930  -1.351   5.861   7.249 -0.1557 -0.4941 -0.6670
   7523SM  H14F 9931  -1.453   5.840   7.290 -1.2133  1.5829 -2.0673
   7523SM  H14G 9932  -1.302   5.773   7.204  1.0765  1.6684 -3.8755
   7523SM  C15F 9933  -1.359   5.954   7.126 -0.1619  0.3157  0.3462
   7523SM  H15F 9934  -1.257   5.953   7.080  0.1331  0.6309  0.9848
   7523SM  H15G 9935  -1.392   6.056   7.155  0.3745  0.8437 -0.7937
   7523SM  C16F 9936  -1.451   5.906   7.015 -0.8185 -1.0764  0.1778
   7523SM  H16F 9937  -1.401   5.817   6.972  1.8528  0.9270 -1.1715
   7523SM  H16G 9938  -1.457   5.981   6.933  1.2744 -1.3326 -0.2527
   7523SM  C17F 9939  -1.589   5.879   7.069 -0.1305 -0.1048 -0.1690
   7523SM  H17F 9940  -1.625   5.964   7.131 -0.7366 -1.6534  1.7119
   7523SM  H17G 9941  -1.570   5.788   7.131  0.2694  1.5761  2.3134
   7523SM  C18F 9942  -1.695   5.857   6.959  0.5089  0.4489  0.0483
   7523SM  H18F 9943  -1.703   5.951   6.901  1.2835 -0.6536 -1.9286
   7523SM  H18G 9944  -1.795   5.845   7.006 -0.0481  0.7823 -1.0242
   7523SM  C19F 9945  -1.677   5.751   6.848  0.3858 -0.1131 -0.2463
   7523SM  H19F 9946  -1.596   5.777   6.777 -0.6879 -0.6989 -1.7444
   7523SM  H19G 9947  -1.773   5.747   6.792 -0.7541  0.9210  1.5428
   7523SM  C20F 9948  -1.639   5.614   6.903 -0.2337 -0.5859  0.2384
   7523SM  H20F 9949  -1.702   5.569   6.983  1.6963 -1.2931  1.4536
   7523SM  H20G 9950  -1.545   5.632   6.961  1.0023  0.9855 -2.0975
   7523SM  C21F 9951  -1.600   5.511   6.790 -0.1182 -0.2271  0.0340
   7523SM  H21F 9952  -1.692   5.471   6.742  0.0498  0.3514 -0.7861
   7523SM  H21G 9953  -1.559   5.420   6.840 -2.4698 -0.6615  1.3249
   7523SM  C22F 9954  -1.493   5.561   6.689  0.0101  0.3655  0.7727
   7523SM  H22F 9955  -1.409   5.613   6.741  0.2971  0.9830 -0.2612
   7523SM  H22G 9956  -1.541   5.632   6.618  1.7154  0.4221 -0.3953
   7523SM  C23F 9957  -1.450   5.440   6.605 -1.2175  1.1138  0.5877
   7523SM  H23F 9958  -1.538   5.386   6.564 -0.3356 -1.2791  1.6557
   7523SM  H23G 9959  -1.387   5.375   6.668 -0.7994 -0.5305 -1.4161
   7523SM  H23H 9960  -1.376   5.468   6.527 -1.0544 -2.1415 -0.5552
   7623SM     N 9961   0.253   7.319   8.881 -0.5784 -0.1387  0.1199
   7623SM   C15 9962   0.116   7.327   8.939  0.4150  0.3437 -0.0689
   7623SM  H15A 9963   0.089   7.234   8.987  1.1225  0.7645  1.1790
   7623SM  H15B 9964   0.043   7.342   8.860  1.0171  3.4348 -0.1653
   7623SM  H15C 9965   0.101   7.410   9.007  1.5390  0.2280  0.3385
   7623SM   C14 9966   0.303   7.444   8.817 -0.1975  0.3268  0.1850
   7623SM  H14A 9967   0.292   7.534   8.875  0.6800 -0.6243  1.8842
   7623SM  H14B 9968   0.231   7.466   8.739  0.8235 -0.9213 -1.1559
   7623SM  H14C 9969   0.404   7.442   8.778  1.2427 -1.9681  3.6093
   7623SM   C13 9970   0.356   7.290   8.985  0.7885 -0.2235  0.2714
   7623SM  H13A 9971   0.335   7.204   9.046 -0.2122  0.5891  1.1061
   7623SM  H13B 9972   0.366   7.375   9.051  0.0250  0.8133 -0.8837
   7623SM  H13C 9973   0.453   7.270   8.940 -0.6046 -3.8109 -1.5714
   7623SM   C12 9974   0.253   7.203   8.780 -0.0596  0.2444  0.4602
   7623SM  H12A 9975   0.347   7.183   8.731 -1.3722  0.7510 -2.4097
   7623SM  H12B 9976   0.179   7.219   8.703  0.1047  0.7108  0.3987
   7623SM   C11 9977   0.209   7.061   8.839  0.0966 -0.1362  0.1792
   7623SM  H11A 9978   0.187   6.995   8.752 -0.3784  0.9057 -0.5182
   7623SM  H11B 9979   0.106   7.071   8.879 -1.2491  0.4924 -3.1340
   7623SM     P 9980   0.454   6.977   8.893 -0.1782 -0.2184 -0.3969
   7623SM   O13 9981   0.543   7.038   8.997  0.0115  0.1224 -0.0986
   7623SM   O14 9982   0.475   6.835   8.860  0.1534  0.4882 -0.0226
   7623SM   O11 9983   0.481   7.055   8.760 -0.5148  0.2994 -0.2670
   7623SM   O12 9984   0.304   7.008   8.933  0.2577  0.4705  0.1814
   7623SM   C1S 9985   0.538   6.993   8.647 -0.1067  0.0058 -0.5089
   7623SM   H1S 9986   0.479   6.902   8.623  2.2383 -1.9804  0.7699
   7623SM   H1T 9987   0.645   6.972   8.663  0.1704  1.2845 -0.5443
   7623SM    NF 9988   0.547   7.028   8.402 -0.1562  0.2894  0.2162
   7623SM   HNF 9989   0.635   7.043   8.357  1.1033  0.8519  2.6280
   7623SM   C2S 9990   0.526   7.094   8.525  0.4743  0.0381 -0.3374
   7623SM   H2S 9991   0.421   7.132   8.523  0.1265 -0.5564  2.3393
   7623SM   C3S 9992   0.597   7.230   8.550 -0.2453  0.5003 -0.4079
   7623SM   H3S 9993   0.702   7.201   8.571 -1.1056 -0.9559  2.3793
   7623SM    O3 9994   0.576   7.300   8.674 -0.2792 -0.3097 -0.0947
   7623SM   HO3 9995   0.528   7.233   8.722  1.2996 -0.4227  1.4333
   7623SM   C4S 9996   0.578   7.321   8.431 -0.4357  0.5511 -0.1374
   7623SM   H4S 9997   0.472   7.322   8.400 -0.3708 -1.0807 -0.5314
   7623SM   C5S 9998   0.672   7.382   8.363  0.1139  0.1611  0.6046
   7623SM   H5S 9999   0.777   7.369   8.391  0.8654  1.3038 -1.4557
   7623SM   C6S10000   0.655   7.474   8.248 -0.2224  0.3875  0.0354
   7623SM   H6S10001   0.709   7.570   8.262 -1.4222  1.3156 -1.4828
   7623SM   H6T10002   0.546   7.494   8.242 -0.0190  1.2438 -0.9656
   7623SM   C7S10003   0.705   7.421   8.109  0.2537  0.0378 -0.2631
   7623SM   H7S10004   0.652   7.324   8.102  0.2122  0.0840 -0.6082
   7623SM   H7T10005   0.810   7.385   8.115 -0.1391 -0.8716  3.3184
   7623SM   C8S10006   0.665   7.501   7.984  0.4283 -0.2927  0.2934
   7623SM   H8S10007   0.721   7.597   7.983 -1.5749  0.9118  0.5643
   7623SM   H8T10008   0.558   7.526   7.998 -0.2623 -3.2500  1.1773
   7623SM   C9S10009   0.685   7.422   7.855 -0.5356  0.5327  0.1702
   7623SM   H9S10010   0.689   7.504   7.780 -0.5673  2.1349  1.8583
   7623SM   H9T10011   0.592   7.363   7.836 -1.9317  2.1517  1.6250
   7623SM  C10S10012   0.824   7.354   7.841  0.0233  0.8263  0.7824
   7623SM  H10S10013   0.816   7.250   7.878 -0.1620  0.2922 -0.6734
   7623SM  H10T10014   0.904   7.402   7.901  1.7897 -1.2403  0.1785
   7623SM  C11S10015   0.861   7.337   7.691 -0.2531  0.4380 -0.0487
   7623SM  H11S10016   0.876   7.438   7.647 -1.7222  0.0993 -1.4245
   7623SM  H11T10017   0.791   7.284   7.623  0.6861  0.5019 -1.0941
   7623SM  C12S10018   0.999   7.269   7.671 -0.3263 -0.2689  0.3157
   7623SM  H12S10019   1.005   7.191   7.750  0.7430 -2.0410 -1.4413
   7623SM  H12T10020   1.081   7.340   7.699  1.0967 -2.3815  1.8105
   7623SM  C13S10021   1.011   7.227   7.525 -0.0175  0.2544  0.1406
   7623SM  H13S10022   0.980   7.300   7.447  0.2178 -0.9432 -1.1115
   7623SM  H13T10023   0.951   7.133   7.517 -0.1392  0.1961  1.4832
   7623SM  C14S10024   1.153   7.193   7.495 -0.5692  0.8772 -0.7161
   7623SM  H14S10025   1.210   7.154   7.582  1.1956  2.8803 -0.8701
   7623SM  H14T10026   1.209   7.286   7.470 -0.4583  0.6726 -1.2470
   7623SM  C15S10027   1.176   7.096   7.377  0.3620  0.5286  0.0439
   7623SM  H15S10028   1.136   7.132   7.280 -1.5166 -1.8565 -0.1475
   7623SM  H15T10029   1.120   7.004   7.401 -1.3801  1.3402 -0.7176
   7623SM  C16S10030   1.326   7.053   7.367  0.2106 -0.0354 -0.1342
   7623SM  H16S10031   1.385   7.147   7.377 -0.1561  0.5111 -2.5164
   7623SM  H16T10032   1.333   7.009   7.266  2.8700  0.8678 -0.4400
   7623SM  C17S10033   1.382   6.956   7.469  0.9379 -0.5103  0.1796
   7623SM  H17S10034   1.338   6.856   7.450 -2.1381  1.0218 -1.6913
   7623SM  H17T10035   1.350   6.981   7.573  1.1512 -1.0101  0.3679
   7623SM  C18S10036   1.535   6.949   7.455 -0.4289  0.1767  0.5363
   7623SM  H18S10037   1.572   6.864   7.516 -3.8794 -1.2573  0.8637
   7623SM  H18T10038   1.579   7.049   7.476  0.8326 -0.1370 -0.4610
   7623SM  H18U10039   1.549   6.919   7.349  0.5683  0.5341  0.5575
   7623SM   C1F10040   0.468   6.927   8.370  0.4730  0.2433  0.3931
   7623SM    OF10041   0.354   6.920   8.409  0.3947  0.5910  0.4655
   7623SM   C2F10042   0.527   6.826   8.276  0.4354 -0.6695  0.0267
   7623SM   H2F10043   0.632   6.822   8.312  0.0332  0.7421  1.4259
   7623SM   H2G10044   0.533   6.867   8.172  1.2159 -0.3035  0.2043
   7623SM   C3F10045   0.467   6.675   8.277  0.2812 -0.3866  0.2827
   7623SM   H3F10046   0.361   6.675   8.244  0.1845 -0.1785  0.5860
   7623SM   H3G10047   0.464   6.644   8.383 -0.2826 -1.0205  0.0885
   7623SM   C4F10048   0.554   6.571   8.201  0.2684  0.5397  0.3531
   7623SM   H4F10049   0.539   6.467   8.237  2.1397  0.0861 -0.0907
   7623SM   H4G10050   0.663   6.592   8.211  0.8406 -2.5994  1.8356
   7623SM   C5F10051   0.513   6.570   8.050  0.7632 -0.0622  0.1581
   7623SM   H5F10052   0.567   6.661   8.017 -0.3352  0.1564 -1.0912
   7623SM   H5G10053   0.406   6.587   8.026  0.5840 -1.2445  0.0475
   7623SM   C6F10054   0.567   6.454   7.971 -0.5377  0.5380 -0.1328
   7623SM   H6F10055   0.550   6.353   8.014  0.4927  0.1919 -0.5138
   7623SM   H6G10056   0.677   6.471   7.971 -0.5488  0.6312  0.5050
   7623SM   C7F10057   0.508   6.455   7.831 -0.5992 -1.0569  0.3290
   7623SM   H7F10058   0.543   6.546   7.778 -0.0860 -1.5157 -0.1164
   7623SM   H7G10059   0.398   6.469   7.841 -0.3466  2.9007 -0.7318
   7623SM   C8F10060   0.533   6.328   7.746 -0.2417 -0.7213 -0.5065
   7623SM   H8F10061   0.491   6.243   7.804 -0.4628  0.6582  1.4601
   7623SM   H8G10062   0.643   6.315   7.761 -0.5297 -0.9659  1.8619
   7623SM   C9F10063   0.491   6.342   7.600  0.1689  0.5887 -0.0376
   7623SM   H9F10064   0.504   6.447   7.565  1.1027 -1.0219 -5.4851
   7623SM   H9G10065   0.383   6.319   7.589  0.3354  0.5676 -2.0444
   7623SM  C10F10066   0.569   6.252   7.504 -0.1058  0.1763  0.0968
   7623SM  H10F10067   0.550   6.145   7.527  1.7090 -0.2532 -0.2776
   7623SM  H10G10068   0.677   6.273   7.515  0.1441 -0.6926 -0.6212
   7623SM  C11F10069   0.517   6.280   7.363 -1.0239  0.5068  0.7715
   7623SM  H11F10070   0.528   6.386   7.331  0.2878 -0.2307 -1.5188
   7623SM  H11G10071   0.411   6.248   7.366 -0.4630 -1.6908 -0.3737
   7623SM  C12F10072   0.588   6.199   7.252 -0.0202 -0.0730 -0.0186
   7623SM  H12F10073   0.572   6.097   7.292 -0.6465  0.0611  0.0929
   7623SM  H12G10074   0.693   6.235   7.250 -0.6812  2.1935  1.5728
   7623SM  C13F10075   0.533   6.206   7.111  0.1240 -0.0505 -0.0004
   7623SM  H13F10076   0.562   6.305   7.070  1.5598 -0.1929  0.6366
   7623SM  H13G10077   0.423   6.197   7.125  0.3127 -0.6333  1.2849
   7623SM  C14F10078   0.576   6.087   7.017 -0.4207 -0.0359 -0.1467
   7623SM  H14F10079   0.526   5.992   7.046  0.2032 -0.0610  0.8937
   7623SM  H14G10080   0.685   6.062   7.011  0.2365  2.7197 -1.6747
   7623SM  C15F10081   0.557   6.119   6.866 -0.3511  0.1413  0.7697
   7623SM  H15F10082   0.597   6.223   6.859  0.9581 -0.4896 -3.5217
   7623SM  H15G10083   0.453   6.119   6.829 -0.1343 -2.2024  0.0557
   7623SM  C16F10084   0.626   6.022   6.765  0.3700 -0.0307 -0.5000
   7623SM  H16F10085   0.589   5.918   6.779  3.1424 -1.0112  0.0828
   7623SM  H16G10086   0.734   6.024   6.788  0.4595  0.1013 -0.9186
   7623SM  C17F10087   0.614   6.067   6.618 -0.0576  0.2139  0.7883
   7623SM  H17F10088   0.641   6.173   6.601  1.0644 -0.6372 -4.0943
   7623SM  H17G10089   0.508   6.073   6.584  0.2399 -0.3241 -0.2728
   7623SM  C18F10090   0.691   5.977   6.520  0.3276 -0.0238  0.4352
   7623SM  H18F10091   0.646   5.875   6.524  0.5815 -0.1175  0.8585
   7623SM  H18G10092   0.799   5.971   6.544  0.0677 -0.5734  1.5392
   7623SM  C19F10093   0.668   6.019   6.373  0.2720  0.3014  0.1315
   7623SM  H19F10094   0.676   6.129   6.361  0.5486  0.0591 -2.3502
   7623SM  H19G10095   0.570   5.981   6.336  1.3507 -0.9495 -1.6090
   7623SM  C20F10096   0.776   5.950   6.282 -0.2102 -0.1017  0.6070
   7623SM  H20F10097   0.780   5.840   6.294  1.1576 -0.1245  0.1714
   7623SM  H20G10098   0.876   5.981   6.320 -0.0115 -2.7920  2.5506
   7623SM  C21F10099   0.772   5.964   6.134 -0.9028  0.0102 -0.0263
   7623SM  H21F10100   0.669   5.989   6.099 -2.1236 -2.0514  1.8441
   7623SM  H21G10101   0.819   5.874   6.089 -0.2270  0.1480  0.3971
   7623SM  C22F10102   0.853   6.081   6.088  0.4441  0.1867 -0.3377
   7623SM  H22F10103   0.961   6.067   6.111  1.0832  3.2054 -0.9426
   7623SM  H22G10104   0.828   6.172   6.146  0.2060 -0.1537  0.0937
   7623SM  C23F10105   0.841   6.104   5.936 -0.3833 -0.3218  0.4929
   7623SM  H23F10106   0.739   6.148   5.925  0.2476  0.9648 -0.4751
   7623SM  H23G10107   0.856   6.014   5.873 -0.4142  0.7788 -1.1281
   7623SM  H23H10108   0.910   6.177   5.890 -0.3243 -2.0035 -2.3001
   7723SM     N10109   0.507   2.863   8.870 -0.0984 -0.2666 -0.2310
   7723SM   C1510110   0.360   2.881   8.888 -0.5562 -0.6763  0.6214
   7723SM  H15A10111   0.302   2.813   8.828 -0.0645 -1.0705  0.5883
   7723SM  H15B10112   0.329   2.981   8.863  0.6259 -0.8962 -2.0410
   7723SM  H15C10113   0.335   2.885   8.993  1.0245  1.5011  1.0019
   7723SM   C1410114   0.570   2.983   8.940  0.2307 -0.0684 -0.0018
   7723SM  H14A10115   0.547   3.077   8.893  0.3789  1.7000  3.1248
   7723SM  H14B10116   0.678   2.976   8.948  0.5559  2.7485 -0.7288
   7723SM  H14C10117   0.514   2.997   9.032 -0.8662  0.1725 -0.6936
   7723SM   C1310118   0.553   2.741   8.936  0.2913 -0.1554  0.3583
   7723SM  H13A10119   0.509   2.651   8.896 -1.3230 -0.1782  2.0689
   7723SM  H13B10120   0.548   2.746   9.044  0.8006  2.1679  0.3302
   7723SM  H13C10121   0.659   2.722   8.920  0.1281 -0.5129 -0.3365
   7723SM   C1210122   0.561   2.868   8.725 -0.1014  0.1458  0.5932
   7723SM  H12A10123   0.526   2.780   8.675  0.6769  0.2674 -0.1974
   7723SM  H12B10124   0.666   2.844   8.716 -0.5956 -2.5079  1.3142
   7723SM   C1110125   0.529   2.986   8.638 -0.2873 -0.0294  0.0723
   7723SM  H11A10126   0.423   2.993   8.607  0.0212 -0.1226 -1.0345
   7723SM  H11B10127   0.578   2.967   8.540  1.2181  0.8321  0.6170
   7723SM     P10128   0.697   3.184   8.670  0.0808 -0.0368 -0.6365
   7723SM   O1310129   0.676   3.332   8.678 -0.1996 -0.2566 -0.2645
   7723SM   O1410130   0.786   3.118   8.769 -0.0360  0.0437 -0.0946
   7723SM   O1110131   0.733   3.137   8.524 -0.3532 -0.0502 -0.1429
   7723SM   O1210132   0.557   3.120   8.690  0.0867  0.1396  0.7418
   7723SM   C1S10133   0.674   3.188   8.404 -0.2709  0.2083 -0.4299
   7723SM   H1S10134   0.644   3.294   8.419 -1.2308 -0.3241  1.9568
   7723SM   H1T10135   0.580   3.132   8.387 -0.3623  0.1498  0.2474
   7723SM    NF10136   0.721   3.240   8.181  0.6149 -0.4196  0.1075
   7723SM   HNF10137   0.636   3.205   8.142  0.6033 -1.4758  1.0306
   7723SM   C2S10138   0.763   3.148   8.281  0.0701 -0.7527 -0.6644
   7723SM   H2S10139   0.872   3.168   8.289 -0.1543  0.0708  0.5430
   7723SM   C3S10140   0.757   2.990   8.255  0.2135  0.3616  0.0534
   7723SM   H3S10141   0.655   2.977   8.213  1.0318 -2.4261 -1.2908
   7723SM    O310142   0.766   2.919   8.377 -0.3745  0.4870 -0.0488
   7723SM   HO310143   0.754   2.981   8.449 -2.0175  1.7749 -1.3427
   7723SM   C4S10144   0.850   2.935   8.147 -0.3122 -0.0109  0.1660
   7723SM   H4S10145   0.807   2.944   8.046  1.2188 -2.3068 -0.7804
   7723SM   C5S10146   0.963   2.870   8.155  0.1371  0.4147 -0.7857
   7723SM   H5S10147   0.987   2.853   8.262 -0.6103  2.4243 -0.2688
   7723SM   C6S10148   1.045   2.807   8.050 -0.0999  0.5160 -0.3066
   7723SM   H6S10149   1.068   2.705   8.087  4.6993  0.5669 -2.4799
   7723SM   H6T10150   1.141   2.861   8.043  0.5424 -0.6132 -0.3626
   7723SM   C7S10151   0.994   2.798   7.907 -0.2519  0.2831 -0.0232
   7723SM   H7S10152   1.072   2.737   7.858  2.2099  1.9478  1.6065
   7723SM   H7T10153   0.989   2.900   7.864  0.2022  0.6971  0.8976
   7723SM   C8S10154   0.872   2.717   7.881  0.2068  0.4260 -0.5115
   7723SM   H8S10155   0.777   2.760   7.920  0.8292  0.5375  0.9321
   7723SM   H8T10156   0.889   2.617   7.927  1.1574  1.5795  1.7778
   7723SM   C9S10157   0.847   2.706   7.730 -0.6578 -0.5639  0.2072
   7723SM   H9S10158   0.928   2.646   7.684 -1.2107 -0.9879 -0.2300
   7723SM   H9T10159   0.838   2.809   7.687 -2.5585 -1.3329 -1.3889
   7723SM  C10S10160   0.713   2.638   7.693  0.8064 -0.3024 -0.7090
   7723SM  H10S10161   0.704   2.646   7.582  0.4943  0.0342 -0.6612
   7723SM  H10T10162   0.629   2.699   7.734  1.3900 -0.3471  0.6004
   7723SM  C11S10163   0.702   2.491   7.725  0.4380  0.0909 -0.2306
   7723SM  H11S10164   0.601   2.464   7.763  0.1646  1.6936  0.2507
   7723SM  H11T10165   0.774   2.461   7.804  2.2455  2.2087 -0.9876
   7723SM  C12S10166   0.733   2.399   7.605 -0.0064  0.0482  0.4383
   7723SM  H12S10167   0.834   2.415   7.561 -0.0150 -1.1043 -0.0612
   7723SM  H12T10168   0.664   2.413   7.519  0.9848 -0.9218 -0.5480
   7723SM  C13S10169   0.717   2.248   7.636 -0.3809  0.0123  0.4046
   7723SM  H13S10170   0.611   2.215   7.640 -0.9061  1.5667  0.0198
   7723SM  H13T10171   0.768   2.232   7.734  2.4348 -0.3263 -1.0298
   7723SM  C14S10172   0.796   2.170   7.521  0.3814 -0.6440  0.1039
   7723SM  H14S10173   0.885   2.228   7.488  0.3826 -1.3529 -1.2312
   7723SM  H14T10174   0.733   2.181   7.431 -0.2659  0.2920  0.6637
   7723SM  C15S10175   0.836   2.018   7.544 -0.0799 -0.0846  0.0382
   7723SM  H15S10176   0.740   1.969   7.571 -0.0899  0.8162  1.7795
   7723SM  H15T10177   0.919   2.004   7.616 -1.1711 -0.7256  1.1935
   7723SM  C16S10178   0.889   1.959   7.417 -0.0234  0.0062  0.0643
   7723SM  H16S10179   0.979   2.017   7.387  1.4631 -2.1488  0.0927
   7723SM  H16T10180   0.816   1.982   7.336 -1.5030  1.4644  1.7341
   7723SM  C17S10181   0.919   1.807   7.418 -0.1214  0.0877  0.7203
   7723SM  H17S10182   0.986   1.807   7.507  2.0417  0.1951 -0.8529
   7723SM  H17T10183   0.970   1.770   7.327 -1.7976  1.5819 -0.9103
   7723SM  C18S10184   0.795   1.722   7.434  0.1320 -0.4408 -0.6550
   7723SM  H18S10185   0.755   1.733   7.537 -0.4050  3.8857 -1.1341
   7723SM  H18T10186   0.812   1.614   7.418 -2.7263 -1.1061  0.2629
   7723SM  H18U10187   0.713   1.754   7.364  0.4476  1.1587 -0.3444
   7723SM   C1F10188   0.749   3.371   8.177 -0.6459  0.0491 -0.7258
   7723SM    OF10189   0.816   3.421   8.270  0.2889  0.4123 -0.1432
   7723SM   C2F10190   0.685   3.449   8.068  0.7547 -0.1996 -0.2868
   7723SM   H2F10191   0.614   3.510   8.129  0.1575 -0.8892 -0.2844
   7723SM   H2G10192   0.619   3.388   8.002  0.7648 -1.7821  1.0841
   7723SM   C3F10193   0.773   3.538   7.981 -0.0961 -0.3926  0.2082
   7723SM   H3F10194   0.834   3.477   7.911 -0.8643  0.9680 -1.7115
   7723SM   H3G10195   0.852   3.588   8.041  0.8325 -1.5450 -0.0234
   7723SM   C4F10196   0.704   3.648   7.905  0.1701 -0.3701  0.7022
   7723SM   H4F10197   0.636   3.702   7.975 -0.7648 -0.4107 -0.1598
   7723SM   H4G10198   0.646   3.602   7.823  3.3674 -0.1762 -1.8942
   7723SM   C5F10199   0.804   3.754   7.841 -0.5717  0.0246  0.5761
   7723SM   H5F10200   0.849   3.817   7.921  1.3393  1.1218 -1.2592
   7723SM   H5G10201   0.748   3.811   7.765 -0.5279 -1.2818 -0.4664
   7723SM   C6F10202   0.925   3.693   7.759 -0.4643 -0.0711 -0.2794
   7723SM   H6F10203   0.888   3.621   7.683 -1.6654  0.8308 -0.5818
   7723SM   H6G10204   0.988   3.637   7.831 -0.5725 -0.1374 -0.2359
   7723SM   C7F10205   1.023   3.796   7.713  0.3152  0.7333  0.1636
   7723SM   H7F10206   1.044   3.872   7.791 -1.3423 -0.2543  1.6533
   7723SM   H7G10207   0.989   3.851   7.623 -0.9437  0.2855  0.3470
   7723SM   C8F10208   1.158   3.730   7.661  0.3886 -0.1858  0.3140
   7723SM   H8F10209   1.204   3.678   7.748 -0.1021 -0.5306  0.3752
   7723SM   H8G10210   1.223   3.819   7.646 -0.7010  0.7362  0.9382
   7723SM   C9F10211   1.144   3.640   7.544 -1.0808 -0.3265  0.3486
   7723SM   H9F10212   1.089   3.548   7.575 -2.0198 -0.2026 -0.8714
   7723SM   H9G10213   1.245   3.605   7.511 -1.6100 -1.4139 -0.1633
   7723SM  C10F10214   1.084   3.710   7.425  0.0583  0.1579 -0.5976
   7723SM  H10F10215   1.127   3.811   7.438 -0.9731  0.4877  0.4209
   7723SM  H10G10216   0.976   3.732   7.437 -0.2357 -0.3634 -2.0452
   7723SM  C11F10217   1.126   3.661   7.294  0.3208 -0.1680  0.0805
   7723SM  H11F10218   1.096   3.555   7.279 -0.3852  0.2092 -1.4308
   7723SM  H11G10219   1.236   3.664   7.275  0.1898  0.6239 -0.6091
   7723SM  C12F10220   1.055   3.732   7.173 -0.0050 -0.4075 -0.2354
   7723SM  H12F10221   1.091   3.837   7.168  3.0292 -1.3880 -1.1937
   7723SM  H12G10222   0.947   3.720   7.192  0.0471  0.6967  0.9540
   7723SM  C13F10223   1.095   3.670   7.032 -0.1510  0.5701 -0.1603
   7723SM  H13F10224   1.042   3.730   6.955 -0.5775 -0.0143 -0.3274
   7723SM  H13G10225   1.054   3.567   7.033 -0.9137  0.8484  2.0819
   7723SM  C14F10226   1.252   3.663   6.992  0.9381  0.4203 -0.0045
   7723SM  H14F10227   1.245   3.603   6.898 -0.2071 -1.9624  1.5127
   7723SM  H14G10228   1.303   3.597   7.066 -1.8681  0.3342  1.9813
   7723SM  C15F10229   1.311   3.799   6.986 -0.2435 -0.0645 -0.0034
   7723SM  H15F10230   1.338   3.816   7.092 -0.3859  0.1347  0.0020
   7723SM  H15G10231   1.227   3.869   6.965 -1.5695 -1.3045  0.9291
   7723SM  C16F10232   1.424   3.813   6.884 -0.4852 -0.2632 -0.2740
   7723SM  H16F10233   1.382   3.784   6.786  0.0420  2.1842 -1.2810
   7723SM  H16G10234   1.504   3.746   6.923 -2.1046 -1.9145  0.4007
   7723SM  C17F10235   1.489   3.953   6.882  0.0698  0.1355  1.0522
   7723SM  H17F10236   1.507   3.983   6.987  2.5742  1.0399  0.4311
   7723SM  H17G10237   1.415   4.024   6.839  0.1598 -1.6767 -2.5565
   7723SM  C18F10238   1.623   3.947   6.803  0.4338  0.2857 -0.5730
   7723SM  H18F10239   1.692   3.880   6.858 -1.9416 -0.6457  1.4715
   7723SM  H18G10240   1.664   4.050   6.795 -1.3155  0.9630 -1.4859
   7723SM  C19F10241   1.606   3.898   6.656 -0.4560 -0.6408  0.1560
   7723SM  H19F10242   1.560   3.978   6.594 -0.8473  0.7500  2.1537
   7723SM  H19G10243   1.540   3.810   6.642 -0.9917 -0.1002 -0.8018
   7723SM  C20F10244   1.745   3.860   6.596 -0.9263  0.2871 -0.1583
   7723SM  H20F10245   1.824   3.817   6.662  0.5369  2.2287 -0.5374
   7723SM  H20G10246   1.804   3.951   6.572  2.2612 -1.2852  1.1117
   7723SM  C21F10247   1.729   3.773   6.476 -0.1108 -0.2619 -1.4948
   7723SM  H21F10248   1.672   3.843   6.411 -1.7694  0.5567  0.7000
   7723SM  H21G10249   1.667   3.687   6.510  0.2363  0.0453 -0.0160
   7723SM  C22F10250   1.859   3.723   6.412  0.0502 -0.1362  0.4932
   7723SM  H22F10251   1.892   3.634   6.469 -1.8099 -1.1448  0.0453
   7723SM  H22G10252   1.942   3.788   6.448 -1.1895  1.4621  0.5857
   7723SM  C23F10253   1.854   3.706   6.264 -0.5358  0.5660  0.2161
   7723SM  H23F10254   1.955   3.670   6.236  0.3083  2.3337  0.8414
   7723SM  H23G10255   1.828   3.808   6.227 -0.6198  1.1774  1.8716
   7723SM  H23H10256   1.786   3.624   6.231 -0.6597  0.9686 -0.5497
   7823SM     N10257   0.887   0.029   8.991 -0.1519  0.4646 -0.2926
   7823SM   C1510258   0.753   0.044   8.926 -0.8045  0.5003 -0.4389
   7823SM  H15A10259   0.718   0.146   8.919  0.2446  0.9450  0.4908
   7823SM  H15B10260   0.679  -0.022   8.969 -0.4083 -1.5794 -2.7143
   7823SM  H15C10261   0.754   0.016   8.821  0.0868 -0.8731 -0.0903
   7823SM   C1410262   0.866   0.066   9.139 -0.3512 -0.7282  0.5983
   7823SM  H14A10263   0.776   0.021   9.178 -1.7669  1.1377 -0.3717
   7823SM  H14B10264   0.837   0.169   9.131 -0.1424 -0.8150 -2.7663
   7823SM  H14C10265   0.953   0.047   9.200  0.3336  0.6096  0.0774
   7823SM   C1310266   0.919  -0.120   8.992 -0.0823 -0.3382 -0.3353
   7823SM  H13A10267   0.839  -0.187   9.020 -0.6767  0.2685 -0.5446
   7823SM  H13B10268   1.012  -0.138   9.044 -0.1066 -0.4727 -0.3374
   7823SM  H13C10269   0.952  -0.138   8.890  2.8437  3.4212 -0.2925
   7823SM   C1210270   0.998   0.107   8.930  0.4884  0.2045 -0.2734
   7823SM  H12A10271   1.093   0.077   8.973  0.0142 -1.3972 -0.2580
   7823SM  H12B10272   0.988   0.210   8.959  2.5359 -0.4878  3.6182
   7823SM   C1110273   1.005   0.090   8.775  0.0218 -0.6107  0.2573
   7823SM  H11A10274   1.094   0.147   8.741 -0.3097 -0.2224  0.0356
   7823SM  H11B10275   0.911   0.136   8.738  0.4811  1.0279  1.0279
   7823SM     P10276   0.975  -0.099   8.589  0.1451 -0.0978 -0.3349
   7823SM   O1310277   1.009  -0.243   8.591 -0.6257  0.0590  0.0687
   7823SM   O1410278   0.830  -0.071   8.586  0.7180  0.1548  0.2043
   7823SM   O1110279   1.049  -0.017   8.483  0.8715  0.3177  0.0305
   7823SM   O1210280   1.027  -0.040   8.733 -0.0763  0.0165  0.3171
   7823SM   C1S10281   0.992  -0.015   8.348  0.6669  0.3423  0.4465
   7823SM   H1S10282   0.881  -0.014   8.344  0.6475 -0.6001  0.4247
   7823SM   H1T10283   1.025  -0.107   8.295 -2.8312 -0.1126 -1.1956
   7823SM    NF10284   0.960   0.116   8.138  0.1294 -0.6199 -0.2461
   7823SM   HNF10285   0.990   0.075   8.052 -1.0318 -1.4726 -0.2782
   7823SM   C2S10286   1.032   0.106   8.264 -0.3838  0.2152 -0.1061
   7823SM   H2S10287   1.014   0.191   8.333 -0.6857 -1.3516  1.8368
   7823SM   C3S10288   1.188   0.112   8.228  0.4487 -0.8057 -0.0044
   7823SM   H3S10289   1.210   0.036   8.150  1.0471 -0.4181 -0.2191
   7823SM    O310290   1.280   0.076   8.329  0.1481 -0.0571 -0.0303
   7823SM   HO310291   1.222   0.047   8.400 -1.4896  2.9301  0.0016
   7823SM   C4S10292   1.221   0.234   8.150 -0.0689 -0.0879  0.2875
   7823SM   H4S10293   1.167   0.322   8.189 -0.2848  1.1144 -2.4939
   7823SM   C5S10294   1.286   0.244   8.035 -0.3440 -0.7163 -0.0410
   7823SM   H5S10295   1.317   0.152   7.983  1.2125  0.0777 -0.5765
   7823SM   C6S10296   1.317   0.363   7.953 -0.5974  0.4517  0.9024
   7823SM   H6S10297   1.417   0.351   7.904 -0.3028  1.4995  1.2105
   7823SM   H6T10298   1.327   0.454   8.016 -2.6718  2.0337 -0.8831
   7823SM   C7S10299   1.217   0.389   7.845 -0.3343 -0.3298  0.3632
   7823SM   H7S10300   1.124   0.413   7.902 -0.6387  0.7090 -0.5384
   7823SM   H7T10301   1.203   0.304   7.775 -1.1253 -1.1239  1.4441
   7823SM   C8S10302   1.239   0.517   7.755  0.8071 -0.2961 -0.3026
   7823SM   H8S10303   1.275   0.596   7.824 -0.0183  0.1149 -0.3322
   7823SM   H8T10304   1.143   0.545   7.707  0.7307  1.0082  0.5384
   7823SM   C9S10305   1.348   0.490   7.642  0.7530 -0.1507 -0.2503
   7823SM   H9S10306   1.415   0.408   7.675 -0.3055 -0.8949  0.1130
   7823SM   H9T10307   1.407   0.584   7.636  0.5207  0.0935  1.0086
   7823SM  C10S10308   1.279   0.455   7.516 -0.0929  0.0552  0.0027
   7823SM  H10S10309   1.207   0.534   7.488 -1.0315 -0.5471  0.6257
   7823SM  H10T10310   1.203   0.374   7.525 -0.3925  0.1572 -1.4280
   7823SM  C11S10311   1.379   0.439   7.395  0.3829 -0.2193 -0.2452
   7823SM  H11S10312   1.449   0.355   7.411  0.7885  0.3381  1.0386
   7823SM  H11T10313   1.446   0.528   7.391  0.7834 -0.2745  2.9683
   7823SM  C12S10314   1.306   0.425   7.262  0.3996  0.4190  0.5083
   7823SM  H12S10315   1.256   0.518   7.227  0.7450  0.3613 -0.1402
   7823SM  H12T10316   1.240   0.338   7.281  0.5352  0.2024  0.0044
   7823SM  C13S10317   1.410   0.382   7.161  1.1539 -0.2267  0.7061
   7823SM  H13S10318   1.457   0.286   7.193 -2.7533 -2.7032 -0.3316
   7823SM  H13T10319   1.481   0.467   7.159 -1.8303  2.4573 -1.6856
   7823SM  C14S10320   1.345   0.373   7.016  0.1861  0.8333 -1.0614
   7823SM  H14S10321   1.259   0.303   7.022  0.1145  1.0078  0.7479
   7823SM  H14T10322   1.426   0.330   6.954  0.2103  1.2555 -1.3249
   7823SM  C15S10323   1.301   0.500   6.947 -0.3280 -1.0550  0.6154
   7823SM  H15S10324   1.377   0.575   6.977  0.5993 -1.7201 -0.0146
   7823SM  H15T10325   1.204   0.533   6.991  0.3876 -0.7994  2.0599
   7823SM  C16S10326   1.281   0.499   6.795 -0.3781 -0.3406 -0.6562
   7823SM  H16S10327   1.360   0.435   6.751  0.1488 -0.6196  0.6584
   7823SM  H16T10328   1.294   0.602   6.755 -0.7553  0.3270  0.8768
   7823SM  C17S10329   1.143   0.443   6.754 -0.8945  0.4254 -0.1354
   7823SM  H17S10330   1.066   0.506   6.804 -0.1750  1.7725 -0.6746
   7823SM  H17T10331   1.130   0.344   6.803  0.1762 -0.1498 -0.9747
   7823SM  C18S10332   1.125   0.447   6.606 -0.1644  0.1148 -0.1444
   7823SM  H18S10333   1.186   0.533   6.571  0.7365  0.2854  1.7080
   7823SM  H18T10334   1.018   0.458   6.578  0.4954  0.4009 -2.7151
   7823SM  H18U10335   1.169   0.355   6.563 -2.0913 -0.9259  0.0072
   7823SM   C1F10336   0.828   0.149   8.130 -0.0460 -0.1074 -0.1815
   7823SM    OF10337   0.755   0.171   8.229 -0.3373  0.0375 -0.3641
   7823SM   C2F10338   0.784   0.170   7.985  0.5965  0.0812 -0.4036
   7823SM   H2F10339   0.677   0.138   7.982  0.6487 -0.4682  1.9206
   7823SM   H2G10340   0.840   0.106   7.914  0.1116 -1.6013  0.6705
   7823SM   C3F10341   0.807   0.316   7.943 -0.2147 -0.1012 -0.2387
   7823SM   H3F10342   0.913   0.349   7.940 -0.4276  0.5529 -0.7551
   7823SM   H3G10343   0.754   0.387   8.011  0.6605  0.9166 -0.5903
   7823SM   C4F10344   0.760   0.339   7.792 -0.2424 -0.1236 -0.6468
   7823SM   H4F10345   0.657   0.377   7.780 -0.0622  1.9582  2.8648
   7823SM   H4G10346   0.785   0.247   7.734  1.5428 -1.5735  2.1940
   7823SM   C5F10347   0.854   0.445   7.731  0.1090  0.3379  0.2059
   7823SM   H5F10348   0.957   0.407   7.715 -0.7250 -1.2882 -1.6006
   7823SM   H5G10349   0.863   0.536   7.794  3.3592  0.4996 -0.3195
   7823SM   C6F10350   0.797   0.476   7.587 -0.4365 -0.1443  0.3041
   7823SM   H6F10351   0.708   0.542   7.596  0.7180  1.6039 -0.7376
   7823SM   H6G10352   0.783   0.382   7.530 -2.2972  0.3475 -0.1083
   7823SM   C7F10353   0.897   0.561   7.508  0.0117  0.3946 -0.2202
   7823SM   H7F10354   0.999   0.519   7.519  0.0151  0.4774  0.0685
   7823SM   H7G10355   0.909   0.660   7.555 -2.2811 -0.1155  1.6337
   7823SM   C8F10356   0.857   0.571   7.358 -0.1138 -0.4298  0.3712
   7823SM   H8F10357   0.749   0.597   7.354 -0.0181 -0.0778 -0.0091
   7823SM   H8G10358   0.872   0.469   7.317  3.1854  0.8861 -2.0655
   7823SM   C9F10359   0.936   0.684   7.295 -0.6706  0.6710  0.3015
   7823SM   H9F10360   1.045   0.676   7.316 -0.3467 -0.5859 -1.7143
   7823SM   H9G10361   0.910   0.783   7.338  2.2155  1.3243  0.7913
   7823SM  C10F10362   0.916   0.696   7.133 -0.2134 -0.5029  0.4428
   7823SM  H10F10363   0.807   0.704   7.116 -0.2008 -0.5139  0.3602
   7823SM  H10G10364   0.944   0.598   7.088 -1.0155 -0.1073 -0.9575
   7823SM  C11F10365   0.993   0.816   7.071 -0.6039  0.5307  0.2191
   7823SM  H11F10366   1.099   0.794   7.098 -0.3990  1.2990  0.0872
   7823SM  H11G10367   0.966   0.907   7.129  0.2231 -0.2979  1.9898
   7823SM  C12F10368   0.975   0.821   6.920  0.8342  0.0875  0.6514
   7823SM  H12F10369   0.874   0.866   6.909 -1.9567 -5.0495  1.6366
   7823SM  H12G10370   0.964   0.714   6.891 -0.6735  0.0659  1.2087
   7823SM  C13F10371   1.084   0.873   6.831 -0.2313  0.1636  0.1377
   7823SM  H13F10372   1.183   0.833   6.861 -1.5656 -2.8928  0.8536
   7823SM  H13G10373   1.083   0.983   6.846 -1.6054 -0.0399  1.9685
   7823SM  C14F10374   1.064   0.824   6.689 -0.2266 -0.5681 -0.6270
   7823SM  H14F10375   0.981   0.889   6.653 -1.3472 -1.1026  0.8773
   7823SM  H14G10376   1.036   0.716   6.685  0.4472 -0.7148 -2.5748
   7823SM  C15F10377   1.190   0.839   6.603 -0.2418  0.8558  0.2171
   7823SM  H15F10378   1.277   0.779   6.637 -1.1531  1.5229  4.2590
   7823SM  H15G10379   1.227   0.944   6.603 -0.0028  0.8109  2.2777
   7823SM  C16F10380   1.166   0.802   6.456  0.1821  0.7228  0.9414
   7823SM  H16F10381   1.097   0.876   6.410 -0.2099 -1.2778 -1.9629
   7823SM  H16G10382   1.126   0.700   6.437  2.1833  0.4494 -2.5795
   7823SM  C17F10383   1.297   0.818   6.374 -0.8726 -0.5896  0.1669
   7823SM  H17F10384   1.367   0.736   6.399 -0.5407 -1.7702 -3.9656
   7823SM  H17G10385   1.342   0.913   6.410 -2.4646 -0.4746  2.0116
   7823SM  C18F10386   1.283   0.826   6.223  0.2212  0.6927  0.0660
   7823SM  H18F10387   1.243   0.928   6.204  0.2835  0.3075 -2.3943
   7823SM  H18G10388   1.206   0.750   6.199 -3.2714  4.0923 -0.4381
   7823SM  C19F10389   1.402   0.805   6.136  0.1181 -0.0762  0.1479
   7823SM  H19F10390   1.421   0.695   6.133 -1.1599 -0.3157  0.4468
   7823SM  H19G10391   1.495   0.861   6.159  0.2085 -0.0639 -0.2344
   7823SM  C20F10392   1.357   0.831   5.985 -0.5849  0.3965 -0.5043
   7823SM  H20F10393   1.277   0.761   5.956  1.1907 -2.3557  0.7761
   7823SM  H20G10394   1.445   0.796   5.926 -1.0356 -0.6248 -0.5899
   7823SM  C21F10395   1.314   0.973   5.937 -0.6486 -0.0082  0.0364
   7823SM  H21F10396   1.235   1.027   5.993 -1.6574 -0.8688 -0.5091
   7823SM  H21G10397   1.272   0.974   5.834  0.8359 -0.7907 -0.5952
   7823SM  C22F10398   1.429   1.074   5.924 -0.5225  0.3134  0.1149
   7823SM  H22F10399   1.510   1.036   5.860 -0.4870  0.2303  0.2082
   7823SM  H22G10400   1.479   1.081   6.023  0.4990 -1.0848 -0.2663
   7823SM  C23F10401   1.389   1.204   5.865  0.1083  0.1459  0.2990
   7823SM  H23F10402   1.473   1.246   5.806 -0.0871  0.4773  0.2485
   7823SM  H23G10403   1.356   1.274   5.945 -0.7076  1.0296 -0.7744
   7823SM  H23H10404   1.298   1.193   5.802 -0.5028 -0.2657  1.2185
   7923SM     N10405   6.830   1.312   8.797 -0.3725 -0.6066  0.4920
   7923SM   C1510406   6.784   1.449   8.845 -0.5664  0.5202  0.3909
   7923SM  H15A10407   6.834   1.483   8.935 -1.3111  0.0119  1.0145
   7923SM  H15B10408   6.684   1.444   8.885 -0.3743 -0.5978  0.7848
   7923SM  H15C10409   6.781   1.522   8.766 -2.6894 -2.6142 -2.6949
   7923SM   C1410410   6.942   1.335   8.699 -0.0703 -0.2159  0.5781
   7923SM  H14A10411   6.901   1.397   8.619 -1.3782  0.5877  1.8153
   7923SM  H14B10412   6.967   1.241   8.653 -0.8428 -0.0361 -0.2456
   7923SM  H14C10413   7.029   1.384   8.740 -0.4000  1.4229 -0.5535
   7923SM   C1310414   6.877   1.216   8.897 -0.4482  0.4349 -0.1061
   7923SM  H13A10415   6.972   1.244   8.942  0.0623 -2.8322  1.0787
   7923SM  H13B10416   6.894   1.124   8.844 -2.2837 -0.0177  0.0214
   7923SM  H13C10417   6.811   1.208   8.983  0.6549 -0.3613  0.6994
   7923SM   C1210418   6.720   1.240   8.720  0.3780 -0.0486  0.8956
   7923SM  H12A10419   6.674   1.293   8.638  0.5669  0.0846  0.8728
   7923SM  H12B10420   6.629   1.235   8.777  0.6909 -1.1062  1.3282
   7923SM   C1110421   6.751   1.100   8.666  0.2753  0.2055 -0.4034
   7923SM  H11A10422   6.849   1.097   8.614 -0.0942 -5.4376 -1.4379
   7923SM  H11B10423   6.688   1.080   8.577 -2.0646  0.5112  1.0948
   7923SM     P10424   6.628   0.927   8.811  0.0454  0.0981 -0.3412
   7923SM   O1310425   6.672   0.850   8.932 -1.1372  0.1226  0.4278
   7923SM   O1410426   6.514   1.013   8.839 -0.2339 -0.0801  0.0226
   7923SM   O1110427   6.593   0.823   8.696 -0.0886 -0.0141 -0.2400
   7923SM   O1210428   6.754   1.000   8.773  0.1128  0.2859  0.0005
   7923SM   C1S10429   6.491   0.853   8.600  0.1926  0.3861 -0.1601
   7923SM   H1S10430   6.493   0.957   8.562 -2.7648 -0.3964 -2.8297
   7923SM   H1T10431   6.392   0.831   8.646 -0.0352 -1.7128 -1.5342
   7923SM    NF10432   6.416   0.803   8.376  0.1762  0.4330  0.0184
   7923SM   HNF10433   6.330   0.753   8.373  0.5488 -0.2883  0.6728
   7923SM   C2S10434   6.497   0.752   8.480 -0.7331 -0.3892  0.1369
   7923SM   H2S10435   6.600   0.764   8.441 -0.3265 -1.4431  0.8322
   7923SM   C3S10436   6.476   0.609   8.520  0.0038  1.1545  0.5995
   7923SM   H3S10437   6.368   0.591   8.535  0.4498 -0.8104  1.8264
   7923SM    O310438   6.541   0.562   8.638 -0.2712 -0.4689 -0.0501
   7923SM   HO310439   6.564   0.647   8.677  1.7977 -0.7040 -0.6620
   7923SM   C4S10440   6.517   0.525   8.401 -0.2541 -0.9747  0.4122
   7923SM   H4S10441   6.442   0.513   8.322 -0.8828 -0.2448  0.8772
   7923SM   C5S10442   6.640   0.477   8.367 -0.6396  0.8152  0.1158
   7923SM   H5S10443   6.721   0.502   8.436  0.5976  0.7357 -1.2511
   7923SM   C6S10444   6.679   0.427   8.232 -0.4079  0.0255 -0.4172
   7923SM   H6S10445   6.681   0.317   8.249 -3.6408 -0.2611 -1.2584
   7923SM   H6T10446   6.782   0.464   8.213  0.6030 -1.7639  1.1390
   7923SM   C7S10447   6.567   0.451   8.126 -0.3665 -0.3291  0.4203
   7923SM   H7S10448   6.522   0.553   8.130 -0.9349 -0.4301 -2.1585
   7923SM   H7T10449   6.489   0.383   8.166 -1.1080  0.5582  0.5235
   7923SM   C8S10450   6.610   0.400   7.985  0.4851  0.2028 -0.2931
   7923SM   H8S10451   6.644   0.294   7.987  1.9071  0.5999 -1.2430
   7923SM   H8T10452   6.703   0.456   7.960  1.7534 -2.0417 -0.8924
   7923SM   C9S10453   6.502   0.409   7.876  0.3133 -0.5436  0.3800
   7923SM   H9S10454   6.449   0.507   7.872 -1.0830 -1.2957  0.1782
   7923SM   H9T10455   6.428   0.334   7.909  1.8517 -1.4325  1.9727
   7923SM  C10S10456   6.547   0.383   7.731  0.1309 -0.1894 -0.5222
   7923SM  H10S10457   6.593   0.282   7.734  1.5030  0.4374  1.4166
   7923SM  H10T10458   6.637   0.444   7.711  0.4792 -1.1533 -2.0526
   7923SM  C11S10459   6.437   0.404   7.630 -0.2913 -0.0393  0.4818
   7923SM  H11S10460   6.409   0.511   7.629  1.6708  0.5679 -1.9180
   7923SM  H11T10461   6.353   0.334   7.644  0.4309 -1.3163 -1.1622
   7923SM  C12S10462   6.483   0.385   7.484  0.1733 -0.2662  1.0216
   7923SM  H12S10463   6.551   0.299   7.465  1.9776  1.3474 -0.2564
   7923SM  H12T10464   6.549   0.468   7.453  0.1243 -0.3499  0.6779
   7923SM  C13S10465   6.367   0.381   7.379 -0.1196 -0.8191  0.3406
   7923SM  H13S10466   6.295   0.461   7.407  1.7976  1.6129 -1.2648
   7923SM  H13T10467   6.304   0.289   7.380 -0.9220 -0.2869  2.0676
   7923SM  C14S10468   6.399   0.405   7.229  0.4868  0.0832 -0.2319
   7923SM  H14S10469   6.309   0.373   7.173  1.5984 -0.2237 -1.9024
   7923SM  H14T10470   6.472   0.328   7.197 -0.6221 -0.3651 -1.8089
   7923SM  C15S10471   6.439   0.544   7.184 -0.6218 -0.3329 -0.3548
   7923SM  H15S10472   6.522   0.580   7.248  0.4348 -1.9068 -0.7859
   7923SM  H15T10473   6.345   0.599   7.206 -1.4459 -1.4848 -0.8795
   7923SM  C16S10474   6.459   0.553   7.032 -1.1903 -0.8443  0.0582
   7923SM  H16S10475   6.391   0.476   6.988 -0.1331 -1.4793 -0.5115
   7923SM  H16T10476   6.567   0.532   7.017 -1.2761 -2.7546  1.7263
   7923SM  C17S10477   6.424   0.695   6.986  0.2634  0.0274 -0.0508
   7923SM  H17S10478   6.481   0.775   7.039  0.7926 -0.1853 -0.2897
   7923SM  H17T10479   6.317   0.721   6.997 -0.0230 -0.2358 -1.8615
   7923SM  C18S10480   6.457   0.707   6.829  0.3617 -0.4442  0.0830
   7923SM  H18S10481   6.566   0.698   6.808  0.3733  2.7709 -1.9066
   7923SM  H18T10482   6.431   0.808   6.792  2.0081  0.1127  0.3694
   7923SM  H18U10483   6.412   0.631   6.762  0.1113 -0.7579  0.5934
   7923SM   C1F10484   6.441   0.915   8.310 -0.1452 -0.1995  0.6607
   7923SM    OF10485   6.551   0.970   8.298  0.0600 -0.6408  0.4162
   7923SM   C2F10486   6.323   0.979   8.236 -0.0034 -0.4212 -0.1311
   7923SM   H2F10487   6.248   0.999   8.316  0.8655 -0.8381  0.8188
   7923SM   H2G10488   6.275   0.908   8.165 -0.1327 -0.1074 -0.3568
   7923SM   C3F10489   6.370   1.096   8.149 -0.5393  0.2036 -0.3340
   7923SM   H3F10490   6.450   1.053   8.085  1.3929 -1.0696  2.7296
   7923SM   H3G10491   6.421   1.165   8.219 -1.4630  1.4211 -0.8376
   7923SM   C4F10492   6.258   1.163   8.068  0.1282 -0.1070  0.1585
   7923SM   H4F10493   6.197   1.220   8.141  2.0554 -0.1382  1.8775
   7923SM   H4G10494   6.201   1.089   8.008 -0.3846 -0.5886  1.2089
   7923SM   C5F10495   6.314   1.272   7.975  0.4840  0.7513  0.5405
   7923SM   H5F10496   6.377   1.348   8.028 -1.8045  1.6583  2.1072
   7923SM   H5G10497   6.223   1.325   7.940 -1.2948 -1.8104  1.0706
   7923SM   C6F10498   6.380   1.218   7.846  0.2213  0.1965  0.1466
   7923SM   H6F10499   6.336   1.128   7.799 -1.4319  1.6024 -1.1404
   7923SM   H6G10500   6.486   1.193   7.869 -0.2296 -1.1301  0.9205
   7923SM   C7F10501   6.375   1.319   7.731  0.0197  0.5564 -0.2500
   7923SM   H7F10502   6.400   1.426   7.748  2.6935  0.5495 -3.1581
   7923SM   H7G10503   6.272   1.330   7.690 -0.4341  1.0655  0.9659
   7923SM   C8F10504   6.459   1.274   7.607  0.4253 -0.4258 -0.2144
   7923SM   H8F10505   6.429   1.172   7.576  1.0272 -0.7731  0.3216
   7923SM   H8G10506   6.567   1.262   7.630  0.7296  0.4026 -1.1626
   7923SM   C9F10507   6.435   1.364   7.486 -0.7102  0.8757  0.5902
   7923SM   H9F10508   6.473   1.465   7.512  2.9827  0.3649 -1.8891
   7923SM   H9G10509   6.326   1.352   7.468 -0.7116 -1.8991  1.8612
   7923SM  C10F10510   6.528   1.326   7.360  0.1144  0.5854  0.3158
   7923SM  H10F10511   6.628   1.365   7.387  0.9674 -0.0520 -1.7194
   7923SM  H10G10512   6.491   1.371   7.266  1.9952 -0.9601 -1.2491
   7923SM  C11F10513   6.517   1.174   7.336 -0.1861 -0.0041 -0.3883
   7923SM  H11F10514   6.413   1.142   7.314  0.0512 -1.0196 -0.0693
   7923SM  H11G10515   6.553   1.110   7.420  0.2578  1.3766  0.5008
   7923SM  C12F10516   6.606   1.135   7.214  0.4097 -0.4391 -0.2238
   7923SM  H12F10517   6.633   1.029   7.196 -3.1950 -1.0761 -3.2705
   7923SM  H12G10518   6.702   1.190   7.212  0.5436 -0.6789 -0.7497
   7923SM  C13F10519   6.523   1.171   7.081  0.0859  0.3532 -0.2594
   7923SM  H13F10520   6.497   1.278   7.069  2.4825  0.8901 -1.0504
   7923SM  H13G10521   6.428   1.112   7.086  0.2752  0.1532  1.6381
   7923SM  C14F10522   6.608   1.149   6.957 -0.5435  0.0430  0.2593
   7923SM  H14F10523   6.641   1.044   6.945 -0.3562  0.2517 -1.3252
   7923SM  H14G10524   6.698   1.213   6.969 -0.6750  0.1166  0.8585
   7923SM  C15F10525   6.525   1.177   6.826 -0.3950  1.0157  0.5627
   7923SM  H15F10526   6.515   1.285   6.802  1.6701  0.7887 -1.6620
   7923SM  H15G10527   6.429   1.124   6.838  0.2857 -0.2768  0.4193
   7923SM  C16F10528   6.587   1.110   6.702 -0.5898  0.2693  0.1033
   7923SM  H16F10529   6.595   0.999   6.706 -0.4646  0.1851 -1.7417
   7923SM  H16G10530   6.693   1.143   6.701  0.0464 -1.6655 -0.3958
   7923SM  C17F10531   6.518   1.140   6.567  0.1333 -0.0958 -0.1527
   7923SM  H17F10532   6.511   1.250   6.559 -0.3787 -0.2206 -1.7998
   7923SM  H17G10533   6.413   1.106   6.579 -0.1928  1.0676  0.3312
   7923SM  C18F10534   6.602   1.096   6.439 -0.2288  0.8124  0.4434
   7923SM  H18F10535   6.600   0.985   6.451 -1.1139  1.0511  3.0448
   7923SM  H18G10536   6.707   1.131   6.443  0.2553 -0.6657  2.0431
   7923SM  C19F10537   6.535   1.141   6.309  0.6721  0.6825  0.1043
   7923SM  H19F10538   6.527   1.252   6.307 -2.0296  0.6226  1.9362
   7923SM  H19G10539   6.432   1.103   6.317  1.0491  0.0108  2.6466
   7923SM  C20F10540   6.597   1.073   6.184  0.8044  0.3324 -0.4955
   7923SM  H20F10541   6.575   0.965   6.202 -2.1871  0.5631 -2.1797
   7923SM  H20G10542   6.705   1.091   6.168  0.8610  0.9551  0.5215
   7923SM  C21F10543   6.534   1.115   6.051 -0.0519  0.6814  0.7487
   7923SM  H21F10544   6.606   1.185   6.003 -0.8944  1.8174  1.0998
   7923SM  H21G10545   6.434   1.163   6.056 -0.0240  1.2978 -2.4938
   7923SM  C22F10546   6.524   0.987   5.975  0.0805 -0.0391  0.5536
   7923SM  H22F10547   6.437   0.922   5.996 -2.0030  1.1943 -3.2330
   7923SM  H22G10548   6.621   0.933   5.987  0.6263  0.3673 -1.5584
   7923SM  C23F10549   6.512   1.013   5.825 -0.1944 -0.5029 -0.1947
   7923SM  H23F10550   6.507   0.918   5.767 -1.3615 -0.9852  0.6504
   7923SM  H23G10551   6.597   1.071   5.782  1.5496 -1.9944  1.0499
   7923SM  H23H10552   6.419   1.070   5.803 -0.2013 -0.5231 -0.2191
   8023SM     N10553   7.343   2.383   8.862  0.2995 -0.2076  0.0641
   8023SM   C1510554   7.302   2.273   8.774  0.2599 -0.1557  0.3859
   8023SM  H15A10555   7.216   2.222   8.815  2.1912 -1.1329  3.5698
   8023SM  H15B10556   7.384   2.204   8.764  0.2555 -0.0560 -0.3865
   8023SM  H15C10557   7.268   2.305   8.677 -0.6144 -0.9578  0.4176
   8023SM   C1410558   7.454   2.459   8.796 -0.1125  0.5342  0.4217
   8023SM  H14A10559   7.485   2.536   8.865 -2.7436  2.9343 -0.8376
   8023SM  H14B10560   7.429   2.496   8.697  0.4077 -0.3565 -0.0540
   8023SM  H14C10561   7.535   2.389   8.784 -0.4601  0.3027 -0.7264
   8023SM   C1310562   7.214   2.469   8.864 -0.2480  0.0704  0.0094
   8023SM  H13A10563   7.227   2.555   8.928  2.7062  0.2233 -0.6525
   8023SM  H13B10564   7.132   2.411   8.904 -0.1842  0.1317  0.2324
   8023SM  H13C10565   7.189   2.508   8.767 -1.8103  1.3863  0.8816
   8023SM   C1210566   7.381   2.318   8.996  0.0912 -0.3822  0.7206
   8023SM  H12A10567   7.295   2.263   9.031  0.1994 -0.7387  0.4296
   8023SM  H12B10568   7.405   2.400   9.062 -1.2573  2.3093 -1.8925
   8023SM   C1110569   7.497   2.220   9.004 -0.1708  0.2088  0.5944
   8023SM  H11A10570   7.521   2.197   9.110 -0.3365  2.6172  1.2271
   8023SM  H11B10571   7.588   2.268   8.962  0.0380 -1.5230 -1.1005
   8023SM     P10572   7.612   2.001   8.900 -0.5614 -0.0701 -0.3020
   8023SM   O1310573   7.700   2.063   8.798  0.1234 -0.2910  0.1904
   8023SM   O1410574   7.671   1.967   9.030  0.1993 -0.6022  0.7671
   8023SM   O1110575   7.546   1.880   8.837  0.1440 -0.6051  0.1917
   8023SM   O1210576   7.490   2.110   8.918 -0.4135  0.0916  0.0527
   8023SM   C1S10577   7.454   1.885   8.725  0.8450 -0.6860 -0.4199
   8023SM   H1S10578   7.403   1.982   8.706  0.2011 -1.0177 -0.3754
   8023SM   H1T10579   7.372   1.813   8.740 -0.7518  1.0060 -0.6403
   8023SM    NF10580   7.449   1.854   8.476  0.3790 -0.6107 -0.0037
   8023SM   HNF10581   7.402   1.779   8.430 -0.4126 -0.3030  0.2948
   8023SM   C2S10582   7.533   1.839   8.599 -0.5601 -0.5701  0.3903
   8023SM   H2S10583   7.627   1.896   8.587  0.9306 -2.7134  1.2625
   8023SM   C3S10584   7.585   1.693   8.612 -0.2373 -0.5832 -0.3435
   8023SM   H3S10585   7.498   1.631   8.643  0.4679 -1.5780 -0.2931
   8023SM    O310586   7.669   1.676   8.721  0.3665  0.0647 -0.0702
   8023SM   HO310587   7.656   1.755   8.773 -0.2026 -0.3722  0.4614
   8023SM   C4S10588   7.640   1.640   8.478  0.1583  0.1488 -0.2761
   8023SM   H4S10589   7.567   1.592   8.411 -0.0611 -0.7272  0.5690
   8023SM   C5S10590   7.767   1.658   8.434  0.4718  0.4664 -0.0483
   8023SM   H5S10591   7.846   1.707   8.493  0.0696  1.6735 -0.4901
   8023SM   C6S10592   7.814   1.618   8.289 -0.6718 -0.3105 -0.5623
   8023SM   H6S10593   7.873   1.527   8.315  0.6621  0.9085  0.8596
   8023SM   H6T10594   7.888   1.692   8.253  0.0597 -1.4979 -1.6003
   8023SM   C7S10595   7.728   1.589   8.160 -0.6011 -0.1157  0.3237
   8023SM   H7S10596   7.659   1.505   8.182 -0.7348 -0.5999 -1.7776
   8023SM   H7T10597   7.801   1.556   8.083 -0.2572  3.4689 -1.0490
   8023SM   C8S10598   7.655   1.715   8.110 -0.1298  0.1236 -0.0444
   8023SM   H8S10599   7.732   1.793   8.089 -0.1096  0.0389 -0.2940
   8023SM   H8T10600   7.595   1.761   8.192 -0.7816 -1.5180  0.4275
   8023SM   C9S10601   7.568   1.693   7.989 -0.1475 -0.8685 -0.1671
   8023SM   H9S10602   7.528   1.791   7.954  1.9322  0.3083  0.5576
   8023SM   H9T10603   7.481   1.634   8.024 -0.3177  0.4884  1.8240
   8023SM  C10S10604   7.634   1.634   7.865 -0.5784  0.4133  0.2158
   8023SM  H10S10605   7.651   1.528   7.894 -1.5177  0.5493  1.3557
   8023SM  H10T10606   7.733   1.682   7.850 -0.5013  1.2225  2.8229
   8023SM  C11S10607   7.548   1.649   7.748  0.3439  0.2171  0.4725
   8023SM  H11S10608   7.523   1.756   7.734 -1.5573 -0.5145 -2.5041
   8023SM  H11T10609   7.461   1.584   7.771 -0.0729  0.2929 -0.8293
   8023SM  C12S10610   7.618   1.609   7.615 -0.2215 -0.8089 -0.0674
   8023SM  H12S10611   7.645   1.502   7.629 -3.3734 -2.0164 -2.2285
   8023SM  H12T10612   7.713   1.659   7.588  0.2683 -2.6378 -2.0433
   8023SM  C13S10613   7.521   1.584   7.499 -0.1409 -0.1276 -0.3405
   8023SM  H13S10614   7.455   1.673   7.490  1.8314  1.7010  1.7497
   8023SM  H13T10615   7.452   1.504   7.532 -0.9311  0.5057 -0.4243
   8023SM  C14S10616   7.594   1.551   7.372  0.0125  0.1813  0.4857
   8023SM  H14S10617   7.649   1.458   7.398 -0.4036  0.2434  1.6654
   8023SM  H14T10618   7.658   1.638   7.346  0.5385 -0.7239 -1.3938
   8023SM  C15S10619   7.505   1.535   7.243  0.4989  0.1222  0.2458
   8023SM  H15S10620   7.426   1.612   7.229  0.4051  0.0040  0.1221
   8023SM  H15T10621   7.439   1.446   7.250 -1.5877  1.5821  0.0282
   8023SM  C16S10622   7.592   1.536   7.119 -0.0336 -0.0342 -0.4759
   8023SM  H16S10623   7.677   1.464   7.124 -0.6551 -0.7468  0.1883
   8023SM  H16T10624   7.633   1.638   7.108 -0.2861 -0.1179 -2.3559
   8023SM  C17S10625   7.511   1.496   6.992 -0.0668 -0.1772  0.3004
   8023SM  H17S10626   7.426   1.567   6.980 -0.1283 -0.5429 -1.9141
   8023SM  H17T10627   7.476   1.391   6.996  0.4714 -0.3451  0.6838
   8023SM  C18S10628   7.592   1.510   6.861 -0.5758  0.4156  0.5185
   8023SM  H18S10629   7.674   1.435   6.868 -0.5597  0.5277  1.8060
   8023SM  H18T10630   7.629   1.614   6.848 -2.6595  1.3462  1.5760
   8023SM  H18U10631   7.529   1.489   6.772 -1.8372  1.3102  1.1664
   8023SM   C1F10632   7.426   1.979   8.428  0.2765 -0.1226 -0.2276
   8023SM    OF10633   7.462   2.084   8.479  0.8937 -0.1540  0.5396
   8023SM   C2F10634   7.348   1.977   8.299 -0.3470  0.2249 -0.1068
   8023SM   H2F10635   7.239   1.960   8.316 -0.4104  2.4260  2.2810
   8023SM   H2G10636   7.377   1.883   8.248 -1.0641 -0.0343 -0.0443
   8023SM   C3F10637   7.366   2.100   8.206 -0.0477  0.1899 -0.0163
   8023SM   H3F10638   7.316   2.181   8.264 -2.7572 -1.7746  0.5877
   8023SM   H3G10639   7.302   2.080   8.117 -0.8112 -1.8361  0.9359
   8023SM   C4F10640   7.510   2.134   8.166 -0.5736  0.4291 -0.3253
   8023SM   H4F10641   7.558   2.035   8.152 -1.0359 -0.0113  0.9994
   8023SM   H4G10642   7.559   2.181   8.254 -0.2598  1.0118 -0.8069
   8023SM   C5F10643   7.510   2.221   8.042  0.4468  0.1481  0.2186
   8023SM   H5F10644   7.441   2.177   7.966 -0.0458 -1.0430  1.2992
   8023SM   H5G10645   7.611   2.222   7.997  0.2879 -0.9250 -0.1860
   8023SM   C6F10646   7.458   2.366   8.070 -0.6918 -0.0521  0.3783
   8023SM   H6F10647   7.533   2.424   8.128 -0.5338 -0.0878  0.2096
   8023SM   H6G10648   7.370   2.351   8.137 -0.9292  1.5459  0.4540
   8023SM   C7F10649   7.403   2.445   7.950  0.0458 -0.2423 -0.1419
   8023SM   H7F10650   7.488   2.464   7.881 -0.8006  2.7507 -0.4936
   8023SM   H7G10651   7.365   2.544   7.982 -1.6738 -0.8731 -0.0702
   8023SM   C8F10652   7.287   2.383   7.868  0.6158  0.3331 -0.7096
   8023SM   H8F10653   7.202   2.360   7.935  1.5381  1.6676  1.0177
   8023SM   H8G10654   7.316   2.296   7.806 -0.7678  0.5579 -1.7133
   8023SM   C9F10655   7.230   2.496   7.775  0.1462  0.6636 -0.2630
   8023SM   H9F10656   7.317   2.523   7.711 -0.2297  0.4326 -0.8816
   8023SM   H9G10657   7.204   2.589   7.831 -1.5637 -0.8652  1.6482
   8023SM  C10F10658   7.110   2.446   7.701 -0.0229 -0.5062  0.0465
   8023SM  H10F10659   7.064   2.525   7.637 -1.2036 -0.3110  1.1169
   8023SM  H10G10660   7.029   2.428   7.774 -0.2026  0.4109  0.0859
   8023SM  C11F10661   7.145   2.334   7.604  0.2604  0.2734 -0.4675
   8023SM  H11F10662   7.103   2.243   7.652 -1.3519  0.9179 -0.5926
   8023SM  H11G10663   7.255   2.326   7.604  0.3269  1.0903 -0.5099
   8023SM  C12F10664   7.084   2.359   7.465 -0.7214  0.6731  0.8149
   8023SM  H12F10665   7.123   2.458   7.430 -1.2413 -0.1511 -2.4938
   8023SM  H12G10666   6.973   2.361   7.469 -0.9298 -1.4915 -1.4589
   8023SM  C13F10667   7.103   2.260   7.353 -0.2655  0.7143 -0.3284
   8023SM  H13F10668   7.044   2.169   7.375 -0.5821  1.0231  0.1280
   8023SM  H13G10669   7.211   2.239   7.342 -0.1683  1.0834 -0.1036
   8023SM  C14F10670   7.048   2.313   7.227  0.0162 -0.4273  0.4299
   8023SM  H14F10671   7.082   2.419   7.228 -1.3320  0.0311  0.8136
   8023SM  H14G10672   6.939   2.335   7.222 -0.2991 -1.7531  1.1022
   8023SM  C15F10673   7.098   2.248   7.100 -0.2182 -0.0661 -0.2921
   8023SM  H15F10674   7.205   2.271   7.081  0.2637 -1.1050  1.0065
   8023SM  H15G10675   7.043   2.294   7.015 -1.7279  0.2850  0.8286
   8023SM  C16F10676   7.065   2.096   7.095  0.4339 -0.3022 -0.6968
   8023SM  H16F10677   6.960   2.067   7.115 -0.0075  0.6380 -1.5759
   8023SM  H16G10678   7.125   2.049   7.176  0.3724 -1.4601 -1.2985
   8023SM  C17F10679   7.093   2.035   6.959 -0.7739  0.5020 -1.1599
   8023SM  H17F10680   7.198   2.061   6.936 -0.2650  0.3288  0.8265
   8023SM  H17G10681   7.029   2.072   6.875 -0.9958 -2.0845 -2.2130
   8023SM  C18F10682   7.080   1.876   6.972  0.0201  0.0934 -0.0840
   8023SM  H18F10683   6.979   1.858   7.016  0.3779  0.6074  0.9848
   8023SM  H18G10684   7.158   1.832   7.038 -1.0042 -2.6992 -0.5854
   8023SM  C19F10685   7.083   1.787   6.846 -0.6255 -0.3314  0.7890
   8023SM  H19F10686   7.013   1.832   6.772  0.6155 -0.9282 -0.7771
   8023SM  H19G10687   7.053   1.683   6.874  1.9561 -1.2880  0.1963
   8023SM  C20F10688   7.219   1.781   6.766  0.5330 -0.2813 -0.4082
   8023SM  H20F10689   7.307   1.755   6.827  1.4967  2.8282 -0.3079
   8023SM  H20G10690   7.255   1.877   6.724 -2.1681  1.1185  0.2088
   8023SM  C21F10691   7.199   1.683   6.644  0.1127  0.7898 -0.3475
   8023SM  H21F10692   7.114   1.722   6.585 -0.3872  3.7709  2.1098
   8023SM  H21G10693   7.169   1.587   6.692  2.1560 -0.4900 -1.4370
   8023SM  C22F10694   7.328   1.654   6.564  0.1558 -0.3608 -0.2024
   8023SM  H22F10695   7.404   1.647   6.645  0.2406 -0.1745 -0.2656
   8023SM  H22G10696   7.360   1.745   6.509  1.5489 -0.1512  0.9010
   8023SM  C23F10697   7.323   1.535   6.464  0.1424 -0.1562  0.2849
   8023SM  H23F10698   7.243   1.536   6.387 -0.1919 -0.2869  0.6225
   8023SM  H23G10699   7.304   1.447   6.529  1.7774  0.5994  1.8617
   8023SM  H23H10700   7.424   1.516   6.422 -0.0873 -1.3064  0.2042
   8123SM     N10701   3.974   4.426   3.939 -0.3908 -0.3411 -0.5554
   8123SM   C1510702   3.821   4.399   3.942  0.0086  0.5895  0.2183
   8123SM  H15A10703   3.793   4.295   3.949  0.4846  0.4254 -0.2224
   8123SM  H15B10704   3.774   4.443   3.856 -2.0092 -0.9911  0.4354
   8123SM  H15C10705   3.789   4.451   4.031  0.4968  0.0678  0.7144
   8123SM   C1410706   4.042   4.338   3.839  0.0915 -0.0408 -0.3512
   8123SM  H14A10707   4.134   4.384   3.808  0.8717 -1.1757  0.1946
   8123SM  H14B10708   3.984   4.334   3.747 -0.4472  1.2341 -0.0854
   8123SM  H14C10709   4.044   4.232   3.861 -0.8387  0.2172  1.0747
   8123SM   C1310710   3.991   4.569   3.898 -0.5634  0.0351 -0.6045
   8123SM  H13A10711   4.092   4.604   3.912 -0.4985 -0.6999  0.8928
   8123SM  H13B10712   3.930   4.633   3.960  0.1371  0.3286 -0.1991
   8123SM  H13C10713   3.958   4.586   3.797 -1.3621  0.3903 -0.2909
   8123SM   C1210714   4.034   4.395   4.077  0.5749 -0.2554 -0.3756
   8123SM  H12A10715   4.140   4.410   4.070  0.7568 -1.9303 -2.0539
   8123SM  H12B10716   4.009   4.293   4.100  1.4710 -0.4500 -0.2547
   8123SM   C1110717   3.994   4.486   4.195 -0.3280  0.0047  0.4440
   8123SM  H11A10718   4.054   4.577   4.171  1.3722 -1.7283 -2.3944
   8123SM  H11B10719   4.031   4.439   4.288 -1.9324 -1.3899  0.4254
   8123SM     P10720   3.783   4.595   4.306  0.2402 -0.5173 -0.3248
   8123SM   O1310721   3.685   4.687   4.238  0.0520 -0.1752  0.2821
   8123SM   O1410722   3.721   4.530   4.419  0.6903  0.2256 -0.1957
   8123SM   O1110723   3.906   4.671   4.361  0.4278 -0.1483  0.5882
   8123SM   O1210724   3.852   4.492   4.208 -0.2297  0.2079 -0.2063
   8123SM   C1S10725   3.885   4.798   4.431  0.2896  0.6355  1.0274
   8123SM   H1S10726   3.786   4.842   4.404  0.6230  0.7848 -0.0066
   8123SM   H1T10727   3.959   4.869   4.388 -0.8766 -0.2433 -2.8070
   8123SM    NF10728   3.885   4.921   4.646  0.6604 -0.6080  0.5664
   8123SM   HNF10729   3.943   4.979   4.701  0.1603  2.7097 -2.0822
   8123SM   C2S10730   3.914   4.793   4.578 -0.0616  0.3113  0.4512
   8123SM   H2S10731   3.844   4.720   4.625  1.2449 -1.0680  0.3199
   8123SM   C3S10732   4.055   4.737   4.597  0.6360 -0.1077 -0.0421
   8123SM   H3S10733   4.132   4.815   4.578  1.6895 -1.0421  0.2903
   8123SM    O310734   4.103   4.648   4.505  0.5235  0.3689  0.0526
   8123SM   HO310735   4.036   4.664   4.438 -0.4936  0.0387  0.9685
   8123SM   C4S10736   4.088   4.696   4.737  0.3920  0.2164  0.0475
   8123SM   H4S10737   4.138   4.779   4.790  1.5528 -0.0752 -0.5463
   8123SM   C5S10738   4.083   4.576   4.793 -0.4056 -0.0025  0.4259
   8123SM   H5S10739   4.068   4.494   4.721  0.3634 -0.4604  0.7805
   8123SM   C6S10740   4.131   4.531   4.921 -0.0310  0.1814 -0.6337
   8123SM   H6S10741   4.188   4.611   4.973  1.0229 -1.4211  0.7491
   8123SM   H6T10742   4.207   4.453   4.902  0.7817  1.0044 -0.8708
   8123SM   C7S10743   4.017   4.460   5.005  1.0125  0.4164  0.3468
   8123SM   H7S10744   3.994   4.362   4.957  2.6080  0.8600 -1.4624
   8123SM   H7T10745   3.932   4.531   4.998  0.3412 -0.3936  0.0487
   8123SM   C8S10746   4.048   4.444   5.158  0.6533  0.0238  0.1522
   8123SM   H8S10747   4.067   4.545   5.199  0.7153  0.6199 -1.2639
   8123SM   H8T10748   4.132   4.373   5.173  0.7491 -0.4355 -2.1400
   8123SM   C9S10749   3.921   4.390   5.234 -0.2778  0.6487 -0.3401
   8123SM   H9S10750   3.900   4.294   5.183 -0.0054  1.4943 -2.0961
   8123SM   H9T10751   3.833   4.457   5.219 -0.4055  0.9670  1.5060
   8123SM  C10S10752   3.951   4.362   5.387 -0.2193  0.4334  0.1526
   8123SM  H10S10753   4.018   4.444   5.420  0.0366 -0.5682  2.2519
   8123SM  H10T10754   4.004   4.264   5.393 -1.8607 -0.7007 -2.2060
   8123SM  C11S10755   3.818   4.356   5.470 -1.0317  0.4780  0.0877
   8123SM  H11S10756   3.762   4.270   5.428 -0.8251 -0.0581  0.8985
   8123SM  H11T10757   3.760   4.447   5.441  1.4271  2.7618  1.8037
   8123SM  C12S10758   3.835   4.344   5.623  0.4895 -0.1407 -0.3328
   8123SM  H12S10759   3.743   4.293   5.659  2.0536 -2.2098  0.9201
   8123SM  H12T10760   3.850   4.444   5.670  0.0831 -0.2763  0.0891
   8123SM  C13S10761   3.947   4.258   5.668 -0.7908  0.3787  0.4127
   8123SM  H13S10762   4.047   4.292   5.634  0.2103  2.3734  4.7562
   8123SM  H13T10763   3.940   4.154   5.628  0.1932  0.9332 -1.3266
   8123SM  C14S10764   3.962   4.252   5.824 -0.1659  0.0628 -0.2647
   8123SM  H14S10765   3.876   4.193   5.864  2.0609 -2.1952  1.6109
   8123SM  H14T10766   3.959   4.354   5.868 -1.4010 -0.1984  0.3281
   8123SM  C15S10767   4.074   4.163   5.874 -0.3621 -0.1794  1.1035
   8123SM  H15S10768   4.081   4.064   5.825 -0.6206  0.3286  0.0108
   8123SM  H15T10769   4.069   4.137   5.982  0.6491  1.9702  1.7291
   8123SM  C16S10770   4.210   4.234   5.840 -0.0447  0.6225 -0.1068
   8123SM  H16S10771   4.224   4.340   5.871  2.0327  1.0167 -2.1153
   8123SM  H16T10772   4.215   4.224   5.729  0.6546 -0.6487  0.0184
   8123SM  C17S10773   4.339   4.165   5.890 -0.3846 -0.2727  0.7576
   8123SM  H17S10774   4.344   4.066   5.841  3.7243 -0.6306  1.5149
   8123SM  H17T10775   4.331   4.159   6.001 -1.2478  0.1129  0.7268
   8123SM  C18S10776   4.466   4.238   5.840  0.5559  0.2727  0.1749
   8123SM  H18S10777   4.473   4.250   5.730  0.9906  0.8751  0.2639
   8123SM  H18T10778   4.556   4.185   5.877  0.7193 -1.1337 -2.0629
   8123SM  H18U10779   4.467   4.344   5.875  2.2294  0.6930 -1.0307
   8123SM   C1F10780   3.758   4.973   4.651 -0.2966  0.7126 -0.9146
   8123SM    OF10781   3.669   4.909   4.601  0.4162 -0.3648  0.0913
   8123SM   C2F10782   3.730   5.098   4.733 -0.3427  0.4015  0.5079
   8123SM   H2F10783   3.710   5.185   4.667 -0.6406 -0.6465 -0.8309
   8123SM   H2G10784   3.821   5.130   4.788  0.4691  0.0763 -0.6034
   8123SM   C3F10785   3.626   5.083   4.839 -0.0979 -0.1814  0.9737
   8123SM   H3F10786   3.648   4.990   4.896 -0.0755 -0.8241 -0.0608
   8123SM   H3G10787   3.536   5.060   4.779  1.0757 -0.6222 -0.7076
   8123SM   C4F10788   3.608   5.209   4.933  1.0550 -0.6460 -0.9837
   8123SM   H4F10789   3.581   5.299   4.874 -3.9673 -0.1548  1.5081
   8123SM   H4G10790   3.695   5.235   4.997 -0.3079  4.2504 -0.7038
   8123SM   C5F10791   3.481   5.185   5.029 -0.2722 -0.0911  0.0300
   8123SM   H5F10792   3.399   5.146   4.963  0.1101 -0.6894 -0.1030
   8123SM   H5G10793   3.466   5.287   5.070 -1.1428 -0.3911  0.4918
   8123SM   C6F10794   3.489   5.084   5.135 -0.3948 -0.1026 -0.0542
   8123SM   H6F10795   3.571   5.123   5.199  0.1847 -0.7443 -0.3800
   8123SM   H6G10796   3.511   4.982   5.097 -0.6553 -0.6942  1.3167
   8123SM   C7F10797   3.360   5.085   5.217 -0.0007  0.0714  0.1208
   8123SM   H7F10798   3.283   5.035   5.154  2.0313 -1.8902 -0.9413
   8123SM   H7G10799   3.328   5.189   5.237 -0.0548  0.0459  0.1656
   8123SM   C8F10800   3.382   5.002   5.345 -0.8604  0.4292 -0.3484
   8123SM   H8F10801   3.488   5.021   5.375 -0.8549 -0.6776  0.4242
   8123SM   H8G10802   3.380   4.895   5.315  2.0703  0.3590 -0.5532
   8123SM   C9F10803   3.275   5.021   5.448  0.4065 -0.1806  0.2655
   8123SM   H9F10804   3.178   4.989   5.403 -0.0993  2.1063 -0.4236
   8123SM   H9G10805   3.263   5.131   5.459  2.0142  0.1793 -1.2154
   8123SM  C10F10806   3.300   4.949   5.583  0.0271  0.0867  0.2208
   8123SM  H10F10807   3.391   4.986   5.634 -0.8708 -1.6654  3.3968
   8123SM  H10G10808   3.322   4.843   5.557  0.4901  0.2600 -0.1048
   8123SM  C11F10809   3.189   4.952   5.678  0.4174  0.4625 -0.2732
   8123SM  H11F10810   3.111   4.886   5.635  0.2019  1.0730 -0.8283
   8123SM  H11G10811   3.147   5.055   5.671  2.9186  1.7388  1.6727
   8123SM  C12F10812   3.230   4.925   5.818  0.5606 -0.0352 -0.3766
   8123SM  H12F10813   3.315   4.987   5.854  0.0923  1.4542 -1.6969
   8123SM  H12G10814   3.272   4.823   5.807 -1.9046 -1.0192 -1.3760
   8123SM  C13F10815   3.111   4.937   5.916 -0.1768 -0.7608 -0.3205
   8123SM  H13F10816   3.060   5.036   5.912 -0.9427 -1.0952  0.7882
   8123SM  H13G10817   3.155   4.915   6.015  0.4722  0.1492 -0.3909
   8123SM  C14F10818   2.997   4.839   5.886 -0.4756  0.2772  0.3500
   8123SM  H14F10819   3.054   4.744   5.885  1.9080  1.6026  1.1936
   8123SM  H14G10820   2.948   4.864   5.789 -0.6640  1.5619  0.7497
   8123SM  C15F10821   2.897   4.819   6.002  0.3712  0.1265  1.0670
   8123SM  H15F10822   2.850   4.919   6.014  0.1560  0.3721 -1.2429
   8123SM  H15G10823   2.948   4.797   6.098  1.7183  1.3418  0.6436
   8123SM  C16F10824   2.801   4.709   5.954  0.0797 -0.3080 -0.0108
   8123SM  H16F10825   2.867   4.627   5.920  0.0631 -1.1915  1.9487
   8123SM  H16G10826   2.754   4.755   5.864 -2.3326 -0.4314  1.1014
   8123SM  C17F10827   2.710   4.658   6.069 -0.8058  0.5052  1.0818
   8123SM  H17F10828   2.640   4.581   6.027  0.6722 -0.2352 -0.1072
   8123SM  H17G10829   2.647   4.743   6.103 -0.8105  1.9692 -2.2049
   8123SM  C18F10830   2.784   4.597   6.188  0.8713  0.2280 -0.6845
   8123SM  H18F10831   2.811   4.677   6.260  3.3310  0.6502 -1.9797
   8123SM  H18G10832   2.877   4.549   6.150  0.9591  0.7569 -1.1401
   8123SM  C19F10833   2.701   4.496   6.268  0.0224  0.3685 -0.1099
   8123SM  H19F10834   2.768   4.469   6.352 -1.2466 -0.7599  0.5921
   8123SM  H19G10835   2.675   4.403   6.213  1.1064  0.0872 -0.1554
   8123SM  C20F10836   2.573   4.555   6.329  0.6440  0.1266  0.2576
   8123SM  H20F10837   2.512   4.607   6.252 -1.7033 -1.7125  0.7521
   8123SM  H20G10838   2.598   4.633   6.403 -0.5730  1.2055 -0.4323
   8123SM  C21F10839   2.471   4.448   6.376 -0.0077  0.1775  0.4890
   8123SM  H21F10840   2.382   4.489   6.428 -0.6483 -1.3588  0.6486
   8123SM  H21G10841   2.524   4.386   6.451  1.2849  0.2950 -0.2926
   8123SM  C22F10842   2.413   4.355   6.264  0.2830  0.3010 -0.6812
   8123SM  H22F10843   2.494   4.304   6.208  1.2306 -0.2939  1.1613
   8123SM  H22G10844   2.354   4.426   6.203 -0.7967 -0.4914 -0.5842
   8123SM  C23F10845   2.320   4.254   6.328 -0.5974  0.0624  0.1266
   8123SM  H23F10846   2.245   4.307   6.391 -0.0963 -0.1514  0.9193
   8123SM  H23G10847   2.374   4.185   6.396  0.1727  0.5960  0.0689
   8123SM  H23H10848   2.273   4.195   6.246 -0.8715 -1.6906  1.4621
   8223SM     N10849   3.804   5.482   4.253  0.0646  1.0132 -0.4197
   8223SM   C1510850   3.736   5.591   4.327 -0.4429 -0.7064  0.2195
   8223SM  H15A10851   3.641   5.628   4.290 -1.3091 -0.6426  2.3638
   8223SM  H15B10852   3.802   5.675   4.337  1.7692 -2.3428  0.0868
   8223SM  H15C10853   3.712   5.562   4.428 -1.6208 -1.4657 -0.2533
   8223SM   C1410854   3.704   5.372   4.236 -0.2094 -0.4641  0.1331
   8223SM  H14A10855   3.755   5.290   4.186  1.3315  1.1819 -1.1475
   8223SM  H14B10856   3.618   5.403   4.180 -1.1272 -0.0606  1.7176
   8223SM  H14C10857   3.673   5.346   4.336 -2.7312  1.7875  0.0251
   8223SM   C1310858   3.860   5.529   4.114  0.2340 -0.1283  0.3640
   8223SM  H13A10859   3.929   5.611   4.125  0.2883 -0.4165  2.9782
   8223SM  H13B10860   3.776   5.562   4.054  0.0856 -1.2538 -0.0711
   8223SM  H13C10861   3.904   5.446   4.061  0.1964 -0.6477  1.1228
   8223SM   C1210862   3.922   5.440   4.336  0.6285  0.7833 -0.1258
   8223SM  H12A10863   3.990   5.524   4.338 -0.0065  1.2857  1.5303
   8223SM  H12B10864   3.966   5.357   4.281  0.7527  0.2823  0.7157
   8223SM   C1110865   3.899   5.393   4.489 -0.2340 -0.5978  0.3802
   8223SM  H11A10866   3.999   5.350   4.512 -0.4226 -1.0728  0.3355
   8223SM  H11B10867   3.838   5.300   4.482 -0.2560 -0.5434 -0.1879
   8223SM     P10868   3.975   5.597   4.618  0.0504 -0.2435 -0.5653
   8223SM   O1310869   4.064   5.626   4.501 -0.0826 -0.0879 -0.1474
   8223SM   O1410870   3.921   5.719   4.685  0.3063 -0.1472  0.0543
   8223SM   O1110871   4.059   5.507   4.722  0.4341  0.1424 -0.2136
   8223SM   O1210872   3.858   5.498   4.577 -0.6468 -0.0726  0.1054
   8223SM   C1S10873   4.013   5.418   4.815  0.2070  0.4874  0.0780
   8223SM   H1S10874   3.955   5.336   4.767 -1.7613  2.5597 -1.2722
   8223SM   H1T10875   3.942   5.471   4.883 -0.4085 -0.9313  0.5727
   8223SM    NF10876   4.082   5.257   4.989  0.6521  0.0695 -0.4722
   8223SM   HNF10877   4.049   5.283   5.080  0.9228  0.1411 -0.3933
   8223SM   C2S10878   4.130   5.361   4.904 -0.0039 -0.3761 -0.0745
   8223SM   H2S10879   4.210   5.316   4.841  0.8439 -0.6774  1.1749
   8223SM   C3S10880   4.215   5.470   4.978  0.9098 -0.1370  0.3932
   8223SM   H3S10881   4.145   5.520   5.049 -1.8160 -0.7067 -1.7379
   8223SM    O310882   4.264   5.569   4.889  0.2015 -0.1762  0.3379
   8223SM   HO310883   4.201   5.557   4.818 -0.4584  1.1130  0.6759
   8223SM   C4S10884   4.328   5.409   5.056  0.1195 -0.0970  0.8992
   8223SM   H4S10885   4.410   5.384   4.987 -1.0861 -1.1282 -0.2099
   8223SM   C5S10886   4.334   5.373   5.186 -0.0552  0.0663  0.2286
   8223SM   H5S10887   4.237   5.389   5.237  0.0885  3.4763 -0.2892
   8223SM   C6S10888   4.450   5.308   5.257  0.1252  0.4481 -0.1680
   8223SM   H6S10889   4.504   5.390   5.308 -0.4906  0.3762  0.6228
   8223SM   H6T10890   4.523   5.257   5.190  0.6030 -1.3885  1.6248
   8223SM   C7S10891   4.413   5.194   5.357 -0.2114  0.5597  0.3207
   8223SM   H7S10892   4.502   5.131   5.380 -1.3783 -1.7978 -1.1486
   8223SM   H7T10893   4.340   5.131   5.300  1.1072 -0.8207  0.0997
   8223SM   C8S10894   4.355   5.248   5.486  0.5584 -0.3528  0.6751
   8223SM   H8S10895   4.266   5.309   5.457  1.3236  2.2289  3.2602
   8223SM   H8T10896   4.431   5.318   5.526 -1.1030  1.4000  0.9284
   8223SM   C9S10897   4.325   5.146   5.601  0.2791  0.4035  0.3633
   8223SM   H9S10898   4.413   5.080   5.615  0.1917  0.3506  0.6706
   8223SM   H9T10899   4.242   5.084   5.562 -0.1270  0.3825  1.2240
   8223SM  C10S10900   4.294   5.209   5.738 -0.3164  0.2225 -0.2603
   8223SM  H10S10901   4.206   5.269   5.704  0.4289  1.1315 -0.6385
   8223SM  H10T10902   4.373   5.280   5.768 -1.1934  0.5721  1.2965
   8223SM  C11S10903   4.275   5.113   5.848  0.7724  0.4137 -0.1918
   8223SM  H11S10904   4.368   5.058   5.873 -0.9319 -2.3244  0.5219
   8223SM  H11T10905   4.190   5.046   5.819  0.9988 -0.7180  1.6142
   8223SM  C12S10906   4.239   5.188   5.977  0.4174 -0.1476  0.2639
   8223SM  H12S10907   4.177   5.278   5.955 -0.2870 -0.6845  0.0278
   8223SM  H12T10908   4.327   5.246   6.014 -0.7069  1.4552  0.5748
   8223SM  C13S10909   4.174   5.105   6.085 -0.2267 -0.7080 -0.3955
   8223SM  H13S10910   4.249   5.027   6.109  0.9073 -0.0676 -1.7085
   8223SM  H13T10911   4.087   5.053   6.040  0.9819 -2.3733 -0.8820
   8223SM  C14S10912   4.136   5.190   6.204  0.0726 -0.2340  0.1500
   8223SM  H14S10913   4.049   5.255   6.181  2.4275  2.5005 -1.6692
   8223SM  H14T10914   4.212   5.261   6.244 -0.2774  1.2980 -1.7711
   8223SM  C15S10915   4.093   5.103   6.332 -0.1157  0.9249  0.1320
   8223SM  H15S10916   4.089   5.173   6.418 -1.2585 -1.0068  1.7297
   8223SM  H15T10917   4.183   5.041   6.356 -1.2491 -0.9899 -0.3293
   8223SM  C16S10918   3.965   5.017   6.317 -0.1107  0.3247 -0.1689
   8223SM  H16S10919   3.983   4.941   6.237  3.1919 -0.8209  1.4725
   8223SM  H16T10920   3.876   5.079   6.294 -0.8939 -0.5050  0.5355
   8223SM  C17S10921   3.929   4.928   6.441  0.4103  0.7355  0.7498
   8223SM  H17S10922   3.910   4.990   6.531 -0.2773  2.2556 -0.3907
   8223SM  H17T10923   4.018   4.865   6.461  0.6930  0.5966 -0.7783
   8223SM  C18S10924   3.802   4.846   6.422  0.1055  0.0147  0.9077
   8223SM  H18S10925   3.811   4.807   6.318  0.5842  1.3849  0.4133
   8223SM  H18T10926   3.715   4.914   6.431  0.0597  0.5141 -2.1528
   8223SM  H18U10927   3.799   4.760   6.492 -0.6648  0.0201  0.8838
   8223SM   C1F10928   4.048   5.131   4.955 -0.5115 -0.4908  0.7157
   8223SM    OF10929   4.074   5.095   4.836 -0.3334 -0.7957  0.7987
   8223SM   C2F10930   3.984   5.037   5.047  0.2530 -0.8752 -0.5642
   8223SM   H2F10931   3.887   5.087   5.067  0.6340  1.0042 -2.9513
   8223SM   H2G10932   4.030   5.039   5.149 -2.6210  0.3618  0.8090
   8223SM   C3F10933   3.970   4.896   5.004  0.2342 -0.1252 -0.0702
   8223SM   H3F10934   4.071   4.850   5.013  0.3125 -0.1637 -1.0543
   8223SM   H3G10935   3.954   4.884   4.895  0.9507  0.4338 -0.2462
   8223SM   C4F10936   3.858   4.820   5.083  0.1952  0.4978 -0.3330
   8223SM   H4F10937   3.844   4.721   5.036  1.0409  1.4356 -2.7059
   8223SM   H4G10938   3.759   4.866   5.061  1.0661  1.6368 -2.1683
   8223SM   C5F10939   3.880   4.819   5.238 -0.8534  0.1159 -0.4693
   8223SM   H5F10940   3.912   4.922   5.265 -0.5754 -0.0577 -0.1399
   8223SM   H5G10941   3.971   4.760   5.258 -0.5978  0.6484 -0.0504
   8223SM   C6F10942   3.757   4.776   5.322  0.1641  0.0833  0.2024
   8223SM   H6F10943   3.726   4.678   5.278 -0.4174  1.7281 -3.4895
   8223SM   H6G10944   3.667   4.839   5.304  0.9518  1.5026  1.0441
   8223SM   C7F10945   3.803   4.767   5.470 -0.1904 -0.2771 -0.2493
   8223SM   H7F10946   3.869   4.854   5.491 -0.4346 -0.5518  1.9185
   8223SM   H7G10947   3.874   4.681   5.474  0.5727  0.3071  4.4197
   8223SM   C8F10948   3.696   4.739   5.570  0.0008 -0.0423 -0.4432
   8223SM   H8F10949   3.671   4.631   5.561 -1.3997 -0.0919  2.8889
   8223SM   H8G10950   3.599   4.793   5.564 -1.7579 -3.0006 -0.6979
   8223SM   C9F10951   3.719   4.747   5.724 -0.6374 -0.3708 -0.6989
   8223SM   H9F10952   3.736   4.854   5.750  1.4431 -0.8746  0.2226
   8223SM   H9G10953   3.814   4.695   5.750  0.9289  3.2125  1.4003
   8223SM  C10F10954   3.600   4.685   5.804  0.7033  0.2720  0.0735
   8223SM  H10F10955   3.582   4.582   5.765  0.0396  0.2353  0.4476
   8223SM  H10G10956   3.509   4.750   5.801  0.1181 -0.4778  0.9454
   8223SM  C11F10957   3.616   4.658   5.957  0.2472 -0.3162 -0.0505
   8223SM  H11F10958   3.620   4.752   6.015  0.6739 -0.1144 -0.4019
   8223SM  H11G10959   3.701   4.589   5.978 -0.3973 -1.6043 -1.4858
   8223SM  C12F10960   3.489   4.580   6.011  0.2582  0.6839  0.4677
   8223SM  H12F10961   3.490   4.484   5.956  1.2439  0.4805  0.8319
   8223SM  H12G10962   3.397   4.635   5.983 -0.7201 -1.3411 -0.4850
   8223SM  C13F10963   3.493   4.557   6.167  0.0049  0.1153  0.3844
   8223SM  H13F10964   3.597   4.526   6.193  0.2356  1.5121  1.2433
   8223SM  H13G10965   3.425   4.475   6.199  1.1429 -0.3403  1.7931
   8223SM  C14F10966   3.460   4.685   6.239  0.2590 -0.4737  0.1716
   8223SM  H14F10967   3.530   4.762   6.201  1.4383 -2.0150 -0.9003
   8223SM  H14G10968   3.482   4.681   6.348  3.0301 -0.3356 -0.2966
   8223SM  C15F10969   3.314   4.717   6.231  0.7576  0.0360  0.1106
   8223SM  H15F10970   3.257   4.632   6.274 -0.1001  0.4498 -0.1713
   8223SM  H15G10971   3.282   4.731   6.125  1.1701  0.1787  0.0028
   8223SM  C16F10972   3.271   4.847   6.302  0.2465  0.4157  0.1626
   8223SM  H16F10973   3.161   4.840   6.317  0.3936 -0.7474  0.7928
   8223SM  H16G10974   3.291   4.930   6.230  1.0300 -1.1210 -1.4555
   8223SM  C17F10975   3.331   4.864   6.439 -0.0211  0.2470 -0.5935
   8223SM  H17F10976   3.294   4.952   6.496  0.1442  0.6293 -1.0594
   8223SM  H17G10977   3.441   4.880   6.442  0.2739 -1.1212 -2.3603
   8223SM  C18F10978   3.304   4.743   6.531 -0.8787  0.5456 -0.7911
   8223SM  H18F10979   3.345   4.661   6.469  1.7987  0.9760  0.2710
   8223SM  H18G10980   3.197   4.714   6.532 -0.1283 -2.6011 -0.9548
   8223SM  C19F10981   3.363   4.753   6.673 -0.2717  0.0170  0.0432
   8223SM  H19F10982   3.317   4.681   6.744 -2.4983  1.4723  0.1425
   8223SM  H19G10983   3.338   4.849   6.722 -1.5405 -0.9949  1.4461
   8223SM  C20F10984   3.514   4.722   6.683  0.3797  0.0030  0.4509
   8223SM  H20F10985   3.562   4.787   6.607  0.5313  2.3841  2.4437
   8223SM  H20G10986   3.537   4.616   6.659  2.0691  0.0072  1.8477
   8223SM  C21F10987   3.576   4.753   6.823 -0.8127  0.2000  0.0478
   8223SM  H21F10988   3.546   4.673   6.894  0.2217 -1.6320 -1.4637
   8223SM  H21G10989   3.531   4.849   6.855  0.0618  0.7894 -0.4592
   8223SM  C22F10990   3.734   4.761   6.806 -0.4924 -0.1331 -0.3866
   8223SM  H22F10991   3.765   4.844   6.739 -0.8028  0.9041  0.7049
   8223SM  H22G10992   3.761   4.664   6.761 -0.6211  0.4091 -1.6724
   8223SM  C23F10993   3.825   4.791   6.933  1.0361  0.2647  0.3683
   8223SM  H23F10994   3.810   4.704   7.001  1.0849 -1.6740 -1.9549
   8223SM  H23G10995   3.794   4.884   6.984  1.2461  0.7616 -0.3902
   8223SM  H23H10996   3.927   4.790   6.890  0.5283  1.4646 -0.9625
   8323SM     N10997   4.839   4.862   3.742  0.1158 -0.3748 -0.1651
   8323SM   C1510998   4.776   4.731   3.695  0.5827  0.7198 -0.0557
   8323SM  H15A10999   4.824   4.667   3.623  0.6622  1.6406 -0.8408
   8323SM  H15B11000   4.683   4.745   3.641  1.8279 -0.7391 -2.7672
   8323SM  H15C11001   4.751   4.668   3.779  0.9368 -2.1540 -2.0013
   8323SM   C1411002   4.953   4.837   3.833 -0.8353 -0.4254 -0.0596
   8323SM  H14A11003   4.997   4.926   3.874 -1.4830 -0.4672  0.7354
   8323SM  H14B11004   5.033   4.783   3.783 -0.4113  0.9946 -0.9679
   8323SM  H14C11005   4.930   4.778   3.921 -0.8345  1.8873  1.5613
   8323SM   C1311006   4.889   4.942   3.622 -0.3441  0.0925 -0.9674
   8323SM  H13A11007   4.939   5.031   3.655 -1.9278  1.2304 -1.4923
   8323SM  H13B11008   4.809   4.975   3.557  0.1088  1.7179 -0.7369
   8323SM  H13C11009   4.956   4.883   3.561 -0.0108  0.9996 -1.4892
   8323SM   C1211010   4.738   4.949   3.820  0.5473  0.4158  0.5628
   8323SM  H12A11011   4.685   5.018   3.757  0.6448 -0.9804 -1.0998
   8323SM  H12B11012   4.793   5.015   3.885  2.0726 -0.5909  0.3564
   8323SM   C1111013   4.628   4.871   3.905  0.1358  0.3919 -0.2661
   8323SM  H11A11014   4.570   4.793   3.851  0.4896  0.7200 -1.1391
   8323SM  H11B11015   4.564   4.953   3.944 -0.3383 -0.4587  0.7580
   8323SM     P11016   4.757   4.874   4.135  0.1716 -0.2234 -0.5562
   8323SM   O1311017   4.899   4.832   4.143  0.4100  0.0355 -0.0867
   8323SM   O1411018   4.721   5.015   4.126 -0.3436  0.4309 -0.2210
   8323SM   O1111019   4.672   4.808   4.260 -0.3069  0.6732  1.3002
   8323SM   O1211020   4.689   4.798   4.014 -0.7223  0.0870 -0.0712
   8323SM   C1S11021   4.737   4.776   4.381 -0.8509  0.9774  0.2976
   8323SM   H1S11022   4.848   4.772   4.383 -0.8788  0.2431  0.7549
   8323SM   H1T11023   4.701   4.674   4.404 -0.4082  0.8385  0.3830
   8323SM    NF11024   4.743   4.805   4.621  0.8035 -0.2885  0.3630
   8323SM   HNF11025   4.673   4.748   4.664 -0.9328  0.6028 -1.1041
   8323SM   C2S11026   4.698   4.869   4.498  0.0098  0.5083 -0.1815
   8323SM   H2S11027   4.749   4.966   4.482 -0.1490  0.9399  1.6942
   8323SM   C3S11028   4.546   4.908   4.499  0.0219 -0.2694  0.9159
   8323SM   H3S11029   4.482   4.820   4.479  3.4230 -2.2263 -2.6290
   8323SM    O311030   4.522   5.001   4.387  0.1428  0.4020 -0.2277
   8323SM   HO311031   4.592   4.983   4.324 -0.6720 -2.5191 -0.4279
   8323SM   C4S11032   4.511   4.965   4.632 -1.2131  1.1965  0.2762
   8323SM   H4S11033   4.560   5.061   4.653  2.0187 -0.5323  1.3891
   8323SM   C5S11034   4.437   4.901   4.727  0.0585  0.0416  0.0978
   8323SM   H5S11035   4.401   4.802   4.696 -5.2728  1.3024  1.2048
   8323SM   C6S11036   4.396   4.952   4.858 -0.0201 -0.1718 -0.2185
   8323SM   H6S11037   4.290   4.983   4.846 -0.1484  0.2827  1.7889
   8323SM   H6T11038   4.451   5.044   4.889 -1.3969  0.7250 -0.3213
   8323SM   C7S11039   4.409   4.853   4.979  0.2865 -0.4991  0.1009
   8323SM   H7S11040   4.516   4.824   4.978  0.6278  0.6193 -1.4428
   8323SM   H7T11041   4.353   4.764   4.944  1.5237 -1.5776  0.7840
   8323SM   C8S11042   4.342   4.899   5.104 -0.0598 -0.0324 -0.3525
   8323SM   H8S11043   4.245   4.946   5.080  0.9911  1.6423 -1.5395
   8323SM   H8T11044   4.415   4.970   5.147 -1.1306  1.1634 -0.4631
   8323SM   C9S11045   4.324   4.784   5.207  0.2268 -0.8925 -0.8326
   8323SM   H9S11046   4.425   4.740   5.217  0.1219 -0.9930 -0.1810
   8323SM   H9T11047   4.267   4.698   5.166 -0.3495 -0.4530 -0.9684
   8323SM  C10S11048   4.269   4.842   5.336  0.5961  0.7135 -0.2166
   8323SM  H10S11049   4.188   4.914   5.313  0.7713  1.6363  1.8116
   8323SM  H10T11050   4.350   4.894   5.391 -0.1059  1.5215  0.0853
   8323SM  C11S11051   4.212   4.732   5.422 -0.0380  0.0027  0.0054
   8323SM  H11S11052   4.277   4.642   5.430  0.8863  0.7382  1.1454
   8323SM  H11T11053   4.113   4.699   5.383 -0.3149  0.5098  0.2733
   8323SM  C12S11054   4.184   4.787   5.570 -0.2947 -0.4766 -0.1153
   8323SM  H12S11055   4.117   4.876   5.577 -0.0846 -0.3877  1.0030
   8323SM  H12T11056   4.276   4.825   5.619 -1.5330  1.9740  0.4811
   8323SM  C13S11057   4.125   4.685   5.661  0.1494  0.1238  0.1326
   8323SM  H13S11058   4.182   4.589   5.652 -0.4358 -0.2257  0.0882
   8323SM  H13T11059   4.026   4.660   5.616  0.9670 -3.1767 -0.1508
   8323SM  C14S11060   4.113   4.733   5.797  0.0342  0.0617  0.0199
   8323SM  H14S11061   4.028   4.804   5.798 -0.8406 -0.9461  0.6297
   8323SM  H14T11062   4.202   4.794   5.824  1.2023 -1.4253 -0.2725
   8323SM  C15S11063   4.079   4.621   5.896 -0.5143 -0.0263 -0.1866
   8323SM  H15S11064   4.150   4.538   5.875 -1.8432 -0.7984 -1.8368
   8323SM  H15T11065   3.982   4.569   5.885  0.1961 -1.6860  0.9448
   8323SM  C16S11066   4.097   4.667   6.045  0.0474 -0.0873 -0.1094
   8323SM  H16S11067   4.031   4.754   6.064  0.0897  0.0142 -0.4287
   8323SM  H16T11068   4.198   4.714   6.053 -0.9005  1.8213  1.8036
   8323SM  C17S11069   4.063   4.563   6.157 -0.2564  0.2935  0.6420
   8323SM  H17S11070   4.110   4.465   6.133  0.9058  1.1925 -0.9636
   8323SM  H17T11071   3.956   4.537   6.145  0.1185 -2.0039  1.6366
   8323SM  C18S11072   4.094   4.596   6.300  0.1362  1.0664 -0.2115
   8323SM  H18S11073   4.091   4.502   6.358  0.1019  0.6700 -0.8447
   8323SM  H18T11074   4.024   4.663   6.355 -0.2546 -1.0554  2.0584
   8323SM  H18U11075   4.198   4.633   6.302  0.7209 -0.3997 -1.5105
   8323SM   C1F11076   4.872   4.812   4.649  0.7120 -0.3444  0.2854
   8323SM    OF11077   4.940   4.904   4.603  0.2484 -0.0466 -0.2698
   8323SM   C2F11078   4.927   4.709   4.745  0.1640  0.2203 -0.1979
   8323SM   H2F11079   4.900   4.607   4.710  1.8404  0.2260 -1.6629
   8323SM   H2G11080   4.886   4.720   4.848  2.0498 -0.4889  0.6820
   8323SM   C3F11081   5.089   4.698   4.757 -0.2038  0.0587 -0.1096
   8323SM   H3F11082   5.123   4.804   4.759  1.1532 -0.3207 -1.6430
   8323SM   H3G11083   5.132   4.656   4.664  3.9687 -0.2795  1.7691
   8323SM   C4F11084   5.137   4.615   4.880 -0.6991 -0.3175  0.2308
   8323SM   H4F11085   5.117   4.681   4.967 -0.1788  1.4924 -0.9712
   8323SM   H4G11086   5.248   4.607   4.877 -0.6315 -1.4774  2.6925
   8323SM   C5F11087   5.050   4.491   4.891  0.3140  0.4995 -0.3050
   8323SM   H5F11088   5.050   4.432   4.797 -0.7084  1.0476 -0.6624
   8323SM   H5G11089   4.943   4.512   4.912 -0.2657 -0.7081 -1.8625
   8323SM   C6F11090   5.099   4.403   5.006  0.2522  0.2884  0.3092
   8323SM   H6F11091   5.092   4.453   5.105  1.6513 -0.0730  0.6081
   8323SM   H6G11092   5.209   4.392   5.004  0.3287  1.1360 -0.6014
   8323SM   C7F11093   5.024   4.270   5.008 -0.7144  0.2962  0.3598
   8323SM   H7F11094   5.059   4.197   4.932  0.7032  0.7223  0.5568
   8323SM   H7G11095   4.915   4.283   4.997 -1.1791 -3.4995 -0.9524
   8323SM   C8F11096   5.053   4.198   5.140 -0.7288 -0.2147 -0.2078
   8323SM   H8F11097   5.055   4.269   5.225  0.8454  1.0284 -1.2241
   8323SM   H8G11098   5.159   4.166   5.135 -1.4693 -2.8379 -0.7636
   8323SM   C9F11099   4.969   4.073   5.165 -0.3479  0.1310 -0.2004
   8323SM   H9F11100   4.972   4.013   5.072 -0.1998 -1.2893  0.6859
   8323SM   H9G11101   4.870   4.107   5.203 -0.7051  1.9872 -2.5412
   8323SM  C10F11102   5.031   3.978   5.275 -0.0012  0.2194  0.0025
   8323SM  H10F11103   5.037   4.033   5.371  1.0013 -1.5393  1.0008
   8323SM  H10G11104   5.125   3.942   5.229 -0.7604 -0.0631 -1.3963
   8323SM  C11F11105   4.930   3.864   5.300  0.7479  0.1482  0.8141
   8323SM  H11F11106   4.941   3.797   5.212  1.9110  0.5126  0.6704
   8323SM  H11G11107   4.823   3.894   5.310 -0.2348 -2.7653  0.0874
   8323SM  C12F11108   4.959   3.788   5.426  0.5914  0.5606 -0.1751
   8323SM  H12F11109   5.065   3.755   5.422  0.3386 -0.5356  1.1510
   8323SM  H12G11110   4.893   3.699   5.432  0.5665  0.6307  0.8498
   8323SM  C13F11111   4.942   3.866   5.560 -0.4266 -0.3135  0.7696
   8323SM  H13F11112   4.843   3.915   5.543 -1.0651 -1.6925  0.3656
   8323SM  H13G11113   5.014   3.947   5.582  1.2756 -2.3627  3.2550
   8323SM  C14F11114   4.945   3.785   5.682  0.5948  0.2377 -0.1268
   8323SM  H14F11115   5.047   3.744   5.701 -0.3708 -3.1868 -1.4841
   8323SM  H14G11116   4.876   3.699   5.670 -0.9337  1.6354 -1.9218
   8323SM  C15F11117   4.895   3.870   5.808  0.1576 -0.1387 -0.5514
   8323SM  H15F11118   4.913   3.979   5.794  3.1526 -0.6068 -0.8873
   8323SM  H15G11119   4.963   3.833   5.887 -0.4031  0.5169  0.2537
   8323SM  C16F11120   4.747   3.843   5.837 -0.1373 -0.2243 -0.0738
   8323SM  H16F11121   4.731   3.734   5.845  0.7261 -0.3627 -0.1621
   8323SM  H16G11122   4.683   3.876   5.753  0.3404 -0.8668 -0.7013
   8323SM  C17F11123   4.707   3.905   5.974 -0.0358 -0.0964  0.5142
   8323SM  H17F11124   4.729   4.014   5.975  2.1859 -0.4839 -0.5920
   8323SM  H17G11125   4.770   3.855   6.050  0.3906  0.3764  0.4763
   8323SM  C18F11126   4.562   3.886   6.015  0.2641 -0.1888  0.4700
   8323SM  H18F11127   4.535   3.779   6.027 -0.9194  0.1494  0.9689
   8323SM  H18G11128   4.503   3.923   5.928 -0.3330 -1.0067  0.5151
   8323SM  C19F11129   4.527   3.958   6.144 -0.3635 -0.7317  0.1967
   8323SM  H19F11130   4.560   4.064   6.137 -1.8348  0.0701  3.4944
   8323SM  H19G11131   4.581   3.918   6.232 -0.3912  0.7855  0.9439
   8323SM  C20F11132   4.376   3.961   6.180 -0.1297  0.7518 -0.1151
   8323SM  H20F11133   4.349   3.860   6.218  0.7017  1.6199  3.0804
   8323SM  H20G11134   4.322   3.980   6.084  1.1277  2.7496 -0.5066
   8323SM  C21F11135   4.327   4.061   6.281  1.1302 -0.3356  0.4915
   8323SM  H21F11136   4.217   4.057   6.300  0.8062 -1.0672 -1.2914
   8323SM  H21G11137   4.350   4.168   6.262  0.8694 -0.2504  0.6382
   8323SM  C22F11138   4.402   4.050   6.419 -0.0588  0.1283  0.2254
   8323SM  H22F11139   4.511   4.066   6.403 -0.0767 -1.2621 -1.6489
   8323SM  H22G11140   4.397   3.943   6.446 -1.1648 -0.8949 -3.3959
   8323SM  C23F11141   4.345   4.148   6.528  0.4159  0.4141  0.1783
   8323SM  H23F11142   4.318   4.249   6.491 -2.7508 -0.0469  0.9020
   8323SM  H23G11143   4.411   4.162   6.616  0.2092 -0.4340  0.4806
   8323SM  H23H11144   4.253   4.100   6.570  1.4307 -0.2087  1.7940
   8423SM     N11145   5.333   3.666   3.909  0.0366  0.8657  0.3915
   8423SM   C1511146   5.401   3.758   3.810 -0.2159 -0.2798  0.0119
   8423SM  H15A11147   5.357   3.742   3.713 -0.3568 -1.7901  0.3021
   8423SM  H15B11148   5.509   3.747   3.802 -0.4874 -1.7627 -3.3270
   8423SM  H15C11149   5.394   3.862   3.839 -0.4608  0.4788 -2.5620
   8423SM   C1411150   5.180   3.693   3.921  0.0809 -0.3656  0.8421
   8423SM  H14A11151   5.137   3.700   3.823  2.5730  0.5664 -0.2703
   8423SM  H14B11152   5.165   3.789   3.968  1.7944  0.8107 -0.8296
   8423SM  H14C11153   5.141   3.612   3.981 -1.1742  1.0616  2.0304
   8423SM   C1311154   5.353   3.527   3.855 -0.2658  0.5523 -0.2383
   8423SM  H13A11155   5.458   3.522   3.830  0.1516  1.5090  1.2251
   8423SM  H13B11156   5.290   3.495   3.772 -1.0869  0.0976  0.5408
   8423SM  H13C11157   5.332   3.460   3.937  0.0948  0.6901 -0.0345
   8423SM   C1211158   5.399   3.689   4.047 -0.6538  0.1926  0.5900
   8423SM  H12A11159   5.395   3.796   4.062 -0.9251  0.6115 -1.9062
   8423SM  H12B11160   5.504   3.665   4.034 -0.7836 -1.4414  2.2471
   8423SM   C1111161   5.327   3.615   4.163  0.9276 -0.2313  0.3047
   8423SM  H11A11162   5.236   3.674   4.185  1.9729  2.4282 -1.8800
   8423SM  H11B11163   5.393   3.627   4.251  0.4836 -1.4940  0.8313
   8423SM     P11164   5.159   3.414   4.184 -0.4596 -0.3207  0.3192
   8423SM   O1311165   5.050   3.500   4.125  0.3111  0.2135 -0.2055
   8423SM   O1411166   5.165   3.278   4.130  0.6928 -0.0773 -0.2734
   8423SM   O1111167   5.150   3.405   4.340 -0.2454  0.3256  0.6426
   8423SM   O1211168   5.300   3.479   4.143  0.8383  0.8116  0.0980
   8423SM   C1S11169   5.268   3.351   4.406  0.0010  0.0435 -0.5128
   8423SM   H1S11170   5.347   3.428   4.408 -1.1663  1.3302  2.7947
   8423SM   H1T11171   5.303   3.262   4.349  0.2123  0.8958 -1.7554
   8423SM    NF11172   5.368   3.243   4.600  0.9406 -0.0951  0.0583
   8423SM   HNF11173   5.362   3.144   4.615 -0.4199  0.1910  1.8020
   8423SM   C2S11174   5.248   3.314   4.548 -0.2807 -0.1519 -0.1299
   8423SM   H2S11175   5.233   3.408   4.605 -1.5838 -0.3718 -0.0794
   8423SM   C3S11176   5.117   3.232   4.565 -0.3358 -0.6424 -0.9231
   8423SM   H3S11177   5.122   3.152   4.488 -0.7866  1.1746 -2.9502
   8423SM    O311178   4.996   3.302   4.526 -0.4639  0.4105 -0.1538
   8423SM   HO311179   5.031   3.373   4.472 -0.5937  1.9443  1.6656
   8423SM   C4S11180   5.095   3.154   4.693 -0.1156  0.2341 -0.4520
   8423SM   H4S11181   5.136   3.052   4.682 -3.3506 -1.6637  2.5523
   8423SM   C5S11182   5.035   3.190   4.806 -0.0874  0.3310 -0.5038
   8423SM   H5S11183   4.997   3.292   4.817  0.6617  0.4859  0.8190
   8423SM   C6S11184   5.019   3.096   4.927 -0.0815  0.1899 -1.1094
   8423SM   H6S11185   5.041   2.988   4.914 -0.8465 -0.6081  3.0188
   8423SM   H6T11186   4.910   3.106   4.944 -0.4179  0.1701 -2.9760
   8423SM   C7S11187   5.099   3.141   5.050  0.2583 -0.2379  0.1470
   8423SM   H7S11188   5.077   3.248   5.071 -1.4341 -0.3923 -0.6506
   8423SM   H7T11189   5.209   3.128   5.039  0.2633  0.3085 -0.5404
   8423SM   C8S11190   5.056   3.054   5.169  0.1810 -0.1455  0.8790
   8423SM   H8S11191   5.069   2.953   5.126 -0.9665 -0.3053  0.8857
   8423SM   H8T11192   4.947   3.064   5.189  0.3043  3.3317  0.5317
   8423SM   C9S11193   5.140   3.067   5.296 -0.2038 -0.5644 -0.5346
   8423SM   H9S11194   5.151   3.167   5.342  0.7560 -0.8004 -0.2381
   8423SM   H9T11195   5.241   3.029   5.270 -0.3388 -2.9008  1.9736
   8423SM  C10S11196   5.077   2.976   5.399  0.5136 -0.1875  0.3211
   8423SM  H10S11197   5.059   2.875   5.357  0.5411 -0.7342  1.5750
   8423SM  H10T11198   4.975   3.009   5.429  0.3279 -0.8709  0.4441
   8423SM  C11S11199   5.156   2.967   5.527 -0.0272 -0.2097 -0.3229
   8423SM  H11S11200   5.158   3.060   5.587  0.2456  0.1379 -0.8598
   8423SM  H11T11201   5.262   2.943   5.502  0.1272  0.6445 -0.5254
   8423SM  C12S11202   5.115   2.840   5.607 -0.5011  0.2851 -0.0955
   8423SM  H12S11203   5.104   2.754   5.537  1.1869 -1.1908  1.3481
   8423SM  H12T11204   5.017   2.863   5.654 -0.5063 -0.8762  0.4838
   8423SM  C13S11205   5.212   2.822   5.718  0.2477  0.4477 -0.9521
   8423SM  H13S11206   5.204   2.918   5.773 -0.7704 -0.4813  0.5821
   8423SM  H13T11207   5.310   2.814   5.665  1.0574 -0.9805  0.6797
   8423SM  C14S11208   5.188   2.706   5.818 -0.0998  0.6157  0.1474
   8423SM  H14S11209   5.083   2.722   5.853  0.0407  0.2091  0.7798
   8423SM  H14T11210   5.257   2.716   5.905  0.1398 -1.3683  0.2335
   8423SM  C15S11211   5.208   2.563   5.755  0.7474  0.2833 -0.0386
   8423SM  H15S11212   5.316   2.560   5.730  0.0521  1.5776 -3.8035
   8423SM  H15T11213   5.157   2.557   5.656  1.3671 -1.8475 -0.2664
   8423SM  C16S11214   5.157   2.450   5.850 -0.2078 -0.2538  0.1290
   8423SM  H16S11215   5.046   2.454   5.864 -0.3856  0.3902 -1.3487
   8423SM  H16T11216   5.205   2.469   5.948  0.0797 -0.0066 -0.0589
   8423SM  C17S11217   5.188   2.316   5.793  0.2115  0.8164 -0.2284
   8423SM  H17S11218   5.299   2.309   5.784  0.2468 -1.5956  1.3228
   8423SM  H17T11219   5.158   2.309   5.687  0.7538 -1.8655 -0.2806
   8423SM  C18S11220   5.129   2.200   5.871 -0.4192  0.2170 -0.4694
   8423SM  H18S11221   5.144   2.101   5.824  1.3394  1.4151 -2.6274
   8423SM  H18T11222   5.019   2.201   5.886 -0.8732 -1.9931 -2.9463
   8423SM  H18U11223   5.181   2.194   5.969  0.6184  1.7251 -0.8948
   8423SM   C1F11224   5.491   3.300   4.602  0.3619  0.6357 -0.1621
   8423SM    OF11225   5.508   3.419   4.570  0.8023  0.0211  0.5503
   8423SM   C2F11226   5.610   3.207   4.610  0.3017  0.4478  0.8807
   8423SM   H2F11227   5.690   3.251   4.546  0.8030 -0.1425  1.0929
   8423SM   H2G11228   5.577   3.115   4.557 -1.6715  1.1248  0.8462
   8423SM   C3F11229   5.659   3.190   4.754 -0.2916  0.3137  0.2023
   8423SM   H3F11230   5.732   3.268   4.784  1.1234 -0.9590  0.1937
   8423SM   H3G11231   5.726   3.101   4.749  1.5609  1.5352  1.6910
   8423SM   C4F11232   5.560   3.140   4.855  0.0531  0.4248 -0.5320
   8423SM   H4F11233   5.492   3.070   4.802  0.3665 -0.0757 -0.2909
   8423SM   H4G11234   5.492   3.217   4.897 -2.0888 -1.9763  0.7289
   8423SM   C5F11235   5.617   3.071   4.980  0.2103  0.0251 -0.3627
   8423SM   H5F11236   5.693   3.141   5.021  2.5378 -0.0429 -4.1249
   8423SM   H5G11237   5.677   2.982   4.952  1.8774 -0.0665  2.9732
   8423SM   C6F11238   5.500   3.051   5.080  0.3191 -0.3059 -0.0360
   8423SM   H6F11239   5.416   2.990   5.041 -1.2440  0.9971  1.1619
   8423SM   H6G11240   5.460   3.152   5.107  0.3855  0.4759 -2.6164
   8423SM   C7F11241   5.539   2.965   5.205 -0.3022 -0.3866 -0.2791
   8423SM   H7F11242   5.612   2.891   5.166 -0.7434 -1.1452  0.2917
   8423SM   H7G11243   5.450   2.912   5.247  1.7537 -2.8899  1.2208
   8423SM   C8F11244   5.601   3.053   5.315 -0.0671 -0.5031  0.4108
   8423SM   H8F11245   5.665   3.132   5.270  0.6032 -1.3497 -0.1571
   8423SM   H8G11246   5.672   2.983   5.364 -0.2518 -0.7402  0.3435
   8423SM   C9F11247   5.496   3.113   5.405  0.8045  0.2587 -0.4121
   8423SM   H9F11248   5.417   3.042   5.437 -0.6186  2.1898  0.6386
   8423SM   H9G11249   5.444   3.199   5.358  2.3984  1.2150 -0.5192
   8423SM  C10F11250   5.546   3.175   5.540 -0.5045  0.3206 -0.3217
   8423SM  H10F11251   5.497   3.272   5.560 -0.8399  0.5154 -1.9552
   8423SM  H10G11252   5.657   3.188   5.542 -0.5483  0.9326  2.7040
   8423SM  C11F11253   5.508   3.089   5.662 -0.5472  0.2271  0.2373
   8423SM  H11F11254   5.554   2.988   5.656 -1.6696 -0.4337  1.9341
   8423SM  H11G11255   5.397   3.080   5.665 -0.4592 -0.8326  1.6660
   8423SM  C12F11256   5.557   3.152   5.798  0.1842  0.4371  0.1107
   8423SM  H12F11257   5.528   3.259   5.792  0.8467  0.5410 -1.8631
   8423SM  H12G11258   5.667   3.143   5.796  0.2013 -0.2838  1.8975
   8423SM  C13F11259   5.500   3.066   5.913 -0.2166 -0.1107 -0.6143
   8423SM  H13F11260   5.548   2.968   5.929 -0.4811  0.1522  2.2961
   8423SM  H13G11261   5.392   3.045   5.902 -0.6307  0.6942  1.4638
   8423SM  C14F11262   5.525   3.151   6.035 -0.3543  0.6476 -0.3599
   8423SM  H14F11263   5.465   3.098   6.112 -0.9336  0.4815 -0.9142
   8423SM  H14G11264   5.493   3.257   6.031  1.7148  1.4142  1.5207
   8423SM  C15F11265   5.673   3.160   6.079 -0.3658  0.0619  0.1310
   8423SM  H15F11266   5.721   3.221   6.000 -1.1136 -0.2624 -0.5840
   8423SM  H15G11267   5.723   3.061   6.078  0.0197  0.2527  0.2829
   8423SM  C16F11268   5.699   3.215   6.216  0.0859 -0.1097  0.3141
   8423SM  H16F11269   5.625   3.164   6.281  0.6000 -2.9589 -1.1905
   8423SM  H16G11270   5.679   3.325   6.213 -3.5194 -0.5801  1.5444
   8423SM  C17F11271   5.840   3.188   6.264  0.0895 -0.5090  0.5735
   8423SM  H17F11272   5.918   3.248   6.211  1.1936 -2.0257  0.4229
   8423SM  H17G11273   5.859   3.079   6.265  0.9016 -0.3801  0.2056
   8423SM  C18F11274   5.876   3.238   6.410 -0.4606 -0.5467  0.6594
   8423SM  H18F11275   5.985   3.221   6.423 -0.3483 -0.4472 -0.0797
   8423SM  H18G11276   5.816   3.184   6.486  0.7622 -0.3869  1.7648
   8423SM  C19F11277   5.852   3.390   6.415 -0.3357 -0.4054 -0.2961
   8423SM  H19F11278   5.744   3.416   6.415  0.0804  1.6750  1.6773
   8423SM  H19G11279   5.904   3.449   6.337  1.0081 -0.3070  0.6348
   8423SM  C20F11280   5.898   3.456   6.546  0.6626  0.2635 -0.3411
   8423SM  H20F11281   5.839   3.404   6.624 -0.2013 -1.3860 -2.0266
   8423SM  H20G11282   5.853   3.557   6.557  0.1526  0.0393 -0.3287
   8423SM  C21F11283   6.043   3.442   6.590 -0.4165 -0.7371 -0.8076
   8423SM  H21F11284   6.111   3.458   6.504  0.7819 -3.3163 -0.4365
   8423SM  H21G11285   6.053   3.337   6.625  0.6961 -0.4475 -0.1942
   8423SM  C22F11286   6.084   3.537   6.706 -0.0272  0.1905  0.0036
   8423SM  H22F11287   6.021   3.528   6.798 -0.5110  0.8677 -0.2591
   8423SM  H22G11288   6.082   3.641   6.667  0.8160  0.1882 -0.0566
   8423SM  C23F11289   6.228   3.504   6.757 -0.9207  0.8391  0.3647
   8423SM  H23F11290   6.254   3.574   6.839  1.6782 -1.0214  1.2682
   8423SM  H23G11291   6.301   3.520   6.674 -3.1895  0.8898 -1.7334
   8423SM  H23H11292   6.234   3.401   6.796  2.8867  0.7252 -0.1370
   8523SM     N11293   7.100   4.259   4.618 -0.3286  0.8291 -0.0821
   8523SM   C1511294   7.112   4.152   4.515 -0.2002 -0.1701 -0.2581
   8523SM  H15A11295   7.217   4.130   4.501 -0.3294 -0.1884 -1.2869
   8523SM  H15B11296   7.060   4.174   4.423 -0.2936 -1.1957 -0.4618
   8523SM  H15C11297   7.050   4.073   4.556  1.0919 -0.3665  1.4322
   8523SM   C1411298   7.184   4.229   4.745  0.2058 -0.1504 -0.2196
   8523SM  H14A11299   7.156   4.295   4.826 -0.4483  0.6248 -1.0548
   8523SM  H14B11300   7.290   4.238   4.726  0.4648 -1.5154  0.5333
   8523SM  H14C11301   7.164   4.126   4.770 -1.5008  0.4873  1.1914
   8523SM   C1311302   7.159   4.384   4.574  0.5584  0.5811 -0.2606
   8523SM  H13A11303   7.162   4.456   4.655 -0.2579  2.8681 -2.1505
   8523SM  H13B11304   7.102   4.428   4.494  2.1377  2.3007 -0.5220
   8523SM  H13C11305   7.256   4.370   4.529  0.1004 -0.9806 -0.8209
   8523SM   C1211306   6.960   4.265   4.668  0.1243 -0.3631  0.3257
   8523SM  H12A11307   6.951   4.326   4.756 -1.4549  0.8590 -0.6369
   8523SM  H12B11308   6.924   4.168   4.700 -0.6760 -0.2783 -0.2929
   8523SM   C1111309   6.870   4.329   4.561  0.2985  0.6160 -0.7059
   8523SM  H11A11310   6.871   4.263   4.472 -1.7891 -1.4429  0.6903
   8523SM  H11B11311   6.914   4.427   4.530  1.1810  0.3199 -0.4331
   8523SM     P11312   6.652   4.199   4.580  0.3571 -0.1494 -0.0372
   8523SM   O1311313   6.506   4.241   4.580 -0.0742  0.0347 -0.2774
   8523SM   O1411314   6.688   4.115   4.466  0.0827 -0.1766  0.9156
   8523SM   O1111315   6.678   4.116   4.712 -0.6887 -0.3872  0.0580
   8523SM   O1211316   6.735   4.337   4.603  0.5108 -0.6973 -0.8235
   8523SM   C1S11317   6.641   4.169   4.840 -0.4119 -0.0376  0.3491
   8523SM   H1S11318   6.625   4.279   4.835  0.2394  0.1608  2.0757
   8523SM   H1T11319   6.725   4.148   4.909 -1.6153 -1.0807  1.5371
   8523SM    NF11320   6.525   4.098   5.045  0.3593  1.1585 -0.1320
   8523SM   HNF11321   6.547   4.020   5.104  1.3393  0.8749 -0.8499
   8523SM   C2S11322   6.527   4.077   4.899 -0.3808  0.0626 -0.6284
   8523SM   H2S11323   6.432   4.111   4.853 -1.1068  1.6557  1.8292
   8523SM   C3S11324   6.537   3.931   4.852  0.3362  0.7652 -0.3384
   8523SM   H3S11325   6.641   3.898   4.871 -0.3090  0.6336  4.1033
   8523SM    O311326   6.484   3.908   4.722 -0.1738 -0.2198  0.1715
   8523SM   HO311327   6.491   4.000   4.695 -1.3303 -0.2135 -0.1804
   8523SM   C4S11328   6.453   3.829   4.943 -0.9518 -0.1036  0.7091
   8523SM   H4S11329   6.509   3.798   5.033  0.3382  0.6892  0.2080
   8523SM   C5S11330   6.324   3.782   4.928  0.2120 -0.5904 -0.3271
   8523SM   H5S11331   6.264   3.814   4.842 -0.9014  0.9209  0.9463
   8523SM   C6S11332   6.252   3.685   5.019 -0.5699 -0.4427 -0.0250
   8523SM   H6S11333   6.290   3.582   5.000  0.9993  0.3116 -1.2572
   8523SM   H6T11334   6.146   3.699   4.990  0.0352  2.6815 -1.0794
   8523SM   C7S11335   6.273   3.704   5.177 -0.0723  0.1203 -0.6051
   8523SM   H7S11336   6.263   3.813   5.192 -1.9532  0.3188 -2.7975
   8523SM   H7T11337   6.372   3.662   5.206  0.7859 -0.2901 -3.7405
   8523SM   C8S11338   6.161   3.618   5.241  0.6204 -1.0575  0.6177
   8523SM   H8S11339   6.170   3.517   5.197 -1.5190 -1.1330  0.2284
   8523SM   H8T11340   6.067   3.665   5.204  2.1085  0.7852 -1.0113
   8523SM   C9S11341   6.175   3.617   5.392  0.3035  0.4254  0.1675
   8523SM   H9S11342   6.078   3.583   5.434 -0.0450  2.1040  0.7776
   8523SM   H9T11343   6.193   3.717   5.436 -0.9079  0.1813  1.2949
   8523SM  C10S11344   6.273   3.510   5.437 -0.4039 -0.2153  0.2386
   8523SM  H10S11345   6.369   3.534   5.387 -0.6610 -1.2054 -0.7754
   8523SM  H10T11346   6.244   3.409   5.400  0.2140 -1.4260  2.8217
   8523SM  C11S11347   6.310   3.507   5.584 -0.5030 -0.0493 -0.1416
   8523SM  H11S11348   6.377   3.594   5.602  1.3208 -1.6792  1.3709
   8523SM  H11T11349   6.364   3.414   5.610 -1.0635  0.2963  2.6192
   8523SM  C12S11350   6.187   3.524   5.676 -0.1928  0.3107  0.4307
   8523SM  H12S11351   6.099   3.472   5.632  0.5888 -0.3844 -0.3408
   8523SM  H12T11352   6.177   3.635   5.666 -1.5186  0.1422 -0.4474
   8523SM  C13S11353   6.215   3.489   5.819 -0.5222 -0.5150  0.3498
   8523SM  H13S11354   6.290   3.559   5.861 -0.9028  0.3042 -0.3080
   8523SM  H13T11355   6.268   3.392   5.832  0.8753  0.2660  0.7407
   8523SM  C14S11356   6.089   3.482   5.909 -0.1511 -0.3495  0.3858
   8523SM  H14S11357   6.050   3.378   5.919  1.5621 -0.9722  1.0627
   8523SM  H14T11358   6.014   3.548   5.860  1.0595  1.3983  0.7934
   8523SM  C15S11359   6.122   3.538   6.049  0.3899  0.5169  0.2331
   8523SM  H15S11360   6.224   3.513   6.087  0.1009  0.1213  0.7479
   8523SM  H15T11361   6.046   3.512   6.125 -0.3196  2.0495  0.0819
   8523SM  C16S11362   6.114   3.698   6.051 -0.3754 -0.2257  0.0283
   8523SM  H16S11363   6.020   3.719   5.996 -0.8930 -0.1666  0.9040
   8523SM  H16T11364   6.198   3.745   5.997 -1.6729 -0.0602 -1.9268
   8523SM  C17S11365   6.100   3.750   6.191  0.3610  0.2444  0.6240
   8523SM  H17S11366   6.042   3.683   6.257  1.7953  1.6881  3.5318
   8523SM  H17T11367   6.055   3.851   6.180  1.9652  0.9029 -0.2989
   8523SM  C18S11368   6.232   3.776   6.263  0.5180 -0.3280 -0.0152
   8523SM  H18S11369   6.293   3.830   6.187  2.0695 -2.9892 -0.7903
   8523SM  H18T11370   6.281   3.679   6.285  3.4114  1.1989  0.8360
   8523SM  H18U11371   6.217   3.837   6.354 -0.9168  0.8217 -0.9735
   8523SM   C1F11372   6.489   4.211   5.107  0.4365 -0.4467  0.9666
   8523SM    OF11373   6.435   4.298   5.035 -0.4543  0.7496  0.1837
   8523SM   C2F11374   6.512   4.233   5.258  1.0370  0.8831  0.5819
   8523SM   H2F11375   6.590   4.312   5.267  0.7399  1.3087 -0.4626
   8523SM   H2G11376   6.557   4.138   5.294 -0.5477 -0.4583 -0.7850
   8523SM   C3F11377   6.371   4.266   5.308 -0.8137  0.1570 -0.0244
   8523SM   H3F11378   6.309   4.180   5.273  0.2275 -1.0496  0.9903
   8523SM   H3G11379   6.337   4.361   5.262  0.9243  0.0602 -1.5905
   8523SM   C4F11380   6.372   4.280   5.457 -0.4526 -0.0284  0.1056
   8523SM   H4F11381   6.444   4.363   5.472 -1.5597  1.7174 -3.3254
   8523SM   H4G11382   6.400   4.192   5.519 -1.3250  0.2891  0.9691
   8523SM   C5F11383   6.231   4.330   5.499 -0.3478 -0.4241 -0.1415
   8523SM   H5F11384   6.144   4.287   5.445  1.5373 -3.9251 -0.7333
   8523SM   H5G11385   6.220   4.434   5.462 -0.3004 -1.4546 -3.3338
   8523SM   C6F11386   6.197   4.315   5.650  0.0366 -0.0612 -0.4937
   8523SM   H6F11387   6.184   4.207   5.673 -2.6325 -0.0746 -1.7468
   8523SM   H6G11388   6.105   4.377   5.655  0.8467  1.1647 -0.1798
   8523SM   C7F11389   6.301   4.388   5.741 -0.7644 -0.3497 -0.0773
   8523SM   H7F11390   6.402   4.354   5.710 -0.6107  1.1373 -1.2872
   8523SM   H7G11391   6.282   4.351   5.844  1.7155 -0.4840  0.3865
   8523SM   C8F11392   6.284   4.534   5.736 -0.4261 -0.3837  0.0882
   8523SM   H8F11393   6.271   4.567   5.631 -1.9824 -1.2614 -0.0179
   8523SM   H8G11394   6.380   4.575   5.775  1.0513 -0.5306 -3.0997
   8523SM   C9F11395   6.175   4.603   5.822  0.4841  0.4842  0.1311
   8523SM   H9F11396   6.187   4.576   5.929 -2.1137  0.4508  0.4784
   8523SM   H9G11397   6.083   4.550   5.788  0.7903 -2.3381  3.1715
   8523SM  C10F11398   6.167   4.759   5.824  0.3192  0.1120 -0.0477
   8523SM  H10F11399   6.083   4.789   5.891  0.5127 -0.4432  0.4406
   8523SM  H10G11400   6.141   4.795   5.722  0.6103  0.3301 -0.0464
   8523SM  C11F11401   6.290   4.836   5.863 -0.5126  0.3863 -0.4838
   8523SM  H11F11402   6.379   4.819   5.798  1.0547  0.2977  1.5683
   8523SM  H11G11403   6.333   4.792   5.956  1.1378 -0.8459 -1.7558
   8523SM  C12F11404   6.268   4.987   5.868  0.3482  0.7992  0.0057
   8523SM  H12F11405   6.180   5.011   5.931  0.2324 -1.3809  0.7690
   8523SM  H12G11406   6.239   5.016   5.764 -1.4108  0.1799  0.2899
   8523SM  C13F11407   6.386   5.061   5.925 -0.1551 -0.2412 -0.2445
   8523SM  H13F11408   6.477   5.039   5.864 -0.3716  0.5268 -0.8496
   8523SM  H13G11409   6.413   5.020   6.025  1.7331  0.7121 -0.3090
   8523SM  C14F11410   6.368   5.208   5.928  0.6182  0.0444  0.2023
   8523SM  H14F11411   6.357   5.248   5.825 -0.6930 -1.6162 -0.3589
   8523SM  H14G11412   6.456   5.246   5.983  1.8017 -0.5726 -1.1861
   8523SM  C15F11413   6.241   5.257   6.005 -0.5589  0.0386  0.2637
   8523SM  H15F11414   6.147   5.214   5.967 -1.5359  0.9436  1.5618
   8523SM  H15G11415   6.246   5.368   5.993  1.8637  0.0615  0.9217
   8523SM  C16F11416   6.244   5.228   6.153 -0.3986  0.6948 -0.3534
   8523SM  H16F11417   6.328   5.273   6.210  0.7234  0.4372 -1.7326
   8523SM  H16G11418   6.268   5.122   6.173 -1.7777  0.3985 -0.1821
   8523SM  C17F11419   6.114   5.262   6.216 -0.8200  0.0898  0.0695
   8523SM  H17F11420   6.111   5.221   6.319 -2.6878  1.4664  0.6094
   8523SM  H17G11421   6.021   5.227   6.167 -0.3888  1.7894 -2.1002
   8523SM  C18F11422   6.103   5.417   6.234 -0.0722 -0.2327 -1.1975
   8523SM  H18F11423   6.163   5.481   6.165  1.1973  1.2316  1.1367
   8523SM  H18G11424   6.144   5.440   6.335 -2.0980  0.4007 -0.4809
   8523SM  C19F11425   5.958   5.463   6.240 -0.5724  0.3970  0.5528
   8523SM  H19F11426   5.911   5.433   6.144 -0.4690  1.8307  0.0415
   8523SM  H19G11427   5.941   5.572   6.245  1.7562  0.8813 -0.7433
   8523SM  C20F11428   5.877   5.386   6.344 -0.3548  0.8808 -0.2562
   8523SM  H20F11429   5.926   5.408   6.441  1.2248  0.4951 -0.9351
   8523SM  H20G11430   5.870   5.277   6.326 -0.3468  0.5835  1.4212
   8523SM  C21F11431   5.728   5.433   6.348 -0.0854 -0.6403 -0.3416
   8523SM  H21F11432   5.684   5.369   6.427 -1.7271 -0.0300 -0.7161
   8523SM  H21G11433   5.668   5.415   6.256 -1.6474  1.6713  0.1323
   8523SM  C22F11434   5.703   5.574   6.398  0.0746  0.0888  0.3180
   8523SM  H22F11435   5.758   5.653   6.342  1.1560 -1.6832 -1.2363
   8523SM  H22G11436   5.740   5.586   6.502  0.4058  0.5119  0.1529
   8523SM  C23F11437   5.557   5.617   6.393  0.6858  0.1457  0.0179
   8523SM  H23F11438   5.510   5.598   6.294  1.7330 -1.5207 -0.1895
   8523SM  H23G11439   5.551   5.727   6.409  0.3693  0.0019  0.9261
   8523SM  H23H11440   5.501   5.573   6.478  1.2916  0.8452  0.7973
   8623SM     N11441   3.691   3.003   4.620 -0.1494 -0.7170 -0.4693
   8623SM   C1511442   3.832   3.030   4.590 -0.4226  0.9376 -0.2732
   8623SM  H15A11443   3.894   2.968   4.652 -0.7275 -0.8363 -1.6262
   8623SM  H15B11444   3.859   3.129   4.622  0.5959  0.6913 -0.3253
   8623SM  H15C11445   3.847   3.031   4.483 -2.0098 -1.7587 -0.6227
   8623SM   C1411446   3.649   2.874   4.571  0.6103  0.8370  0.3442
   8623SM  H14A11447   3.550   2.843   4.599  0.2341  0.3847 -1.3681
   8623SM  H14B11448   3.725   2.799   4.589  1.2717  1.8634  2.0536
   8623SM  H14C11449   3.639   2.890   4.464 -0.8594 -1.0089  0.1557
   8623SM   C1311450   3.679   2.994   4.768 -0.0498  0.0775  0.1410
   8623SM  H13A11451   3.586   2.955   4.803  0.8819 -1.5459  0.8970
   8623SM  H13B11452   3.698   3.090   4.815 -1.8450 -0.2133  1.5153
   8623SM  H13C11453   3.756   2.925   4.800  0.1987 -1.0901 -2.6357
   8623SM   C1211454   3.608   3.123   4.569 -1.0392 -0.0318 -0.4152
   8623SM  H12A11455   3.507   3.089   4.580 -0.1149 -3.0798 -0.5795
   8623SM  H12B11456   3.616   3.139   4.463 -0.9167  2.0389 -0.1507
   8623SM   C1111457   3.645   3.263   4.633 -0.2619  0.2479  0.7373
   8623SM  H11A11458   3.649   3.262   4.744  0.5370  0.9968  0.7231
   8623SM  H11B11459   3.571   3.338   4.598 -1.0389 -1.0741 -0.5762
   8623SM     P11460   3.820   3.459   4.593 -0.0643 -0.3480 -0.2092
   8623SM   O1311461   3.950   3.481   4.537  0.2398  0.6050 -0.1166
   8623SM   O1411462   3.703   3.538   4.543 -0.5310  0.1872  0.8195
   8623SM   O1111463   3.834   3.506   4.750  0.6172 -0.0444  0.1840
   8623SM   O1211464   3.774   3.304   4.589  0.5378  0.5572 -0.0132
   8623SM   C1S11465   3.721   3.515   4.841 -0.7078  0.1182 -0.9253
   8623SM   H1S11466   3.697   3.413   4.877  0.5292  0.1803  0.1529
   8623SM   H1T11467   3.636   3.566   4.790 -2.6739 -0.0129  1.9832
   8623SM    NF11468   3.654   3.579   5.067 -0.1030 -0.4327 -0.4542
   8623SM   HNF11469   3.583   3.644   5.091 -0.3377 -1.1169  0.8141
   8623SM   C2S11470   3.751   3.603   4.965 -0.4352 -0.3955  0.3579
   8623SM   H2S11471   3.856   3.580   4.992  0.0488  1.9770  0.6641
   8623SM   C3S11472   3.751   3.745   4.913 -0.0859  0.2137 -0.7121
   8623SM   H3S11473   3.651   3.761   4.866 -0.6050 -0.6110  0.0717
   8623SM    O311474   3.844   3.778   4.813 -0.1276 -0.0198  0.3522
   8623SM   HO311475   3.905   3.707   4.795  0.5143  0.7206 -0.5262
   8623SM   C4S11476   3.767   3.842   5.017 -0.3515 -0.4428  0.7443
   8623SM   H4S11477   3.672   3.898   5.026  1.1240  2.1038  1.6878
   8623SM   C5S11478   3.872   3.872   5.100  0.1711 -0.2694  0.7742
   8623SM   H5S11479   3.962   3.808   5.102 -0.4375 -1.2164 -0.2964
   8623SM   C6S11480   3.857   3.967   5.204 -0.3828 -0.2098 -0.3956
   8623SM   H6S11481   3.769   4.034   5.196 -0.2268 -0.0383 -0.6898
   8623SM   H6T11482   3.945   4.032   5.182 -0.1945 -0.8095 -1.4542
   8623SM   C7S11483   3.879   3.920   5.346  0.7365 -0.0757 -0.6498
   8623SM   H7S11484   3.891   4.015   5.402  0.6435  0.0190 -0.7909
   8623SM   H7T11485   3.969   3.861   5.374 -0.2034 -0.2870  2.2549
   8623SM   C8S11486   3.749   3.848   5.409  0.4438  0.4980  1.1036
   8623SM   H8S11487   3.733   3.754   5.352  0.2028  0.6068  0.9882
   8623SM   H8T11488   3.659   3.909   5.388 -0.3407  0.6654  4.3908
   8623SM   C9S11489   3.760   3.816   5.560  0.5012  0.5293 -0.2955
   8623SM   H9S11490   3.776   3.911   5.616  1.0768  0.3844 -0.2020
   8623SM   H9T11491   3.850   3.754   5.579  0.3722  0.3003 -0.4257
   8623SM  C10S11492   3.640   3.737   5.611  0.0529 -0.4785 -0.1915
   8623SM  H10S11493   3.640   3.641   5.554  0.6387 -0.6872  0.1476
   8623SM  H10T11494   3.544   3.792   5.600  0.2888  0.0006  0.1369
   8623SM  C11S11495   3.668   3.683   5.753 -0.2955 -0.3404  0.5096
   8623SM  H11S11496   3.666   3.764   5.830  0.2455  0.3824 -0.2325
   8623SM  H11T11497   3.772   3.646   5.760  0.8915  2.0557 -2.2215
   8623SM  C12S11498   3.560   3.569   5.783 -0.1854  0.0945  0.0677
   8623SM  H12S11499   3.586   3.480   5.721 -2.8692 -0.5377 -0.2643
   8623SM  H12T11500   3.463   3.607   5.744 -0.1114 -0.2334 -0.4464
   8623SM  C13S11501   3.557   3.539   5.940  0.5515  0.0697  0.0476
   8623SM  H13S11502   3.557   3.641   5.982  1.2202  1.3188 -2.7514
   8623SM  H13T11503   3.657   3.498   5.966 -0.1197 -0.2485  2.3357
   8623SM  C14S11504   3.441   3.451   5.976  0.5489  0.1761 -0.5326
   8623SM  H14S11505   3.443   3.348   5.934 -1.0974  0.7666 -2.2122
   8623SM  H14T11506   3.350   3.494   5.929 -0.4890 -1.4626 -0.1281
   8623SM  C15S11507   3.434   3.445   6.123  0.2637 -0.6547  0.0110
   8623SM  H15S11508   3.428   3.552   6.154 -0.7076 -0.5974 -0.3482
   8623SM  H15T11509   3.523   3.392   6.164  0.4750  0.7800  1.5304
   8623SM  C16S11510   3.310   3.383   6.181 -0.1802 -0.0390 -0.1910
   8623SM  H16S11511   3.309   3.277   6.148  1.1556 -0.2234  0.3035
   8623SM  H16T11512   3.223   3.432   6.133  0.7668  2.9911  0.9672
   8623SM  C17S11513   3.284   3.395   6.328  0.3563 -0.0315 -0.2086
   8623SM  H17S11514   3.264   3.503   6.348 -2.1852 -0.6995  1.3094
   8623SM  H17T11515   3.365   3.373   6.400 -1.6822 -0.7442  1.9954
   8623SM  C18S11516   3.161   3.308   6.371  0.4884 -0.2484 -0.0741
   8623SM  H18S11517   3.081   3.336   6.300  1.9278 -0.9523 -2.0387
   8623SM  H18T11518   3.136   3.339   6.475 -1.0438 -2.4599  0.2791
   8623SM  H18U11519   3.186   3.200   6.380  1.4186  0.1096  3.0851
   8623SM   C1F11520   3.665   3.465   5.136  0.0882  0.8619  0.1475
   8623SM    OF11521   3.750   3.383   5.104  0.2041  0.4404  0.0318
   8623SM   C2F11522   3.577   3.438   5.248  0.4463 -0.8490  0.2626
   8623SM   H2F11523   3.635   3.461   5.340 -2.5483 -2.8350  2.8674
   8623SM   H2G11524   3.553   3.329   5.245  2.3450 -1.2809 -1.4711
   8623SM   C3F11525   3.438   3.515   5.259  0.2211 -0.7173 -0.6661
   8623SM   H3F11526   3.387   3.483   5.165 -2.7101 -3.1514  1.5398
   8623SM   H3G11527   3.464   3.622   5.272  1.9232 -1.0072 -1.3960
   8623SM   C4F11528   3.350   3.474   5.375 -0.6985  0.0822 -0.0045
   8623SM   H4F11529   3.408   3.432   5.460  0.4332  0.9298 -0.3355
   8623SM   H4G11530   3.275   3.401   5.339  1.5613 -2.0734 -0.5910
   8623SM   C5F11531   3.280   3.602   5.435 -0.3322 -0.5525 -1.2395
   8623SM   H5F11532   3.220   3.657   5.359  0.3356 -2.2117 -3.0654
   8623SM   H5G11533   3.353   3.663   5.492 -0.9785  0.3069 -1.3203
   8623SM   C6F11534   3.156   3.563   5.526  0.2301 -0.0869 -0.3873
   8623SM   H6F11535   3.098   3.496   5.459 -0.0173  0.4713 -0.7337
   8623SM   H6G11536   3.094   3.649   5.558  1.8863  0.5701  1.2525
   8623SM   C7F11537   3.183   3.466   5.648 -0.2722  0.2453 -0.4880
   8623SM   H7F11538   3.240   3.528   5.720  0.0464  0.0820 -0.5948
   8623SM   H7G11539   3.247   3.377   5.626 -1.8679 -0.5806 -1.9988
   8623SM   C8F11540   3.053   3.415   5.713 -0.1307  0.9551 -1.1534
   8623SM   H8F11541   3.005   3.345   5.642  1.0822  0.0410 -1.0954
   8623SM   H8G11542   2.991   3.503   5.743  1.3676  1.4599  0.6659
   8623SM   C9F11543   3.081   3.326   5.840  0.5375  0.2290 -0.1338
   8623SM   H9F11544   3.154   3.389   5.894 -0.9406 -0.6431  3.1993
   8623SM   H9G11545   3.111   3.223   5.810 -2.1345 -0.6057 -0.2424
   8623SM  C10F11546   2.953   3.300   5.928 -0.8943  0.4723 -0.6564
   8623SM  H10F11547   2.866   3.262   5.871 -0.9310  0.7401 -0.7835
   8623SM  H10G11548   2.918   3.393   5.979  1.5180 -0.4315  3.0174
   8623SM  C11F11549   2.989   3.208   6.044  0.6657  0.4337 -0.1460
   8623SM  H11F11550   2.917   3.211   6.128  0.8555 -0.8925  0.0770
   8623SM  H11G11551   3.091   3.230   6.084  0.6859 -3.0599  2.1556
   8623SM  C12F11552   3.003   3.060   5.997 -0.2368  0.6433  0.0513
   8623SM  H12F11553   3.080   3.056   5.917 -0.0943 -1.5906  0.2391
   8623SM  H12G11554   2.904   3.021   5.968 -0.3511  2.4513 -2.2719
   8623SM  C13F11555   3.060   2.979   6.117  0.7728  0.1721 -0.2326
   8623SM  H13F11556   2.984   2.973   6.198  2.0626  0.8972  1.0825
   8623SM  H13G11557   3.142   3.035   6.167 -1.1480  2.6732  0.3290
   8623SM  C14F11558   3.122   2.838   6.068  0.5086 -0.2515  0.1019
   8623SM  H14F11559   3.197   2.852   5.988  0.3984  0.8339  0.1793
   8623SM  H14G11560   3.036   2.782   6.025 -1.4332  0.6035  2.6373
   8623SM  C15F11561   3.197   2.764   6.182 -0.1734  0.4718 -0.3211
   8623SM  H15F11562   3.252   2.840   6.240  0.2298  0.8856 -1.2329
   8623SM  H15G11563   3.274   2.698   6.136  0.2409 -0.3580  1.4774
   8623SM  C16F11564   3.112   2.679   6.280  0.0488  0.0276  0.2532
   8623SM  H16F11565   3.057   2.603   6.220 -0.8270 -0.5969  1.7885
   8623SM  H16G11566   3.052   2.742   6.348  0.3372 -1.4390  1.9360
   8623SM  C17F11567   3.203   2.596   6.378 -0.0088  0.2443  0.5679
   8623SM  H17F11568   3.299   2.575   6.326  0.2893  2.9215 -0.1067
   8623SM  H17G11569   3.152   2.502   6.411  0.9370  0.5954  3.3725
   8623SM  C18F11570   3.240   2.657   6.507 -0.3263 -0.1539  0.1375
   8623SM  H18F11571   3.147   2.693   6.554 -0.6108  1.0236 -1.2444
   8623SM  H18G11572   3.298   2.748   6.480  0.3626 -0.3033  1.0423
   8623SM  C19F11573   3.334   2.574   6.597 -0.0795 -0.1105 -0.5656
   8623SM  H19F11574   3.276   2.483   6.621  0.2401 -0.5805 -1.5099
   8623SM  H19G11575   3.352   2.632   6.690 -0.4493 -0.5458 -0.2146
   8623SM  C20F11576   3.462   2.510   6.536  0.8784  0.3073 -0.3656
   8623SM  H20F11577   3.440   2.441   6.452  1.8340 -0.9628  0.3868
   8623SM  H20G11578   3.520   2.444   6.604 -0.3616 -0.0469  0.3684
   8623SM  C21F11579   3.564   2.618   6.485 -0.0346 -1.1403 -0.7759
   8623SM  H21F11580   3.618   2.665   6.570 -2.2793  1.5487 -0.6663
   8623SM  H21G11581   3.522   2.706   6.431  1.1311 -1.5238 -2.3996
   8623SM  C22F11582   3.661   2.558   6.392  0.7394 -0.4289  0.0341
   8623SM  H22F11583   3.701   2.459   6.424 -1.3553 -1.9081 -1.6105
   8623SM  H22G11584   3.746   2.625   6.370  0.2953 -0.1030 -0.7196
   8623SM  C23F11585   3.605   2.528   6.250  0.7210 -0.3860 -0.2721
   8623SM  H23F11586   3.693   2.508   6.185  1.5336  0.2787  0.5979
   8623SM  H23G11587   3.546   2.617   6.222 -0.8633 -1.3810 -0.2397
   8623SM  H23H11588   3.539   2.438   6.257  1.5559 -1.3539 -3.2151
   8723SM     N11589   5.400   2.054   4.263 -0.1145  0.1733  0.6280
   8723SM   C1511590   5.346   1.939   4.185 -0.0725  0.2067  0.0357
   8723SM  H15A11591   5.407   1.850   4.188 -2.3299 -1.4315 -0.3618
   8723SM  H15B11592   5.336   1.958   4.079 -1.5105 -2.6591 -0.4603
   8723SM  H15C11593   5.243   1.915   4.208 -0.7842 -0.9760 -3.6938
   8723SM   C1411594   5.533   2.088   4.188 -0.2692 -0.3012 -0.3817
   8723SM  H14A11595   5.573   2.180   4.226 -2.0467  0.2458  0.2515
   8723SM  H14B11596   5.506   2.103   4.084 -1.1999  1.4210  0.0722
   8723SM  H14C11597   5.601   2.005   4.197 -1.4092 -1.3226 -0.8708
   8723SM   C1311598   5.305   2.169   4.236  0.3298  0.0568 -0.3303
   8723SM  H13A11599   5.209   2.143   4.277  1.4525 -0.4239  2.1615
   8723SM  H13B11600   5.279   2.183   4.132  1.1461  1.9734 -0.3263
   8723SM  H13C11601   5.347   2.257   4.282  1.6172 -1.5921  1.8499
   8723SM   C1211602   5.430   2.019   4.406  0.2067  0.1461 -0.6326
   8723SM  H12A11603   5.477   1.922   4.407  2.6894  1.1638 -3.2356
   8723SM  H12B11604   5.338   2.014   4.462  0.2586  0.7232 -0.4836
   8723SM   C1111605   5.530   2.111   4.487  0.0832 -0.4476  0.0906
   8723SM  H11A11606   5.628   2.109   4.436  0.4166 -0.5416  0.7242
   8723SM  H11B11607   5.547   2.073   4.590 -2.0653 -2.7848 -0.3218
   8723SM     P11608   5.555   2.350   4.577 -0.0216  0.2984  0.1130
   8723SM   O1311609   5.696   2.348   4.536  0.0652 -0.0080  0.2755
   8723SM   O1411610   5.485   2.478   4.579 -0.1680  0.2020  0.2489
   8723SM   O1111611   5.549   2.286   4.720 -0.0518  0.6374 -0.0083
   8723SM   O1211612   5.476   2.246   4.489  0.7690 -0.8155  0.1692
   8723SM   C1S11613   5.426   2.260   4.782  0.2394  0.1993  0.3498
   8723SM   H1S11614   5.396   2.158   4.749 -0.6949  1.1626 -2.0229
   8723SM   H1T11615   5.346   2.335   4.764 -0.2046 -0.0567  1.2152
   8723SM    NF11616   5.340   2.182   5.005 -0.4688  0.2681 -0.1752
   8723SM   HNF11617   5.252   2.228   5.012 -0.3890  0.3572  0.2621
   8723SM   C2S11618   5.446   2.261   4.934 -0.3388  0.5898  0.0078
   8723SM   H2S11619   5.543   2.209   4.953  0.0508  1.1185 -0.4861
   8723SM   C3S11620   5.465   2.411   4.986 -0.2440  0.1383  0.3394
   8723SM   H3S11621   5.370   2.465   4.968  1.3325  2.7597 -0.6610
   8723SM    O311622   5.573   2.489   4.917  0.3962  0.6476 -0.5268
   8723SM   HO311623   5.603   2.430   4.847 -1.2048  0.6217 -1.2304
   8723SM   C4S11624   5.494   2.413   5.139  0.1332 -0.5557  0.4212
   8723SM   H4S11625   5.602   2.411   5.161  0.8219  0.8259 -2.3747
   8723SM   C5S11626   5.401   2.439   5.234 -0.5618 -0.3164  0.5702
   8723SM   H5S11627   5.294   2.440   5.206 -0.3874  2.2407 -0.1835
   8723SM   C6S11628   5.443   2.468   5.375  0.8028  0.0198 -0.5264
   8723SM   H6S11629   5.390   2.553   5.424  0.2043 -0.8666  0.4030
   8723SM   H6T11630   5.552   2.490   5.379  1.8028 -3.9196 -2.0748
   8723SM   C7S11631   5.424   2.358   5.487 -0.5199 -0.2068 -0.1446
   8723SM   H7S11632   5.318   2.325   5.496 -0.6857 -0.1393 -1.5616
   8723SM   H7T11633   5.455   2.407   5.582  0.5421 -0.1033 -0.5280
   8723SM   C8S11634   5.507   2.232   5.466 -0.6305  0.3968  0.6261
   8723SM   H8S11635   5.615   2.256   5.454 -0.0870 -0.5410  3.0096
   8723SM   H8T11636   5.464   2.188   5.374  1.2149  0.1575 -0.1649
   8723SM   C9S11637   5.499   2.134   5.585 -0.4175 -0.3745  0.0887
   8723SM   H9S11638   5.532   2.186   5.678 -0.0449  1.4713 -1.0409
   8723SM   H9T11639   5.579   2.059   5.565  0.6618  0.8208 -0.2073
   8723SM  C10S11640   5.375   2.049   5.609 -0.2661 -0.2921  0.1227
   8723SM  H10S11641   5.358   1.984   5.520  0.4038 -0.7200  0.3056
   8723SM  H10T11642   5.298   2.129   5.620  0.5420  0.4918  0.1791
   8723SM  C11S11643   5.368   1.961   5.741 -0.1683  0.1957  0.3702
   8723SM  H11S11644   5.260   1.936   5.754 -0.4080  1.2906  0.6349
   8723SM  H11T11645   5.400   2.017   5.831 -1.5800 -0.8630  1.5915
   8723SM  C12S11646   5.468   1.847   5.730  0.6286  0.1179  0.5443
   8723SM  H12S11647   5.570   1.883   5.705  0.2690  0.3362 -0.7418
   8723SM  H12T11648   5.433   1.790   5.641 -1.2717 -0.3213  1.5199
   8723SM  C13S11649   5.474   1.750   5.848 -0.7431  0.1685  0.1980
   8723SM  H13S11650   5.376   1.713   5.883 -1.6207  1.8549 -0.3730
   8723SM  H13T11651   5.521   1.799   5.936 -1.2710  0.9504  0.0529
   8723SM  C14S11652   5.563   1.622   5.810  0.0950 -0.1087 -0.5352
   8723SM  H14S11653   5.655   1.657   5.759 -0.0134 -2.4530 -2.5579
   8723SM  H14T11654   5.512   1.556   5.736 -1.1280 -1.3545  1.3422
   8723SM  C15S11655   5.579   1.529   5.935 -0.7792  0.1574 -0.6151
   8723SM  H15S11656   5.481   1.482   5.957 -1.6707  1.7909 -0.9626
   8723SM  H15T11657   5.616   1.595   6.017 -0.1338  0.4213 -1.1048
   8723SM  C16S11658   5.685   1.414   5.927 -0.4047 -0.5291  0.6568
   8723SM  H16S11659   5.776   1.468   5.896 -0.8566  0.4842  1.0333
   8723SM  H16T11660   5.655   1.346   5.844  1.8034  0.8710 -1.4159
   8723SM  C17S11661   5.698   1.346   6.060 -0.4381  0.3205 -0.0946
   8723SM  H17S11662   5.594   1.322   6.089 -1.0381 -0.0207 -2.3543
   8723SM  H17T11663   5.746   1.417   6.132  1.5048 -1.0722  0.0583
   8723SM  C18S11664   5.782   1.214   6.056  0.0710 -0.2394  0.0956
   8723SM  H18S11665   5.734   1.128   6.005  1.1810 -1.7464  1.4764
   8723SM  H18T11666   5.794   1.185   6.163 -0.0286  3.2421  1.2000
   8723SM  H18U11667   5.888   1.234   6.029 -0.2725  2.3745  0.3675
   8723SM   C1F11668   5.337   2.043   4.999 -0.4234 -0.3474 -0.1650
   8723SM    OF11669   5.434   1.980   4.953 -0.1438  0.2748 -0.0171
   8723SM   C2F11670   5.203   1.979   5.035 -0.5023  0.1402  0.5063
   8723SM   H2F11671   5.176   1.914   4.949  1.9505 -1.6583  0.9918
   8723SM   H2G11672   5.123   2.055   5.048  1.4376  2.2364  0.8677
   8723SM   C3F11673   5.223   1.892   5.167  0.5593 -0.2191 -0.0315
   8723SM   H3F11674   5.247   1.961   5.251 -1.0580  0.1876  0.1296
   8723SM   H3G11675   5.300   1.813   5.155 -0.9151 -1.3992 -2.4500
   8723SM   C4F11676   5.097   1.812   5.208 -0.0240 -0.5736 -0.3241
   8723SM   H4F11677   5.062   1.759   5.117  0.2846 -0.7210 -0.3554
   8723SM   H4G11678   5.015   1.884   5.230 -0.0202 -0.2288 -1.3844
   8723SM   C5F11679   5.109   1.704   5.322 -0.2789 -0.3825  0.0929
   8723SM   H5F11680   5.137   1.757   5.416  1.0417  0.4235 -0.7239
   8723SM   H5G11681   5.192   1.635   5.296  1.6419  1.0620  2.0265
   8723SM   C6F11682   4.977   1.620   5.343 -0.0210 -0.5451  0.3365
   8723SM   H6F11683   4.931   1.603   5.243  0.4152 -0.4556  0.1193
   8723SM   H6G11684   4.918   1.682   5.413  0.9122  0.4849  0.2518
   8723SM   C7F11685   5.010   1.483   5.393  0.6839  0.3139 -0.3486
   8723SM   H7F11686   5.060   1.437   5.305  0.5831 -0.4853  0.0062
   8723SM   H7G11687   4.920   1.422   5.417  1.1981  0.0033  0.8517
   8723SM   C8F11688   5.093   1.465   5.519 -0.4752  0.1610 -0.5742
   8723SM   H8F11689   5.059   1.536   5.597  1.3506 -0.5134  0.8917
   8723SM   H8G11690   5.200   1.493   5.506 -0.3854 -0.1097 -0.4263
   8723SM   C9F11691   5.102   1.319   5.568 -0.9047  0.2805  0.4907
   8723SM   H9F11692   5.132   1.257   5.480  0.7740  1.6966  0.0159
   8723SM   H9G11693   5.002   1.282   5.599 -1.4463  1.7797  0.6234
   8723SM  C10F11694   5.208   1.302   5.679 -0.4262 -0.0309 -0.3091
   8723SM  H10F11695   5.197   1.386   5.751 -0.7317 -0.2807 -0.0639
   8723SM  H10G11696   5.309   1.308   5.633 -1.4107 -0.0261 -2.6013
   8723SM  C11F11697   5.207   1.165   5.758  0.4439 -0.7674  0.0745
   8723SM  H11F11698   5.264   1.088   5.701 -0.2118 -0.7383 -0.6442
   8723SM  H11G11699   5.102   1.131   5.753  0.3397 -0.4393  0.0515
   8723SM  C12F11700   5.245   1.183   5.909  0.2069  0.7266  0.0377
   8723SM  H12F11701   5.207   1.283   5.940 -0.6800  0.3256  0.3053
   8723SM  H12G11702   5.355   1.176   5.904  0.0930 -0.6888 -1.2002
   8723SM  C13F11703   5.191   1.063   5.987 -0.3725 -0.3211 -0.2767
   8723SM  H13F11704   5.239   1.063   6.087  2.2897 -1.6118 -1.4336
   8723SM  H13G11705   5.223   0.967   5.940  2.0181  0.4053 -0.3104
   8723SM  C14F11706   5.048   1.060   6.018 -0.0436  0.4066 -0.3478
   8723SM  H14F11707   5.001   0.996   5.940  2.0847 -1.8206  0.0920
   8723SM  H14G11708   5.012   1.165   6.019 -0.1301  0.3925 -1.3048
   8723SM  C15F11709   4.999   0.997   6.157  0.2606 -0.7570  0.3414
   8723SM  H15F11710   5.053   1.047   6.240 -2.1369 -1.8514  2.7237
   8723SM  H15G11711   5.017   0.887   6.165 -0.0622 -0.7154  1.9473
   8723SM  C16F11712   4.844   1.026   6.177 -0.3629 -0.3484  0.4054
   8723SM  H16F11713   4.788   0.960   6.106  0.6144 -1.3071  0.4957
   8723SM  H16G11714   4.820   1.132   6.153  0.8258 -0.0737  0.4113
   8723SM  C17F11715   4.806   0.999   6.321  0.1939 -0.4966  0.3265
   8723SM  H17F11716   4.879   1.052   6.386 -0.4443  1.1767 -0.2644
   8723SM  H17G11717   4.821   0.890   6.339  0.1714  0.1348  5.3857
   8723SM  C18F11718   4.655   1.029   6.341 -0.1697 -0.3951 -0.8225
   8723SM  H18F11719   4.622   0.989   6.439 -1.9201 -0.0608 -1.2409
   8723SM  H18G11720   4.595   0.992   6.256  0.4977 -0.0742 -1.4421
   8723SM  C19F11721   4.625   1.181   6.354 -0.1651 -0.8118 -0.5114
   8723SM  H19F11722   4.669   1.227   6.263 -1.8601  1.1440 -0.4359
   8723SM  H19G11723   4.675   1.219   6.445  0.1023 -2.6582  0.1442
   8723SM  C20F11724   4.470   1.201   6.346 -0.0698 -0.1857  0.8150
   8723SM  H20F11725   4.433   1.137   6.429 -0.8569 -3.5959 -1.9262
   8723SM  H20G11726   4.440   1.161   6.247 -2.1899  1.7696  0.5995
   8723SM  C21F11727   4.409   1.339   6.356 -0.3656 -0.5951  0.4807
   8723SM  H21F11728   4.424   1.392   6.259 -1.1680 -1.7105 -0.2655
   8723SM  H21G11729   4.456   1.398   6.438  1.0762  2.2252 -2.1357
   8723SM  C22F11730   4.261   1.340   6.375  0.0193 -0.5674 -0.9967
   8723SM  H22F11731   4.250   1.316   6.483  0.8638  2.5473 -0.1149
   8723SM  H22G11732   4.214   1.259   6.316 -2.2409 -0.9161  1.1200
   8723SM  C23F11733   4.191   1.474   6.354  0.1729 -1.1376 -0.9103
   8723SM  H23F11734   4.207   1.507   6.250  0.5443  0.5069 -0.3522
   8723SM  H23G11735   4.242   1.543   6.424 -0.2548 -1.8352  0.1148
   8723SM  H23H11736   4.082   1.472   6.376  0.1214  0.5311 -0.9076
   8823SM     N11737   2.599   3.790   4.340 -0.0536 -0.1413 -0.8950
   8823SM   C1511738   2.563   3.724   4.207 -0.5250  0.5226 -0.4987
   8823SM  H15A11739   2.457   3.703   4.205 -0.8148  1.8618 -0.1585
   8823SM  H15B11740   2.613   3.628   4.198 -0.4999  0.0864  2.9145
   8823SM  H15C11741   2.601   3.793   4.133 -0.2599  0.4673 -0.4163
   8823SM   C1411742   2.752   3.813   4.333  0.1894  0.5076 -0.1976
   8823SM  H14A11743   2.770   3.883   4.253  2.4799  0.4305  0.1985
   8823SM  H14B11744   2.789   3.713   4.314  1.3315  0.4114  2.1374
   8823SM  H14C11745   2.793   3.862   4.420  0.4621 -0.9251  0.5011
   8823SM   C1311746   2.535   3.924   4.350 -0.1252 -0.1824 -0.3656
   8823SM  H13A11747   2.428   3.913   4.340 -0.2156  2.1666 -6.3457
   8823SM  H13B11748   2.553   3.984   4.262 -1.3441  2.9368  1.3438
   8823SM  H13C11749   2.569   3.982   4.435  2.0967  0.7731 -1.8198
   8823SM   C1211750   2.563   3.700   4.457 -0.6662 -0.2210 -0.2573
   8823SM  H12A11751   2.578   3.750   4.551 -2.5757 -1.2037  0.6176
   8823SM  H12B11752   2.621   3.609   4.453  0.9216  0.6383  1.8712
   8823SM   C1111753   2.420   3.651   4.454  0.5194 -0.4327 -0.2602
   8823SM  H11A11754   2.416   3.572   4.532  1.5823  0.5100  0.7960
   8823SM  H11B11755   2.392   3.605   4.357  1.5914  0.0702 -0.8331
   8823SM     P11756   2.190   3.781   4.442 -0.1663  0.1784  0.1891
   8823SM   O1311757   2.203   3.879   4.332  0.2125 -0.7839 -0.5997
   8823SM   O1411758   2.119   3.656   4.405  0.4421  0.2092  0.7204
   8823SM   O1111759   2.126   3.853   4.567  0.2528 -0.1743 -0.1347
   8823SM   O1211760   2.331   3.755   4.502 -0.7046 -0.3221  0.1291
   8823SM   C1S11761   2.128   3.789   4.694  0.7362  0.6282 -0.3643
   8823SM   H1S11762   2.224   3.738   4.716 -0.4730 -1.5390  0.1450
   8823SM   H1T11763   2.049   3.711   4.702  0.3774  1.1623  2.3101
   8823SM    NF11764   2.114   3.834   4.934 -0.1074  0.7616 -0.4674
   8823SM   HNF11765   2.038   3.793   4.985  0.8383 -0.4282  0.0173
   8823SM   C2S11766   2.087   3.892   4.804  0.6808 -0.0520  0.1164
   8823SM   H2S11767   2.155   3.978   4.785 -0.1741  0.8247  0.9021
   8823SM   C3S11768   1.942   3.930   4.791 -0.5204 -0.2099  0.4764
   8823SM   H3S11769   1.881   3.841   4.815 -0.4623 -0.1748  0.7682
   8823SM    O311770   1.906   3.976   4.662  0.2784 -0.5043 -1.0045
   8823SM   HO311771   1.982   3.974   4.604  1.3658  0.5220  0.3087
   8823SM   C4S11772   1.900   4.036   4.898  0.1173 -0.1566  0.3481
   8823SM   H4S11773   1.877   3.997   4.998 -0.1454  0.5283  0.5621
   8823SM   C5S11774   1.893   4.175   4.893 -0.7209  0.1664 -0.5147
   8823SM   H5S11775   1.927   4.223   4.800  0.2753  1.6031  0.5641
   8823SM   C6S11776   1.862   4.266   5.006  1.1149  0.4230  0.0324
   8823SM   H6S11777   1.758   4.302   4.994  1.0324  0.7684  1.6389
   8823SM   H6T11778   1.931   4.353   5.003  0.6055  0.8951 -3.8958
   8823SM   C7S11779   1.860   4.200   5.149  0.5983  0.1062  0.6558
   8823SM   H7S11780   1.962   4.158   5.163  0.3640 -1.6104 -1.8806
   8823SM   H7T11781   1.784   4.119   5.157  0.5444  0.1814  0.9083
   8823SM   C8S11782   1.820   4.305   5.250  0.5377  0.4498 -0.3151
   8823SM   H8S11783   1.717   4.342   5.232 -0.6573 -2.2342  0.3901
   8823SM   H8T11784   1.887   4.390   5.228 -1.2879  2.1218  0.2479
   8823SM   C9S11785   1.823   4.249   5.393  0.1744  0.2990 -0.2519
   8823SM   H9S11786   1.930   4.229   5.417  0.1292  1.7841  1.3972
   8823SM   H9T11787   1.764   4.155   5.404 -1.0397  1.0776  0.0422
   8823SM  C10S11788   1.770   4.367   5.480 -0.0601 -0.3906 -0.6363
   8823SM  H10S11789   1.665   4.377   5.445  0.1774 -0.9585 -1.5464
   8823SM  H10T11790   1.823   4.461   5.453 -0.7472 -0.0421 -0.8029
   8823SM  C11S11791   1.776   4.350   5.631 -1.2686 -0.1595 -0.1637
   8823SM  H11S11792   1.756   4.448   5.680  0.5583 -0.5024  1.3677
   8823SM  H11T11793   1.880   4.322   5.654 -1.6019  0.2685  2.0966
   8823SM  C12S11794   1.680   4.246   5.678  0.6295 -0.2066 -0.5927
   8823SM  H12S11795   1.723   4.151   5.639 -2.9433 -1.8846 -0.8151
   8823SM  H12T11796   1.582   4.251   5.627  0.5613 -1.0454 -0.5523
   8823SM  C13S11797   1.655   4.231   5.832 -0.7846  0.3793  0.2656
   8823SM  H13S11798   1.742   4.192   5.887 -0.1864 -0.2127 -1.0624
   8823SM  H13T11799   1.572   4.159   5.848 -0.6347  0.1621  0.0659
   8823SM  C14S11800   1.610   4.363   5.898 -0.1879  0.0627 -0.0022
   8823SM  H14S11801   1.524   4.411   5.847  0.4703  0.6705 -0.5465
   8823SM  H14T11802   1.696   4.432   5.896 -0.1561  0.0660 -2.8569
   8823SM  C15S11803   1.571   4.347   6.046  0.0645 -0.7801  0.1812
   8823SM  H15S11804   1.560   4.443   6.100 -2.1593 -0.4985 -0.6406
   8823SM  H15T11805   1.647   4.287   6.099  0.0983 -0.8810  0.0202
   8823SM  C16S11806   1.443   4.277   6.076  0.3195  0.2893 -0.6080
   8823SM  H16S11807   1.437   4.179   6.024 -0.0408 -0.6511  1.1328
   8823SM  H16T11808   1.355   4.331   6.035 -1.9300 -2.2129  0.6286
   8823SM  C17S11809   1.421   4.247   6.231 -0.4831 -0.3540 -0.2874
   8823SM  H17S11810   1.514   4.196   6.264 -0.9838 -1.3497 -0.3694
   8823SM  H17T11811   1.334   4.178   6.236 -1.4414  0.7642 -1.0140
   8823SM  C18S11812   1.401   4.366   6.319 -0.4113  0.0723  0.2856
   8823SM  H18S11813   1.308   4.422   6.295 -0.0208  0.2866 -0.7891
   8823SM  H18T11814   1.482   4.440   6.301 -0.8071 -0.0237 -2.2190
   8823SM  H18U11815   1.395   4.340   6.427 -1.4013 -0.3326  0.1423
   8823SM   C1F11816   2.238   3.828   4.977 -0.8400 -0.6512  0.1795
   8823SM    OF11817   2.345   3.860   4.921  0.3056  0.3191 -0.3795
   8823SM   C2F11818   2.243   3.785   5.121  0.3002 -0.7471  0.4015
   8823SM   H2F11819   2.209   3.680   5.135  0.3915 -0.7589  0.5291
   8823SM   H2G11820   2.165   3.846   5.172  2.7897 -0.0153  3.6823
   8823SM   C3F11821   2.380   3.825   5.192  0.0897 -0.5345  0.0853
   8823SM   H3F11822   2.405   3.928   5.160  1.1649  0.0134  2.4946
   8823SM   H3G11823   2.458   3.760   5.146  0.5181  0.3428 -0.4572
   8823SM   C4F11824   2.375   3.848   5.339 -0.2863 -0.2327  0.3810
   8823SM   H4F11825   2.354   3.754   5.392  0.3412 -0.0877  0.8993
   8823SM   H4G11826   2.292   3.919   5.358  0.8352  1.4032 -0.5123
   8823SM   C5F11827   2.501   3.909   5.397  0.2373  0.3805 -0.2081
   8823SM   H5F11828   2.522   4.009   5.354  1.5952  0.8201  1.3934
   8823SM   H5G11829   2.588   3.844   5.371  0.5485 -0.2013  2.0557
   8823SM   C6F11830   2.510   3.928   5.552 -0.3553  0.1144  0.3088
   8823SM   H6F11831   2.610   3.962   5.585 -0.9709  0.9265  1.3999
   8823SM   H6G11832   2.501   3.829   5.603  2.7374  0.3966  1.5998
   8823SM   C7F11833   2.394   4.006   5.613 -0.2086  0.0019 -0.2854
   8823SM   H7F11834   2.308   4.000   5.543 -0.4731 -0.2150  0.0597
   8823SM   H7G11835   2.424   4.113   5.610 -2.1488  0.5673 -0.3361
   8823SM   C8F11836   2.355   3.968   5.761  0.2949 -0.4085 -0.4669
   8823SM   H8F11837   2.443   3.997   5.822  1.6173 -0.7230 -2.1380
   8823SM   H8G11838   2.338   3.860   5.782  1.4540 -0.0304  3.1124
   8823SM   C9F11839   2.218   4.033   5.811  0.5190  0.5737  0.0862
   8823SM   H9F11840   2.141   4.035   5.731 -1.6017 -1.6576  1.9575
   8823SM   H9G11841   2.243   4.140   5.832  0.0876  1.0826 -1.7744
   8823SM  C10F11842   2.162   3.955   5.931  0.1580  0.0112 -0.2825
   8823SM  H10F11843   2.133   3.855   5.895 -1.1586  0.0230  0.6599
   8823SM  H10G11844   2.081   4.021   5.969  0.6384  0.5878 -0.2318
   8823SM  C11F11845   2.262   3.959   6.053 -0.8269 -0.2354  0.4271
   8823SM  H11F11846   2.260   4.063   6.092 -0.9695 -0.5043  1.1490
   8823SM  H11G11847   2.365   3.919   6.041 -0.5432  0.7041 -0.4478
   8823SM  C12F11848   2.202   3.885   6.174  0.4306  0.2342 -0.0548
   8823SM  H12F11849   2.155   3.791   6.140 -0.5397  0.4988  0.5261
   8823SM  H12G11850   2.134   3.939   6.242 -1.1099 -3.4533  1.5795
   8823SM  C13F11851   2.325   3.836   6.256  0.2164  0.1904  0.7110
   8823SM  H13F11852   2.381   3.932   6.267  1.4600 -0.1414 -1.9924
   8823SM  H13G11853   2.381   3.757   6.200  0.9034 -0.2961  2.0266
   8823SM  C14F11854   2.291   3.796   6.400 -0.3489  0.5002  0.2498
   8823SM  H14F11855   2.383   3.764   6.453 -1.4515  0.2793  2.1064
   8823SM  H14G11856   2.225   3.706   6.397 -1.1178  1.0498  0.2351
   8823SM  C15F11857   2.243   3.907   6.489  0.4752  0.1205  0.2031
   8823SM  H15F11858   2.160   3.958   6.436  1.5267  0.0231 -1.6317
   8823SM  H15G11859   2.316   3.990   6.502 -0.3870  0.7684  1.0143
   8823SM  C16F11860   2.208   3.861   6.631  0.2140  0.2921 -0.0735
   8823SM  H16F11861   2.274   3.773   6.647  0.9616  0.8378 -0.1224
   8823SM  H16G11862   2.101   3.830   6.625 -0.4333  2.3469  0.0966
   8823SM  C17F11863   2.221   3.971   6.740 -0.2757 -0.1421 -0.6990
   8823SM  H17F11864   2.328   4.001   6.737  0.5331 -2.2611  2.2869
   8823SM  H17G11865   2.205   3.928   6.841  1.7295  0.4151 -0.0966
   8823SM  C18F11866   2.125   4.087   6.725 -0.0742  0.6128  0.9896
   8823SM  H18F11867   2.020   4.051   6.737 -0.0061 -0.1665 -0.4473
   8823SM  H18G11868   2.131   4.113   6.617  2.2359 -4.0084 -0.2452
   8823SM  C19F11869   2.154   4.209   6.814 -0.2703 -0.7416 -0.0218
   8823SM  H19F11870   2.180   4.173   6.915  0.1994 -0.5157 -0.0613
   8823SM  H19G11871   2.067   4.278   6.806 -0.2195 -0.6297  0.3884
   8823SM  C20F11872   2.274   4.289   6.751  0.4178  0.1605  0.1071
   8823SM  H20F11873   2.244   4.329   6.651  0.5297 -0.9178 -0.3702
   8823SM  H20G11874   2.358   4.220   6.725  1.0399  0.8858  0.1549
   8823SM  C21F11875   2.339   4.402   6.830 -0.0246 -0.9002 -0.1272
   8823SM  H21F11876   2.261   4.480   6.844 -0.4351 -1.6277  2.0384
   8823SM  H21G11877   2.434   4.433   6.781  0.8844 -0.9207  1.5504
   8823SM  C22F11878   2.383   4.358   6.970 -0.2248  0.1584  0.7704
   8823SM  H22F11879   2.488   4.392   6.975 -0.4889  1.2725 -0.6136
   8823SM  H22G11880   2.398   4.248   6.968  1.6837  0.3908  0.5537
   8823SM  C23F11881   2.302   4.421   7.079 -0.2115 -0.2554 -0.1739
   8823SM  H23F11882   2.369   4.417   7.168  1.7682  2.3695 -1.4345
   8823SM  H23G11883   2.203   4.371   7.086 -0.3646 -0.3138 -2.2128
   8823SM  H23H11884   2.276   4.526   7.056  1.8200  0.1889 -0.6254
   8923SM     N11885   0.380   2.536   4.671 -0.3177 -0.1564  0.4104
   8923SM   C1511886   0.433   2.669   4.617  0.2605  0.4146  0.2910
   8923SM  H15A11887   0.462   2.733   4.699 -3.3887  3.2384 -0.3478
   8923SM  H15B11888   0.362   2.727   4.561 -0.0640 -0.7850 -0.5898
   8923SM  H15C11889   0.519   2.649   4.555 -1.9806 -0.2174 -2.8067
   8923SM   C1411890   0.324   2.462   4.551 -0.0434 -0.1508  0.2322
   8923SM  H14A11891   0.230   2.506   4.522  0.1995 -1.2735 -2.5790
   8923SM  H14B11892   0.317   2.356   4.568 -2.2851 -0.1650 -0.4688
   8923SM  H14C11893   0.390   2.481   4.467 -0.9500 -1.1820 -0.7468
   8923SM   C1311894   0.495   2.464   4.730 -0.2108  0.0648  0.0293
   8923SM  H13A11895   0.467   2.362   4.751 -0.1520  0.1427  0.5033
   8923SM  H13B11896   0.527   2.514   4.820  0.4102 -0.9196  0.3732
   8923SM  H13C11897   0.576   2.467   4.659 -0.3936 -1.1436 -0.2415
   8923SM   C1211898   0.275   2.563   4.777 -0.3905  0.2538 -0.3372
   8923SM  H12A11899   0.193   2.630   4.758  2.0629  3.0961 -1.7299
   8923SM  H12B11900   0.320   2.603   4.867 -3.0547  2.3325  0.2112
   8923SM   C1111901   0.214   2.428   4.834  0.2866 -0.2498  0.0613
   8923SM  H11A11902   0.161   2.454   4.928 -1.9352  0.6131 -1.3585
   8923SM  H11B11903   0.294   2.353   4.849  0.6623 -0.1155 -1.1189
   8923SM     P11904  -0.015   2.435   4.707  0.2425 -0.6602  0.0580
   8923SM   O1311905   0.021   2.553   4.629 -0.3797  0.3400  0.4088
   8923SM   O1411906  -0.111   2.347   4.648 -0.5896  0.7068  0.1885
   8923SM   O1111907  -0.080   2.477   4.849 -0.1374  0.2731  0.1838
   8923SM   O1211908   0.120   2.365   4.748 -0.4693  0.4107 -0.6343
   8923SM   C1S11909  -0.119   2.369   4.937 -0.2226  0.3841 -0.0991
   8923SM   H1S11910  -0.031   2.319   4.983 -0.2380  1.2612  0.9056
   8923SM   H1T11911  -0.167   2.288   4.877  0.7095  0.5228 -1.0726
   8923SM    NF11912  -0.215   2.317   5.160  0.1036  0.0029  1.2718
   8923SM   HNF11913  -0.306   2.276   5.153  0.3686 -0.3218 -1.1504
   8923SM   C2S11914  -0.202   2.419   5.057  0.3637 -0.2981  0.9387
   8923SM   H2S11915  -0.152   2.510   5.094 -0.1433  1.1606 -1.7043
   8923SM   C3S11916  -0.338   2.468   5.005  0.5399 -0.4252 -0.3279
   8923SM   H3S11917  -0.405   2.397   4.953  0.7406 -0.8577  0.0053
   8923SM    O311918  -0.319   2.570   4.905 -0.3896  0.2273 -0.3959
   8923SM   HO311919  -0.233   2.543   4.873 -1.2847 -0.3753 -2.4504
   8923SM   C4S11920  -0.416   2.530   5.108  0.1459  0.0584 -0.4792
   8923SM   H4S11921  -0.392   2.636   5.127 -1.2521  0.3643 -0.2384
   8923SM   C5S11922  -0.521   2.470   5.168 -0.5669 -0.4043 -0.1715
   8923SM   H5S11923  -0.566   2.374   5.137 -0.5088 -0.1296 -1.1610
   8923SM   C6S11924  -0.600   2.530   5.278 -0.1749 -0.2063  0.6214
   8923SM   H6S11925  -0.709   2.521   5.254  0.3604 -0.4445 -2.1074
   8923SM   H6T11926  -0.580   2.638   5.292 -1.3167  0.0804  0.1859
   8923SM   C7S11927  -0.562   2.457   5.404  0.4112  0.1832 -0.9279
   8923SM   H7S11928  -0.459   2.484   5.436 -0.1680  0.9481  0.3813
   8923SM   H7T11929  -0.572   2.347   5.391 -3.2845  0.5734 -2.7150
   8923SM   C8S11930  -0.661   2.499   5.517 -0.6201  0.2533 -0.2033
   8923SM   H8S11931  -0.767   2.471   5.499 -0.6139 -1.5429  2.1080
   8923SM   H8T11932  -0.656   2.609   5.530 -1.6086  0.4248 -1.1329
   8923SM   C9S11933  -0.640   2.437   5.652  0.7888  0.1164  0.0151
   8923SM   H9S11934  -0.538   2.438   5.694  0.3458 -0.3869  1.1260
   8923SM   H9T11935  -0.658   2.330   5.630 -0.1608  0.5209 -1.3551
   8923SM  C10S11936  -0.743   2.476   5.762  0.6503 -0.1752  0.3352
   8923SM  H10S11937  -0.838   2.435   5.722  0.8071 -1.1948  0.9908
   8923SM  H10T11938  -0.752   2.586   5.775 -1.8201 -0.3862  0.8324
   8923SM  C11S11939  -0.716   2.415   5.904  0.1871 -0.1061  0.2439
   8923SM  H11S11940  -0.791   2.451   5.978  0.5914 -1.2516  1.2448
   8923SM  H11T11941  -0.614   2.454   5.927  0.2911  0.0119 -0.4079
   8923SM  C12S11942  -0.695   2.261   5.912  0.0117  0.0334 -0.0874
   8923SM  H12S11943  -0.609   2.233   5.848 -0.9898 -0.7703 -1.1383
   8923SM  H12T11944  -0.786   2.215   5.866 -1.3172  0.1246  2.2821
   8923SM  C13S11945  -0.674   2.212   6.053  0.1047  0.3799  0.7094
   8923SM  H13S11946  -0.745   2.248   6.129 -2.4339 -2.8931  0.1305
   8923SM  H13T11947  -0.578   2.255   6.089 -0.3252  1.3207  0.7438
   8923SM  C14S11948  -0.682   2.060   6.075  0.5103  0.0596  0.9031
   8923SM  H14S11949  -0.605   2.014   6.009  0.6320  0.8971  0.4450
   8923SM  H14T11950  -0.784   2.025   6.052  1.1359 -0.6238 -1.0673
   8923SM  C15S11951  -0.663   2.021   6.224  0.0766  0.1950  0.3217
   8923SM  H15S11952  -0.743   2.071   6.283 -1.9765 -1.1097 -1.1980
   8923SM  H15T11953  -0.569   2.063   6.266  2.4474 -2.4197 -2.0177
   8923SM  C16S11954  -0.674   1.870   6.245 -0.9982 -0.3259 -0.3882
   8923SM  H16S11955  -0.694   1.824   6.145 -0.3418  0.4270 -0.8811
   8923SM  H16T11956  -0.755   1.853   6.319 -0.1640 -0.7213  0.4455
   8923SM  C17S11957  -0.557   1.805   6.313  0.6388  0.3049  1.3610
   8923SM  H17S11958  -0.573   1.698   6.339 -2.3926  0.0098 -1.1565
   8923SM  H17T11959  -0.538   1.858   6.409 -0.3009  0.4406  1.4816
   8923SM  C18S11960  -0.427   1.823   6.234 -0.1191  0.1570 -0.4948
   8923SM  H18S11961  -0.439   1.769   6.137 -0.5916  0.4981 -0.6306
   8923SM  H18T11962  -0.351   1.772   6.297 -0.4401  2.6996  2.1331
   8923SM  H18U11963  -0.399   1.926   6.205 -0.9572 -0.0961 -2.3441
   8923SM   C1F11964  -0.123   2.299   5.254  0.3230  0.6985  0.3594
   8923SM    OF11965  -0.011   2.348   5.251 -0.4181 -0.5993  0.5715
   8923SM   C2F11966  -0.160   2.236   5.384  0.4243  0.2384 -0.5790
   8923SM   H2F11967  -0.269   2.256   5.398 -0.1840 -2.6767 -0.5890
   8923SM   H2G11968  -0.103   2.292   5.461 -0.6940  1.7199 -0.7723
   8923SM   C3F11969  -0.133   2.085   5.381  0.0317 -0.1758  0.2652
   8923SM   H3F11970  -0.120   2.052   5.486 -0.8136  0.2250  0.5001
   8923SM   H3G11971  -0.040   2.069   5.322 -0.3663  1.8399 -1.0086
   8923SM   C4F11972  -0.252   2.007   5.314 -0.2090  0.0273  0.0118
   8923SM   H4F11973  -0.220   1.904   5.292 -1.2743 -0.2250 -0.4339
   8923SM   H4G11974  -0.277   2.049   5.214 -0.7972  2.4176  1.0806
   8923SM   C5F11975  -0.383   1.999   5.395  0.1318  0.3017  0.6286
   8923SM   H5F11976  -0.434   2.097   5.386 -0.4147 -0.0667 -0.4119
   8923SM   H5G11977  -0.375   1.981   5.504 -3.2876  0.0281  0.9440
   8923SM   C6F11978  -0.467   1.884   5.334 -0.1884 -0.0627 -0.4630
   8923SM   H6F11979  -0.439   1.780   5.363 -0.0559 -0.1336 -0.8369
   8923SM   H6G11980  -0.449   1.893   5.225  0.5782  0.7421 -0.2770
   8923SM   C7F11981  -0.621   1.903   5.354  0.9393 -0.0126  0.7008
   8923SM   H7F11982  -0.656   1.802   5.326  1.1881  0.2686 -0.6845
   8923SM   H7G11983  -0.644   1.978   5.275  2.1635  1.4537  1.6629
   8923SM   C8F11984  -0.676   1.950   5.485  0.3595 -1.3373 -0.0711
   8923SM   H8F11985  -0.784   1.964   5.461  0.0540 -0.5833  1.5920
   8923SM   H8G11986  -0.643   2.055   5.500 -0.7037 -1.1836  1.5541
   8923SM   C9F11987  -0.655   1.866   5.609  0.2534  0.6645  0.3785
   8923SM   H9F11988  -0.555   1.886   5.653 -0.1121 -1.6804  2.5013
   8923SM   H9G11989  -0.662   1.765   5.565  0.9553  1.0213 -0.6167
   8923SM  C10F11990  -0.755   1.891   5.726  0.6664 -0.0849 -0.0738
   8923SM  H10F11991  -0.855   1.871   5.681  0.8934 -0.8121 -0.2808
   8923SM  H10G11992  -0.755   1.991   5.773  0.4797 -1.7109  3.7199
   8923SM  C11F11993  -0.729   1.801   5.848 -1.0126  0.7811  0.5930
   8923SM  H11F11994  -0.820   1.803   5.911 -1.4628  1.7299 -0.0569
   8923SM  H11G11995  -0.645   1.844   5.906  0.6734  0.6187 -1.5832
   8923SM  C12F11996  -0.696   1.655   5.815 -0.0362 -0.5317 -0.7508
   8923SM  H12F11997  -0.589   1.642   5.787 -0.2682 -1.1316 -1.3860
   8923SM  H12G11998  -0.761   1.624   5.730  1.7365 -2.9964 -1.3164
   8923SM  C13F11999  -0.731   1.563   5.935  0.3574 -0.3244 -0.1649
   8923SM  H13F12000  -0.682   1.615   6.020 -1.1062  1.3577 -0.2897
   8923SM  H13G12001  -0.684   1.464   5.916  0.3850 -0.1927 -0.8154
   8923SM  C14F12002  -0.881   1.528   5.962 -0.0419 -0.2671 -0.3315
   8923SM  H14F12003  -0.917   1.468   5.876 -0.0066 -0.1301 -0.4430
   8923SM  H14G12004  -0.941   1.622   5.964 -0.9863 -0.8703  0.1732
   8923SM  C15F12005  -0.898   1.453   6.092  0.1776  0.6892  0.3141
   8923SM  H15F12006  -0.855   1.350   6.085  1.5136  1.3457 -3.7555
   8923SM  H15G12007  -1.006   1.431   6.106 -0.0858  1.3760 -0.5378
   8923SM  C16F12008  -0.842   1.532   6.212  0.6125 -0.7662  0.1291
   8923SM  H16F12009  -0.902   1.625   6.213  1.4684 -0.0966 -2.6725
   8923SM  H16G12010  -0.732   1.546   6.201  0.2603  3.0797  0.2086
   8923SM  C17F12011  -0.852   1.453   6.338 -0.0945 -0.2663 -0.0890
   8923SM  H17F12012  -0.768   1.380   6.340 -1.5438 -2.0857 -1.3506
   8923SM  H17G12013  -0.951   1.404   6.342  0.4819 -1.4790 -0.1888
   8923SM  C18F12014  -0.851   1.548   6.464 -0.8072  0.2766  0.3515
   8923SM  H18F12015  -0.936   1.617   6.446 -0.3022  1.4475  2.1819
   8923SM  H18G12016  -0.761   1.613   6.464 -0.7992  0.3822 -2.5435
   8923SM  C19F12017  -0.881   1.481   6.602 -0.3566 -0.6041 -0.0637
   8923SM  H19F12018  -0.796   1.417   6.635  1.0465  1.8911  1.4854
   8923SM  H19G12019  -0.966   1.409   6.597 -0.2424 -1.0507  2.7148
   8923SM  C20F12020  -0.898   1.580   6.719  0.1068 -0.2653  0.7577
   8923SM  H20F12021  -0.960   1.669   6.693  0.6422  0.1477  0.8694
   8923SM  H20G12022  -0.793   1.614   6.725  0.5840 -1.6981  0.7832
   8923SM  C21F12023  -0.955   1.507   6.846  0.5048 -0.3545  0.8176
   8923SM  H21F12024  -0.910   1.407   6.868  3.3541  0.4025 -1.0858
   8923SM  H21G12025  -1.058   1.482   6.814  1.0579 -1.8715  0.1125
   8923SM  C22F12026  -0.967   1.579   6.985  0.0078  0.3822  0.2409
   8923SM  H22F12027  -0.862   1.581   7.024  0.4070  1.1133 -0.8447
   8923SM  H22G12028  -1.028   1.511   7.048 -0.1301  1.9756  1.9073
   8923SM  C23F12029  -1.019   1.719   6.974  0.7798 -0.5420  0.1533
   8923SM  H23F12030  -1.125   1.736   6.948  0.9478  2.5314  1.1521
   8923SM  H23G12031  -0.956   1.777   6.905  1.2594  0.0739  1.0863
   8923SM  H23H12032  -1.020   1.752   7.080 -3.5433 -0.4482  0.2708
   9023SM     N12033   7.013   2.017   4.310 -0.0389 -0.1112  0.7444
   9023SM   C1512034   6.910   1.968   4.220  0.4793  0.4087 -0.2198
   9023SM  H15A12035   6.881   1.868   4.249  0.4248  0.6674  0.6275
   9023SM  H15B12036   6.947   1.968   4.118  0.1752  0.6257 -0.3320
   9023SM  H15C12037   6.827   2.036   4.231  1.1897  1.3450 -0.5648
   9023SM   C1412038   6.950   2.020   4.444 -0.4844  1.2164  0.5786
   9023SM  H14A12039   6.873   2.096   4.444 -1.2567  0.4509  1.2326
   9023SM  H14B12040   7.028   2.052   4.512  1.7581 -2.5269  0.0279
   9023SM  H14C12041   6.910   1.924   4.472  0.8371  0.3810 -0.2386
   9023SM   C1312042   7.124   1.908   4.324  0.2149 -0.0356  1.3043
   9023SM  H13A12043   7.079   1.818   4.364 -0.5094 -0.7697 -1.0141
   9023SM  H13B12044   7.192   1.942   4.400  0.5273  2.8920 -0.1505
   9023SM  H13C12045   7.178   1.888   4.233 -1.7699  0.6797 -0.0963
   9023SM   C1212046   7.067   2.145   4.259  0.0520  0.4083 -0.6156
   9023SM  H12A12047   7.106   2.120   4.162  3.8587 -0.1268  0.8743
   9023SM  H12B12048   7.149   2.170   4.325  0.3532 -2.6200  0.2911
   9023SM   C1112049   6.969   2.271   4.254  0.1814  0.3694 -0.3101
   9023SM  H11A12050   6.870   2.249   4.207  0.7327  2.3116 -2.5856
   9023SM  H11B12051   6.996   2.351   4.183 -0.3312  0.2957 -0.5973
   9023SM     P12052   7.077   2.410   4.446  0.3097  0.3898 -0.0345
   9023SM   O1312053   7.203   2.325   4.449  0.2292 -1.0590 -0.1895
   9023SM   O1412054   7.081   2.538   4.369  0.1176  0.1000 -0.3282
   9023SM   O1112055   7.039   2.437   4.593 -0.0762  0.5932  0.0480
   9023SM   O1212056   6.965   2.323   4.386  0.7239  0.2274 -0.2255
   9023SM   C1S12057   6.957   2.354   4.675 -0.2316  0.2180  0.3306
   9023SM   H1S12058   7.020   2.265   4.698 -0.1707 -0.0388 -0.7788
   9023SM   H1T12059   6.860   2.334   4.625  0.5789 -0.0368 -1.2083
   9023SM    NF12060   6.827   2.350   4.887 -0.6150  0.1829  0.3413
   9023SM   HNF12061   6.729   2.356   4.869 -0.6947  0.9303  0.9603
   9023SM   C2S12062   6.918   2.430   4.808  0.8219 -0.6167 -0.2260
   9023SM   H2S12063   7.017   2.441   4.857  1.0325 -1.9403 -0.3196
   9023SM   C3S12064   6.861   2.569   4.773 -0.2463 -0.0464 -0.2848
   9023SM   H3S12065   6.790   2.565   4.687 -3.2329  1.5014  1.9483
   9023SM    O312066   6.955   2.662   4.731 -0.0275  0.0290  0.1034
   9023SM   HO312067   7.015   2.600   4.689 -0.5813  0.3560 -1.2247
   9023SM   C4S12068   6.791   2.628   4.899  0.7923 -0.5025 -0.3438
   9023SM   H4S12069   6.684   2.622   4.875  0.7159  3.3670 -1.6936
   9023SM   C5S12070   6.827   2.705   5.005 -0.8485 -0.6371  0.2427
   9023SM   H5S12071   6.934   2.724   5.020 -1.1312  0.4325  1.0374
   9023SM   C6S12072   6.733   2.768   5.108 -0.2324 -0.5953  0.4065
   9023SM   H6S12073   6.629   2.736   5.086 -0.2996 -0.4678  0.5394
   9023SM   H6T12074   6.724   2.878   5.097  0.6485 -0.5849 -0.3477
   9023SM   C7S12075   6.778   2.726   5.246  0.2175 -0.1943  0.0065
   9023SM   H7S12076   6.871   2.777   5.280  0.8136 -0.5551 -1.0249
   9023SM   H7T12077   6.794   2.616   5.248  2.6328  0.1153  1.5651
   9023SM   C8S12078   6.671   2.771   5.347 -0.2205 -0.0657  0.7943
   9023SM   H8S12079   6.582   2.710   5.321  0.6139 -0.7721 -0.5536
   9023SM   H8T12080   6.667   2.880   5.325  1.6567 -0.0436  0.3568
   9023SM   C9S12081   6.719   2.714   5.480 -0.1168 -0.4403 -0.1789
   9023SM   H9S12082   6.820   2.758   5.492 -1.2457  1.9954  1.0273
   9023SM   H9T12083   6.714   2.603   5.482 -1.2543 -0.3894  1.5003
   9023SM  C10S12084   6.646   2.779   5.599  0.5230 -0.6052 -0.2933
   9023SM  H10S12085   6.540   2.766   5.568 -0.5797  0.4852  2.7084
   9023SM  H10T12086   6.668   2.888   5.594  0.0648 -0.3825  1.7617
   9023SM  C11S12087   6.666   2.733   5.743  0.2281 -0.0325 -0.1131
   9023SM  H11S12088   6.769   2.752   5.780  0.3375  2.2067 -1.3912
   9023SM  H11T12089   6.647   2.623   5.744 -0.0398 -0.1467  4.8526
   9023SM  C12S12090   6.560   2.794   5.839  0.0200  0.3579 -0.0150
   9023SM  H12S12091   6.564   2.724   5.925 -0.2954  0.8887  0.4372
   9023SM  H12T12092   6.459   2.812   5.797  0.0439 -1.2799 -0.8916
   9023SM  C13S12093   6.603   2.937   5.876  0.1950  0.4265 -0.0457
   9023SM  H13S12094   6.589   3.005   5.790  0.1148  0.6174  0.1184
   9023SM  H13T12095   6.708   2.925   5.910 -0.2888  0.9136  1.7742
   9023SM  C14S12096   6.522   2.996   5.995 -0.2577 -0.8021  0.2693
   9023SM  H14S12097   6.428   3.033   5.949  1.3932  0.5573 -2.2531
   9023SM  H14T12098   6.579   3.087   6.025  0.4870 -1.2580  0.2745
   9023SM  C15S12099   6.502   2.904   6.121 -0.6591  0.1612  0.3494
   9023SM  H15S12100   6.445   2.815   6.087 -0.8578 -0.4152  2.1102
   9023SM  H15T12101   6.449   2.963   6.198  1.1989  1.7282  0.5061
   9023SM  C16S12102   6.633   2.851   6.183  0.3950  0.0415  0.0136
   9023SM  H16S12103   6.682   2.793   6.102 -0.4989 -0.7149 -0.0025
   9023SM  H16T12104   6.599   2.779   6.261 -2.3421  1.0875 -0.1160
   9023SM  C17S12105   6.722   2.957   6.247  0.1063  0.0343 -0.3533
   9023SM  H17S12106   6.791   3.004   6.174  0.3219  1.2168  0.5600
   9023SM  H17T12107   6.787   2.902   6.318 -1.6823  0.2932  1.5988
   9023SM  C18S12108   6.637   3.045   6.341  0.8489 -0.0544  0.7142
   9023SM  H18S12109   6.579   2.981   6.411 -0.5056 -1.0348 -1.2226
   9023SM  H18T12110   6.567   3.112   6.286 -1.3032 -1.4667  1.6163
   9023SM  H18U12111   6.696   3.109   6.410  0.0482  1.1230  0.3491
   9023SM   C1F12112   6.869   2.241   4.953 -0.5472 -0.4606 -0.2304
   9023SM    OF12113   6.988   2.217   4.960 -0.1765 -0.3172 -0.3641
   9023SM   C2F12114   6.762   2.152   5.014 -0.2464  0.0996 -0.3159
   9023SM   H2F12115   6.778   2.050   4.972  3.7889  0.6866 -0.6323
   9023SM   H2G12116   6.659   2.191   4.998 -0.0815  0.4003 -0.6439
   9023SM   C3F12117   6.770   2.134   5.164  0.7990 -0.1621  0.3932
   9023SM   H3F12118   6.867   2.093   5.199  1.0628 -0.0961 -0.2635
   9023SM   H3G12119   6.682   2.069   5.183  1.3427 -0.8701  0.5357
   9023SM   C4F12120   6.733   2.271   5.231  0.2204  0.8794 -0.4385
   9023SM   H4F12121   6.629   2.300   5.204 -0.6929 -1.8493 -0.1553
   9023SM   H4G12122   6.803   2.345   5.187 -0.4822  1.5334 -0.4700
   9023SM   C5F12123   6.755   2.272   5.381 -0.3718 -0.2875 -0.6580
   9023SM   H5F12124   6.724   2.370   5.423 -0.3865 -0.7927  0.5334
   9023SM   H5G12125   6.864   2.256   5.397 -0.7681 -1.9451  0.5946
   9023SM   C6F12126   6.677   2.160   5.459  0.2352 -0.0292  0.0801
   9023SM   H6F12127   6.701   2.057   5.426 -0.4406 -0.2738  0.3331
   9023SM   H6G12128   6.572   2.173   5.425  0.0291 -1.1775  0.2299
   9023SM   C7F12129   6.688   2.174   5.615  0.0492  0.3382 -0.2636
   9023SM   H7F12130   6.664   2.278   5.647  0.7209  0.6316 -0.6744
   9023SM   H7G12131   6.793   2.156   5.646 -0.2298 -1.5580 -0.3400
   9023SM   C8F12132   6.601   2.080   5.697  0.5686  0.4106 -0.2912
   9023SM   H8F12133   6.620   1.973   5.671 -0.6953  0.5379 -1.9005
   9023SM   H8G12134   6.494   2.092   5.670 -0.0099 -1.9572  0.6997
   9023SM   C9F12135   6.627   2.095   5.846 -0.2877  0.0165 -0.0510
   9023SM   H9F12136   6.579   2.192   5.869 -0.1787 -0.0840  0.6226
   9023SM   H9G12137   6.734   2.111   5.871  0.0509 -0.4182 -1.1403
   9023SM  C10F12138   6.559   1.982   5.926  0.7646 -0.2178  0.2734
   9023SM  H10F12139   6.603   1.883   5.900 -0.6626 -0.6670 -0.5469
   9023SM  H10G12140   6.452   1.987   5.895  1.0049  1.4326 -0.4198
   9023SM  C11F12141   6.571   1.994   6.075  0.0232  0.0121 -0.0724
   9023SM  H11F12142   6.515   2.086   6.103 -0.0940 -0.0147 -0.2151
   9023SM  H11G12143   6.674   2.005   6.115  0.7271 -2.4420 -1.0459
   9023SM  C12F12144   6.503   1.887   6.151  0.3494  0.0549 -0.3592
   9023SM  H12F12145   6.553   1.788   6.137  0.3951 -0.0924  0.7287
   9023SM  H12G12146   6.396   1.888   6.121 -0.2190  1.6257  1.5282
   9023SM  C13F12147   6.496   1.905   6.302 -0.2339  0.5478  0.5347
   9023SM  H13F12148   6.470   2.009   6.332 -1.0366  0.1138  1.3848
   9023SM  H13G12149   6.597   1.879   6.340 -0.1151 -0.4068 -0.3768
   9023SM  C14F12150   6.405   1.807   6.373  0.1901 -0.8248 -0.5946
   9023SM  H14F12151   6.437   1.705   6.341  2.4760 -1.4715  3.1502
   9023SM  H14G12152   6.300   1.828   6.345 -0.1427 -2.1804 -0.4407
   9023SM  C15F12153   6.422   1.819   6.521  0.1391  0.5717 -0.2783
   9023SM  H15F12154   6.407   1.923   6.556 -0.6640  0.5581 -0.5536
   9023SM  H15G12155   6.520   1.768   6.533 -1.1849 -1.6993  1.6882
   9023SM  C16F12156   6.327   1.716   6.594 -0.5034 -0.2586 -0.0524
   9023SM  H16F12157   6.327   1.625   6.531  1.6495 -1.3737  1.4361
   9023SM  H16G12158   6.224   1.759   6.599 -0.3449  0.1526 -0.2708
   9023SM  C17F12159   6.371   1.682   6.744 -0.1692 -0.1569 -0.0633
   9023SM  H17F12160   6.378   1.782   6.791 -0.6390 -0.5670  0.8999
   9023SM  H17G12161   6.475   1.646   6.731 -0.0834  0.3556 -0.8789
   9023SM  C18F12162   6.280   1.571   6.811  0.2563 -0.8405 -0.3087
   9023SM  H18F12163   6.304   1.476   6.758 -4.8018 -1.2137 -2.5729
   9023SM  H18G12164   6.170   1.582   6.793  0.3017  0.2902 -0.0086
   9023SM  C19F12165   6.297   1.545   6.958 -0.4958  0.0564  0.6359
   9023SM  H19F12166   6.404   1.547   6.987  0.0470 -1.5039 -1.0223
   9023SM  H19G12167   6.265   1.440   6.973 -0.4734 -0.0822 -0.2416
   9023SM  C20F12168   6.221   1.623   7.053  0.8301 -0.0076  0.3588
   9023SM  H20F12169   6.112   1.601   7.050  0.9142 -0.8574  2.2226
   9023SM  H20G12170   6.235   1.730   7.025  1.1086 -0.1156  0.0801
   9023SM  C21F12171   6.268   1.599   7.197  0.2547 -0.1476  0.1636
   9023SM  H21F12172   6.379   1.594   7.205  0.1736 -1.2453  0.7204
   9023SM  H21G12173   6.213   1.507   7.227 -0.1771 -0.0813 -0.4117
   9023SM  C22F12174   6.233   1.696   7.306 -0.1967 -0.2361 -0.6496
   9023SM  H22F12175   6.126   1.723   7.318  0.5529  2.9443 -0.1306
   9023SM  H22G12176   6.278   1.795   7.281  1.0362 -0.9282 -1.2413
   9023SM  C23F12177   6.291   1.658   7.449  0.3102  0.4946  0.1139
   9023SM  H23F12178   6.265   1.727   7.532 -0.3350  0.1649  0.1902
   9023SM  H23G12179   6.402   1.650   7.449  0.3067  0.2089 -1.4089
   9023SM  H23H12180   6.249   1.558   7.469 -0.7966  0.7372 -0.9526
   9123SM     N12181   6.361   5.839   4.747  0.6385 -0.4324  0.4267
   9123SM   C1512182   6.417   5.706   4.755 -0.4381 -0.5313  0.4373
   9123SM  H15A12183   6.333   5.637   4.757 -0.4407 -0.6089 -1.1300
   9123SM  H15B12184   6.469   5.695   4.849 -1.6224 -2.0357  0.9716
   9123SM  H15C12185   6.471   5.671   4.669  1.0127  1.1235  0.6286
   9123SM   C1412186   6.312   5.896   4.876 -0.1172  0.2673  0.2543
   9123SM  H14A12187   6.395   5.950   4.920 -2.0457  3.6600  0.0736
   9123SM  H14B12188   6.257   5.829   4.939 -2.2102  2.8003  1.3073
   9123SM  H14C12189   6.248   5.980   4.853  0.3450  0.5092 -0.1863
   9123SM   C1312190   6.462   5.928   4.686  0.0664  0.4652  0.1199
   9123SM  H13A12191   6.427   6.028   4.666  2.1314  1.3455  0.6838
   9123SM  H13B12192   6.495   5.883   4.593 -1.5974 -0.7739  0.0914
   9123SM  H13C12193   6.546   5.937   4.754 -0.7244 -0.1830  1.2148
   9123SM   C1212194   6.241   5.842   4.649 -0.0798  0.4536  0.4804
   9123SM  H12A12195   6.285   5.832   4.551  0.4047  0.5860  0.6819
   9123SM  H12B12196   6.207   5.944   4.644  1.9797  1.1246 -1.3856
   9123SM   C1112197   6.123   5.754   4.685  0.2501 -0.3332 -0.2227
   9123SM  H11A12198   6.062   5.764   4.593  0.2087  0.3849 -0.1200
   9123SM  H11B12199   6.057   5.803   4.759 -0.9043  2.5966 -2.9413
   9123SM     P12200   6.035   5.519   4.764  0.1375  0.1369 -0.0605
   9123SM   O1312201   5.904   5.582   4.756 -0.3268  0.4918  0.1205
   9123SM   O1412202   6.050   5.386   4.692  0.0409  0.4494  0.4743
   9123SM   O1112203   6.053   5.492   4.920  0.3563  0.2256 -0.0663
   9123SM   O1212204   6.142   5.617   4.714 -0.2742  0.1910 -0.0692
   9123SM   C1S12205   6.171   5.518   4.997 -0.2611 -0.0245  0.0046
   9123SM   H1S12206   6.219   5.613   4.968 -2.2817  0.1341 -3.3841
   9123SM   H1T12207   6.242   5.436   4.973  0.3051  0.5424 -0.2723
   9123SM    NF12208   6.268   5.590   5.218  0.4718 -0.1475 -0.8892
   9123SM   HNF12209   6.323   5.524   5.268  0.0374 -0.4323 -0.7813
   9123SM   C2S12210   6.149   5.538   5.151 -0.0981 -0.0186 -0.5982
   9123SM   H2S12211   6.068   5.612   5.169 -1.1361 -0.2716 -3.5986
   9123SM   C3S12212   6.107   5.400   5.202 -0.4018  0.3341  0.2135
   9123SM   H3S12213   6.189   5.328   5.183  0.6922  1.5061  0.3502
   9123SM    O312214   5.989   5.341   5.140  0.3776  0.1147  0.3222
   9123SM   HO312215   5.969   5.410   5.076 -2.0646 -1.7089 -1.0282
   9123SM   C4S12216   6.085   5.402   5.346 -1.0134  0.0475 -0.3367
   9123SM   H4S12217   6.010   5.470   5.390  0.4296  0.3781  1.7394
   9123SM   C5S12218   6.152   5.322   5.431  0.3227  0.2653  0.1459
   9123SM   H5S12219   6.230   5.257   5.386  1.2374  1.0896  0.4961
   9123SM   C6S12220   6.131   5.317   5.583 -0.1342  0.7404  0.2891
   9123SM   H6S12221   6.201   5.385   5.636  0.1321 -0.5757  1.7117
   9123SM   H6T12222   6.149   5.217   5.628  1.9184 -0.0052 -1.9883
   9123SM   C7S12223   5.994   5.371   5.632 -0.6652  0.2521 -0.4716
   9123SM   H7S12224   5.908   5.326   5.578 -1.6520  0.2130  1.0716
   9123SM   H7T12225   5.995   5.482   5.628 -2.0781  0.5156  3.0286
   9123SM   C8S12226   5.962   5.341   5.780 -0.1192  0.4660  0.1144
   9123SM   H8S12227   5.871   5.398   5.808 -0.5683  0.4241 -1.1646
   9123SM   H8T12228   6.038   5.382   5.849  0.1763 -0.4627  0.3541
   9123SM   C9S12229   5.922   5.198   5.801  1.1734 -0.0894 -0.6799
   9123SM   H9S12230   6.011   5.133   5.791 -0.7782 -3.2467  0.8377
   9123SM   H9T12231   5.853   5.164   5.721 -0.0308  1.5979 -0.4247
   9123SM  C10S12232   5.848   5.180   5.933 -0.7944  0.8139  0.1343
   9123SM  H10S12233   5.904   5.246   6.003  3.1430  1.7146 -3.4889
   9123SM  H10T12234   5.856   5.074   5.965  0.2676  0.1798 -2.0411
   9123SM  C11S12235   5.694   5.193   5.935 -0.5681 -0.9745 -0.2065
   9123SM  H11S12236   5.661   5.119   5.859 -0.2604 -2.1163  0.7379
   9123SM  H11T12237   5.659   5.294   5.905  0.7913 -0.6619 -0.8109
   9123SM  C12S12238   5.626   5.165   6.066 -0.6362 -0.6747  0.1231
   9123SM  H12S12239   5.658   5.243   6.138  0.8489  0.8309 -2.0503
   9123SM  H12T12240   5.662   5.069   6.108  0.8657  0.1667  0.8619
   9123SM  C13S12241   5.470   5.161   6.057 -0.3085 -0.2742  0.5221
   9123SM  H13S12242   5.445   5.081   5.985  0.6830  0.4517 -0.6676
   9123SM  H13T12243   5.449   5.253   5.998  1.7031 -2.1302 -3.4512
   9123SM  C14S12244   5.400   5.153   6.198 -0.3064 -0.1396  0.6425
   9123SM  H14S12245   5.291   5.137   6.186 -0.1581 -0.8155  0.1329
   9123SM  H14T12246   5.419   5.244   6.258 -2.5197 -0.6766  2.2452
   9123SM  C15S12247   5.451   5.034   6.291 -0.0487 -1.3639 -0.0450
   9123SM  H15S12248   5.398   5.046   6.388  0.6355 -0.2797  0.2082
   9123SM  H15T12249   5.559   5.042   6.317 -0.1093  0.4004 -0.2217
   9123SM  C16S12250   5.407   4.898   6.236  0.0924 -0.1933 -0.2299
   9123SM  H16S12251   5.431   4.891   6.128 -0.3344 -2.8014 -0.2309
   9123SM  H16T12252   5.296   4.885   6.241  0.3746 -3.5121 -0.0481
   9123SM  C17S12253   5.472   4.782   6.298  0.2260  0.0789  0.0151
   9123SM  H17S12254   5.468   4.796   6.408  0.8568 -0.6383  0.1441
   9123SM  H17T12255   5.581   4.774   6.277  0.4281  1.8935  0.2631
   9123SM  C18S12256   5.414   4.656   6.255 -0.6465  0.7160 -0.4599
   9123SM  H18S12257   5.425   4.616   6.152 -0.5106  0.4015 -0.3256
   9123SM  H18T12258   5.304   4.655   6.271 -0.5579 -1.4667  0.3826
   9123SM  H18U12259   5.455   4.577   6.322 -1.8735 -1.2147 -1.8775
   9123SM   C1F12260   6.317   5.715   5.205 -0.5680  1.2420  0.3469
   9123SM    OF12261   6.250   5.794   5.144 -0.3270 -0.1958  0.0830
   9123SM   C2F12262   6.461   5.743   5.255 -0.6363  0.4839  0.2921
   9123SM   H2F12263   6.528   5.679   5.194 -1.5545  0.1453 -0.3967
   9123SM   H2G12264   6.455   5.702   5.358 -2.6058  1.4370  0.6060
   9123SM   C3F12265   6.501   5.892   5.247 -0.3234 -0.1327 -0.0893
   9123SM   H3F12266   6.466   5.960   5.329  1.3611 -0.4640  0.9613
   9123SM   H3G12267   6.463   5.932   5.151 -0.4748 -1.8718 -0.7823
   9123SM   C4F12268   6.652   5.900   5.236  0.1746  0.0260 -0.0469
   9123SM   H4F12269   6.664   6.004   5.201  1.5553  0.0805  0.5444
   9123SM   H4G12270   6.680   5.833   5.152 -0.4154 -1.4325  0.8696
   9123SM   C5F12271   6.723   5.855   5.362 -0.3317 -0.3929  0.1312
   9123SM   H5F12272   6.710   5.745   5.364  2.2906 -0.7822 -0.6299
   9123SM   H5G12273   6.669   5.903   5.447 -1.5073  0.5518 -1.0985
   9123SM   C6F12274   6.874   5.892   5.366 -0.1101  0.0331 -0.1884
   9123SM   H6F12275   6.880   6.000   5.338 -1.3078  0.0053 -0.6378
   9123SM   H6G12276   6.918   5.828   5.287  0.5743  0.4106 -0.1192
   9123SM   C7F12277   6.939   5.861   5.495  0.6613  0.8345 -0.0738
   9123SM   H7F12278   7.050   5.869   5.490  0.6907  0.2044 -0.4693
   9123SM   H7G12279   6.912   5.759   5.531  0.2894  2.3542  4.7281
   9123SM   C8F12280   6.902   5.954   5.611 -0.5390 -0.2747  0.0429
   9123SM   H8F12281   6.938   5.917   5.710 -0.4304 -1.4625 -0.4214
   9123SM   H8G12282   6.792   5.961   5.621 -0.5659 -1.3785  0.7018
   9123SM   C9F12283   6.960   6.094   5.585  1.1769 -0.2927  0.0262
   9123SM   H9F12284   6.890   6.152   5.520  2.2510  2.4359  1.1232
   9123SM   H9G12285   7.056   6.080   5.530  0.1802 -2.7621 -1.2444
   9123SM  C10F12286   6.987   6.169   5.711 -0.0864  0.4425 -0.1855
   9123SM  H10F12287   6.889   6.174   5.764 -1.4618  0.3182 -2.5979
   9123SM  H10G12288   7.012   6.273   5.679 -2.1086  0.6476 -1.2403
   9123SM  C11F12289   7.098   6.116   5.798  0.4625  0.1181  0.5857
   9123SM  H11F12290   7.191   6.117   5.738  1.8267 -0.1824  2.5905
   9123SM  H11G12291   7.091   6.010   5.828  0.1611  0.1313  0.5635
   9123SM  C12F12292   7.113   6.209   5.916 -0.9823 -0.0198  0.3072
   9123SM  H12F12293   7.040   6.176   5.993 -0.4818  0.0308  0.8184
   9123SM  H12G12294   7.109   6.318   5.898 -2.3322 -0.1472 -0.2525
   9123SM  C13F12295   7.255   6.185   5.972 -0.3273 -0.5123  0.3117
   9123SM  H13F12296   7.327   6.215   5.893  0.8671  0.3403  1.6844
   9123SM  H13G12297   7.276   6.078   5.996  0.2581  0.2637  3.8319
   9123SM  C14F12298   7.291   6.264   6.095 -0.4720 -0.0935 -0.5386
   9123SM  H14F12299   7.221   6.349   6.106 -1.9357 -1.2083 -0.9144
   9123SM  H14G12300   7.396   6.302   6.101 -0.5298 -0.1628  2.9675
   9123SM  C15F12301   7.270   6.177   6.226  0.1662  0.7081  0.5867
   9123SM  H15F12302   7.342   6.092   6.228  0.6127  1.0799  0.6549
   9123SM  H15G12303   7.166   6.138   6.222  0.7387 -0.7983 -0.0438
   9123SM  C16F12304   7.274   6.253   6.361  0.2755 -0.6604 -0.2586
   9123SM  H16F12305   7.231   6.203   6.450 -2.0468  0.5793 -0.5981
   9123SM  H16G12306   7.222   6.349   6.338 -0.7566 -1.5297 -1.6459
   9123SM  C17F12307   7.422   6.278   6.390  0.0498  0.4565 -0.0659
   9123SM  H17F12308   7.466   6.317   6.296 -0.4978  2.3704  0.4306
   9123SM  H17G12309   7.454   6.172   6.402 -1.6980  0.0253  1.2939
   9123SM  C18F12310   7.450   6.349   6.520 -0.6502  0.3853  0.2165
   9123SM  H18F12311   7.393   6.320   6.611  1.5116  2.1971  2.2999
   9123SM  H18G12312   7.426   6.456   6.503  1.1248  0.5523 -1.5950
   9123SM  C19F12313   7.605   6.333   6.563  0.4431  0.2763 -0.1316
   9123SM  H19F12314   7.614   6.241   6.625  0.5259 -0.0185 -0.5766
   9123SM  H19G12315   7.616   6.414   6.638  0.3540 -0.8211  1.0898
   9123SM  C20F12316   7.711   6.355   6.452 -0.1912  0.0648 -0.0849
   9123SM  H20F12317   7.705   6.449   6.394  1.7335 -0.9485 -2.0471
   9123SM  H20G12318   7.689   6.272   6.382 -0.1261  1.1536 -1.4195
   9123SM  C21F12319   7.853   6.348   6.499  0.1787 -0.1183 -0.0086
   9123SM  H21F12320   7.865   6.249   6.549 -1.1096 -0.3547 -0.1461
   9123SM  H21G12321   7.877   6.414   6.585  0.1187 -1.5860  1.1723
   9123SM  C22F12322   7.963   6.369   6.397  0.7605  0.9172 -0.0279
   9123SM  H22F12323   7.951   6.465   6.341  0.0967  1.0926  0.4143
   9123SM  H22G12324   7.959   6.294   6.315 -2.6627  2.6411 -1.6388
   9123SM  C23F12325   8.107   6.367   6.445 -0.4615 -0.1349 -0.5434
   9123SM  H23F12326   8.127   6.405   6.547 -1.4536  0.1348 -0.4352
   9123SM  H23G12327   8.175   6.425   6.378  1.9721 -1.1095  0.9580
   9123SM  H23H12328   8.153   6.267   6.437  0.4470  0.0925  1.2683
   9223SM     N12329   5.697   1.385   4.660 -0.0311 -0.5702  0.4461
   9223SM   C1512330   5.595   1.388   4.774 -0.1948 -0.5266  0.6503
   9223SM  H15A12331   5.628   1.347   4.868 -2.0221 -3.7426  0.0194
   9223SM  H15B12332   5.521   1.317   4.742 -3.0548  1.8599  1.5539
   9223SM  H15C12333   5.553   1.487   4.786 -0.4672 -0.0339 -3.2983
   9223SM   C1412334   5.768   1.252   4.661  0.4119  0.4296  0.7124
   9223SM  H14A12335   5.844   1.235   4.586 -0.6596 -0.1424 -0.2639
   9223SM  H14B12336   5.692   1.180   4.633  1.6163 -0.8745  0.6643
   9223SM  H14C12337   5.796   1.221   4.760  1.5500  0.3050  0.3626
   9223SM   C1312338   5.611   1.394   4.534  0.1371 -0.5137  0.1267
   9223SM  H13A12339   5.553   1.485   4.533  2.0631  0.7698 -0.3942
   9223SM  H13B12340   5.538   1.315   4.526 -1.0654  0.4827  0.9329
   9223SM  H13C12341   5.678   1.403   4.450  1.7765  2.9894  1.6098
   9223SM   C1212342   5.791   1.501   4.672  0.0395 -0.0018 -0.2951
   9223SM  H12A12343   5.866   1.482   4.747 -0.4828 -1.5277 -0.1194
   9223SM  H12B12344   5.744   1.589   4.714  2.2371  0.7321  0.7947
   9223SM   C1112345   5.858   1.547   4.540 -0.2469 -0.5953 -0.3775
   9223SM  H11A12346   5.911   1.463   4.491 -0.2489 -0.2442 -0.9866
   9223SM  H11B12347   5.938   1.614   4.577 -1.1466  0.5327 -0.4257
   9223SM     P12348   5.691   1.743   4.483 -0.0322  0.1573  0.1966
   9223SM   O1312349   5.688   1.828   4.365  0.5202  0.1205 -0.6733
   9223SM   O1412350   5.563   1.713   4.549  0.4066  0.0169 -0.8428
   9223SM   O1112351   5.800   1.810   4.576  0.5618  0.5816 -0.7993
   9223SM   O1212352   5.772   1.611   4.444  0.7450 -0.3799  0.1402
   9223SM   C1S12353   5.756   1.883   4.693  0.2090  0.2016 -0.0347
   9223SM   H1S12354   5.680   1.821   4.745  0.1422 -0.1114 -0.5044
   9223SM   H1T12355   5.708   1.979   4.664  3.8196  1.8312 -1.2259
   9223SM    NF12356   5.809   1.980   4.909  0.1406 -0.3947  0.2826
   9223SM   HNF12357   5.833   2.076   4.910 -2.2143  0.3905 -2.3630
   9223SM   C2S12358   5.866   1.912   4.795 -0.3096  0.2275 -0.3101
   9223SM   H2S12359   5.918   1.819   4.825  2.9179  1.3327 -1.8970
   9223SM   C3S12360   5.986   1.986   4.727 -0.0984  0.0901 -0.3263
   9223SM   H3S12361   5.939   2.080   4.690  0.4640  0.2441 -0.6569
   9223SM    O312362   6.048   1.913   4.620 -0.4900  0.0841  0.3938
   9223SM   HO312363   5.975   1.855   4.597  0.1665  0.0120 -1.8109
   9223SM   C4S12364   6.088   2.033   4.825 -0.3579 -0.1731 -0.2335
   9223SM   H4S12365   6.049   2.114   4.888  2.6449  1.8478 -0.7327
   9223SM   C5S12366   6.215   1.981   4.847  0.9711 -0.0784 -0.4016
   9223SM   H5S12367   6.254   1.893   4.795 -1.3593 -1.6398  0.3027
   9223SM   C6S12368   6.298   2.030   4.965 -0.1345  0.1169  0.3485
   9223SM   H6S12369   6.382   2.090   4.924  0.2214 -1.2067 -0.9507
   9223SM   H6T12370   6.351   1.948   5.018 -0.9441 -1.3032 -0.9428
   9223SM   C7S12371   6.231   2.119   5.073  0.2809 -0.2609  0.1383
   9223SM   H7S12372   6.163   2.198   5.034 -0.9494 -1.4171 -0.1248
   9223SM   H7T12373   6.309   2.169   5.135  0.3875  0.2272 -0.3793
   9223SM   C8S12374   6.154   2.034   5.179 -0.1958 -0.3621 -0.5788
   9223SM   H8S12375   6.240   1.977   5.218  0.5316  2.0534  1.6041
   9223SM   H8T12376   6.073   1.978   5.127  0.1498  0.1012 -1.6558
   9223SM   C9S12377   6.088   2.120   5.284  0.5380  0.0901 -0.1698
   9223SM   H9S12378   6.037   2.206   5.234 -0.6205 -0.7795 -0.5262
   9223SM   H9T12379   6.174   2.169   5.334 -0.4149  0.8265  0.8073
   9223SM  C10S12380   6.008   2.039   5.388  0.2343 -0.1871  0.8687
   9223SM  H10S12381   5.913   2.005   5.343  0.6041 -0.3544  0.1912
   9223SM  H10T12382   5.972   2.110   5.466 -1.3296 -0.1024  0.0927
   9223SM  C11S12383   6.093   1.924   5.448 -0.0891  0.0865  0.0356
   9223SM  H11S12384   6.180   1.956   5.509 -0.7718 -3.0764  2.9954
   9223SM  H11T12385   6.121   1.856   5.364  1.0652 -0.5048  0.8733
   9223SM  C12S12386   6.008   1.843   5.555 -0.6064  0.5481 -0.0972
   9223SM  H12S12387   5.926   1.788   5.504  0.2742 -1.1464  0.2409
   9223SM  H12T12388   5.965   1.916   5.626 -0.3622 -0.4057  1.0628
   9223SM  C13S12389   6.096   1.748   5.628  0.0742 -0.0414  0.6783
   9223SM  H13S12390   6.171   1.809   5.682 -1.6099  2.3605  0.4660
   9223SM  H13T12391   6.142   1.680   5.554  0.1102  0.3291  0.3539
   9223SM  C14S12392   6.024   1.662   5.730 -0.1743 -0.0908  0.0958
   9223SM  H14S12393   6.082   1.580   5.776 -0.2511  0.8104  1.8955
   9223SM  H14T12394   5.943   1.609   5.676  1.6188 -3.0920  0.1628
   9223SM  C15S12395   5.966   1.753   5.842 -0.0275 -0.1154 -0.0674
   9223SM  H15S12396   5.865   1.719   5.875 -0.7277  0.5904 -1.3876
   9223SM  H15T12397   5.936   1.855   5.806 -0.7235 -0.1035  0.5214
   9223SM  C16S12398   6.066   1.772   5.952 -0.0261 -0.6377  0.1553
   9223SM  H16S12399   6.153   1.828   5.912 -0.9796  0.1699 -0.8585
   9223SM  H16T12400   6.111   1.678   5.991  0.5729  0.2786  1.7394
   9223SM  C17S12401   6.006   1.858   6.067 -0.0876  0.6487  0.1977
   9223SM  H17S12402   5.982   1.961   6.033 -2.5888  0.1152  0.1878
   9223SM  H17T12403   6.087   1.871   6.143 -0.8331 -1.5912  1.4653
   9223SM  C18S12404   5.876   1.807   6.133  0.0799 -0.2431 -0.5897
   9223SM  H18S12405   5.840   1.891   6.195  0.3368 -0.4830 -0.1107
   9223SM  H18T12406   5.908   1.719   6.193  2.2914  1.4454  0.9025
   9223SM  H18U12407   5.790   1.780   6.068 -0.7774  0.8806  0.0466
   9223SM   C1F12408   5.740   1.906   5.000  0.6363 -0.5790  0.9758
   9223SM    OF12409   5.723   1.789   4.984 -0.5651  0.0818 -0.0985
   9223SM   C2F12410   5.697   1.974   5.125 -0.2417  0.1334  0.2468
   9223SM   H2F12411   5.651   2.073   5.105  1.2161  1.0623  1.3348
   9223SM   H2G12412   5.792   2.005   5.175  0.2095  0.4502 -0.7845
   9223SM   C3F12413   5.617   1.904   5.229  0.0979 -0.3941  0.0393
   9223SM   H3F12414   5.528   1.857   5.183  0.9466 -0.8838 -1.1449
   9223SM   H3G12415   5.582   1.982   5.301 -2.9162  1.8046 -3.4322
   9223SM   C4F12416   5.693   1.792   5.298 -0.4855 -0.3371  0.0199
   9223SM   H4F12417   5.778   1.828   5.359  1.5622 -1.7423 -1.8773
   9223SM   H4G12418   5.741   1.728   5.221  4.1957  2.2873  0.3721
   9223SM   C5F12419   5.598   1.704   5.385 -0.7654 -0.1195 -0.1745
   9223SM   H5F12420   5.538   1.775   5.445 -1.8298 -0.0062 -1.3216
   9223SM   H5G12421   5.668   1.647   5.450  0.0349  2.5025  1.4026
   9223SM   C6F12422   5.504   1.617   5.297  0.3242 -0.9033  0.1916
   9223SM   H6F12423   5.566   1.583   5.211  0.2451 -0.7725  0.0821
   9223SM   H6G12424   5.410   1.673   5.274 -0.5636 -1.4675  2.2303
   9223SM   C7F12425   5.462   1.486   5.366 -0.2408  0.2143  0.0080
   9223SM   H7F12426   5.389   1.505   5.448 -1.0228  1.8562 -1.0074
   9223SM   H7G12427   5.560   1.451   5.405  0.5537 -0.0922 -2.1031
   9223SM   C8F12428   5.396   1.394   5.269 -0.1274  0.2672  0.1444
   9223SM   H8F12429   5.462   1.393   5.179 -0.6636 -0.6859 -0.2581
   9223SM   H8G12430   5.293   1.420   5.235 -0.8469 -0.5695  1.6026
   9223SM   C9F12431   5.397   1.252   5.313 -0.5641  0.7203 -0.1542
   9223SM   H9F12432   5.328   1.204   5.241 -1.6460  0.0192  1.3085
   9223SM   H9G12433   5.352   1.242   5.414 -1.1837  1.6172 -0.3276
   9223SM  C10F12434   5.530   1.180   5.300 -0.3692 -0.2740 -0.0256
   9223SM  H10F12435   5.613   1.229   5.356 -0.9510  0.3379  0.3120
   9223SM  H10G12436   5.559   1.177   5.193  2.2218  1.9605  0.4999
   9223SM  C11F12437   5.525   1.036   5.340 -0.0782  0.6575 -0.2023
   9223SM  H11F12438   5.621   0.991   5.309 -0.6156  0.6269 -1.9641
   9223SM  H11G12439   5.451   0.980   5.278  0.7467 -0.0888 -0.5356
   9223SM  C12F12440   5.493   1.004   5.487  0.3426  0.2439  0.4360
   9223SM  H12F12441   5.392   1.048   5.495  1.1068  2.5432 -1.2487
   9223SM  H12G12442   5.555   1.060   5.561  0.3922 -0.1033  0.6612
   9223SM  C13F12443   5.488   0.851   5.529  0.1598 -0.2095 -0.4883
   9223SM  H13F12444   5.585   0.797   5.531 -0.9412 -2.5244  3.9985
   9223SM  H13G12445   5.413   0.805   5.460 -0.6901  2.3616 -1.4188
   9223SM  C14F12446   5.439   0.820   5.676 -0.3338 -1.0049 -0.1572
   9223SM  H14F12447   5.433   0.710   5.690  0.0513 -0.9230  0.7114
   9223SM  H14G12448   5.333   0.849   5.692  0.3874  4.0676 -2.5322
   9223SM  C15F12449   5.528   0.888   5.786 -0.1303 -0.6076 -0.4290
   9223SM  H15F12450   5.523   0.999   5.781 -1.8699 -0.6149  0.2910
   9223SM  H15G12451   5.634   0.856   5.787  0.2022  0.4568 -0.2801
   9223SM  C16F12452   5.476   0.847   5.932  0.5670  0.4014  0.4557
   9223SM  H16F12453   5.516   0.744   5.941  2.7627  0.4879 -4.6467
   9223SM  H16G12454   5.366   0.838   5.914  1.1818 -4.4125 -2.8177
   9223SM  C17F12455   5.529   0.943   6.043  0.2008  0.6982  0.3798
   9223SM  H17F12456   5.483   1.043   6.022  0.1550  0.1968 -2.2407
   9223SM  H17G12457   5.637   0.966   6.030  0.0788  0.2789 -1.7648
   9223SM  C18F12458   5.490   0.900   6.181 -0.5301  0.5530 -0.2471
   9223SM  H18F12459   5.535   0.805   6.214 -0.3959  1.7361  3.4027
   9223SM  H18G12460   5.381   0.883   6.187 -0.2226 -1.7514 -0.5398
   9223SM  C19F12461   5.541   1.008   6.278 -0.2041  0.0392 -0.7491
   9223SM  H19F12462   5.457   1.082   6.281 -2.6496 -2.5693 -0.6308
   9223SM  H19G12463   5.630   1.056   6.232 -0.8530  1.1704 -0.8604
   9223SM  C20F12464   5.570   0.949   6.420 -1.1428 -0.1051 -0.4832
   9223SM  H20F12465   5.642   0.865   6.413 -1.1418 -0.1020 -0.5138
   9223SM  H20G12466   5.470   0.915   6.456 -1.3801  2.9223  2.2572
   9223SM  C21F12467   5.630   1.062   6.523 -0.5653  0.0052  1.0605
   9223SM  H21F12468   5.552   1.141   6.528 -1.6668 -1.1150  2.1361
   9223SM  H21G12469   5.730   1.098   6.490 -1.0651  1.0685  0.6476
   9223SM  C22F12470   5.655   1.000   6.657 -0.0247 -0.4689 -0.2957
   9223SM  H22F12471   5.710   1.077   6.716  1.3281 -0.0836 -1.9600
   9223SM  H22G12472   5.725   0.913   6.658  0.8690  0.1932 -1.6076
   9223SM  C23F12473   5.531   0.982   6.739 -0.0410 -0.1842 -0.0919
   9223SM  H23F12474   5.455   0.921   6.686 -0.2438 -0.4742  0.5267
   9223SM  H23G12475   5.488   1.079   6.771 -0.9045  0.2574 -2.4183
   9223SM  H23H12476   5.563   0.937   6.835  0.0337  1.3980  0.6479
   9323SM     N12477   0.373   3.779   4.353 -0.1838 -0.0457 -0.0471
   9323SM   C1512478   0.428   3.650   4.306  0.1937 -0.1936 -0.0442
   9323SM  H15A12479   0.366   3.567   4.336 -0.2090 -0.7008 -2.0848
   9323SM  H15B12480   0.525   3.630   4.349  0.1551 -0.6937 -0.1753
   9323SM  H15C12481   0.447   3.652   4.199 -0.6090 -0.3739 -0.1942
   9323SM   C1412482   0.457   3.894   4.303 -0.1554 -0.5316 -0.2272
   9323SM  H14A12483   0.560   3.881   4.329  0.0444 -0.1797 -0.8134
   9323SM  H14B12484   0.415   3.986   4.341  0.9711 -0.4787  0.9471
   9323SM  H14C12485   0.454   3.902   4.195  1.3508 -1.5191 -0.3673
   9323SM   C1312486   0.234   3.797   4.299  0.2677 -0.0611  0.1772
   9323SM  H13A12487   0.175   3.708   4.318 -1.0161  0.1528 -2.4389
   9323SM  H13B12488   0.222   3.820   4.195  0.0944  1.1197  0.4509
   9323SM  H13C12489   0.192   3.873   4.364  1.0567  0.3409  0.2259
   9323SM   C1212490   0.377   3.780   4.510 -0.1365  0.5933 -0.2591
   9323SM  H12A12491   0.474   3.750   4.547 -1.4557 -2.6514  0.9998
   9323SM  H12B12492   0.308   3.707   4.551 -0.2673  1.0422  0.3477
   9323SM   C1112493   0.337   3.909   4.579 -0.2459  0.0201 -0.2344
   9323SM  H11A12494   0.412   3.987   4.552 -1.4242  0.2128 -3.3665
   9323SM  H11B12495   0.355   3.907   4.689  0.1187  0.5582 -0.2757
   9323SM     P12496   0.087   3.884   4.606  0.4928 -0.0753  0.3150
   9323SM   O1312497  -0.037   3.926   4.539  0.6800  0.4039 -0.1769
   9323SM   O1412498   0.116   3.742   4.625 -0.3274  0.2474  0.3632
   9323SM   O1112499   0.068   3.940   4.755 -0.2901  0.0920 -0.5526
   9323SM   O1212500   0.210   3.953   4.538 -0.3258 -0.2834 -0.4664
   9323SM   C1S12501  -0.049   4.001   4.808 -0.8837  0.6312 -0.1710
   9323SM   H1S12502  -0.133   3.928   4.808 -0.7225  0.4370  0.5239
   9323SM   H1T12503  -0.072   4.088   4.743  0.4528  2.6682  1.9051
   9323SM    NF12504  -0.154   4.077   5.019  0.1529 -0.5063 -0.6577
   9323SM   HNF12505  -0.194   4.167   5.006 -0.8432 -0.6865  0.8945
   9323SM   C2S12506  -0.028   4.051   4.952  0.0723 -0.7365 -0.2205
   9323SM   H2S12507   0.010   3.967   5.013  0.6877  1.6362  2.9571
   9323SM   C3S12508   0.091   4.151   4.956 -0.5500 -0.7726 -0.3556
   9323SM   H3S12509   0.056   4.234   4.891  2.3321  2.2853  1.6172
   9323SM    O312510   0.210   4.098   4.901  0.3206  0.0659  0.2884
   9323SM   HO312511   0.181   4.035   4.835 -2.4462  2.8381 -1.4290
   9323SM   C4S12512   0.121   4.209   5.090 -0.0720 -0.8954 -0.6404
   9323SM   H4S12513   0.040   4.269   5.135  2.2753  2.6544 -0.7146
   9323SM   C5S12514   0.240   4.213   5.160  0.4278  0.3119 -0.1302
   9323SM   H5S12515   0.324   4.173   5.101 -0.6866 -0.6271 -1.1419
   9323SM   C6S12516   0.270   4.288   5.286  0.5990  0.5561  0.1169
   9323SM   H6S12517   0.313   4.388   5.260 -2.0044  2.0336  1.1232
   9323SM   H6T12518   0.354   4.232   5.332 -0.3541 -0.2860  0.8804
   9323SM   C7S12519   0.153   4.299   5.383  0.2780  0.1923  0.3468
   9323SM   H7S12520   0.119   4.197   5.408  2.2574 -0.0801  2.2339
   9323SM   H7T12521   0.069   4.352   5.332 -0.6569 -1.8797 -0.3706
   9323SM   C8S12522   0.195   4.370   5.510  0.1347  0.4971 -0.3878
   9323SM   H8S12523   0.234   4.473   5.495  2.1721 -0.1004  0.4219
   9323SM   H8T12524   0.293   4.329   5.543  0.5609  0.1058 -2.0820
   9323SM   C9S12525   0.084   4.376   5.620  0.0740  0.3244  0.0562
   9323SM   H9S12526   0.063   4.275   5.663  0.1337  0.1001 -0.4350
   9323SM   H9T12527  -0.010   4.411   5.572  1.1753 -0.9568 -3.2607
   9323SM  C10S12528   0.135   4.461   5.739  0.2871  0.5700  0.1234
   9323SM  H10S12529   0.181   4.553   5.696  2.2600 -1.1483 -1.7210
   9323SM  H10T12530   0.225   4.409   5.779 -0.1909 -1.8193 -1.6866
   9323SM  C11S12531   0.046   4.495   5.854  0.0623  0.3888  0.7839
   9323SM  H11S12532   0.035   4.397   5.906  0.6847  0.1881  0.5509
   9323SM  H11T12533  -0.052   4.525   5.813 -0.4670 -0.6999  1.2139
   9323SM  C12S12534   0.087   4.618   5.932 -0.6297  0.1865 -0.5982
   9323SM  H12S12535   0.091   4.716   5.879 -0.0767  0.8862  0.7045
   9323SM  H12T12536   0.189   4.598   5.970 -1.0944 -0.6726  0.2338
   9323SM  C13S12537   0.010   4.623   6.071 -0.4829  0.7289  0.7192
   9323SM  H13S12538   0.018   4.527   6.127 -0.5918 -0.2514 -0.8615
   9323SM  H13T12539  -0.097   4.623   6.044  0.0317  0.0397 -1.5372
   9323SM  C14S12540   0.051   4.743   6.152  0.0365 -0.0763  0.1402
   9323SM  H14S12541   0.028   4.839   6.100 -1.9279 -0.5437  0.0522
   9323SM  H14T12542   0.159   4.743   6.176 -0.0807  1.3116  0.7556
   9323SM  C15S12543  -0.031   4.751   6.280 -0.0133  0.7066 -0.4610
   9323SM  H15S12544  -0.132   4.787   6.251  0.6704  1.7194 -1.7019
   9323SM  H15T12545  -0.036   4.656   6.336 -2.1434 -0.0719 -1.8427
   9323SM  C16S12546   0.039   4.850   6.363  0.0966 -0.7803  0.2046
   9323SM  H16S12547   0.048   4.944   6.305 -0.3104  0.6447  2.3230
   9323SM  H16T12548   0.145   4.826   6.386  0.9577  0.8333 -1.7665
   9323SM  C17S12549  -0.026   4.870   6.497  0.3508  0.4863 -0.4389
   9323SM  H17S12550  -0.075   4.778   6.535  0.6037 -0.0433 -1.3782
   9323SM  H17T12551  -0.107   4.945   6.488 -0.1884 -0.1728 -1.1620
   9323SM  C18S12552   0.077   4.914   6.601 -0.0989 -0.1955 -0.1371
   9323SM  H18S12553   0.026   4.953   6.691 -0.8903 -0.9831 -0.2324
   9323SM  H18T12554   0.125   4.999   6.548  1.2021 -1.0806 -0.4183
   9323SM  H18U12555   0.153   4.835   6.616 -2.3224 -3.0325 -2.3910
   9323SM   C1F12556  -0.233   3.978   5.055  0.1509 -0.0751  0.1730
   9323SM    OF12557  -0.196   3.861   5.048  0.7988 -0.2289  0.4732
   9323SM   C2F12558  -0.362   4.023   5.098 -0.2278  0.1715 -0.5392
   9323SM   H2F12559  -0.425   3.940   5.059 -1.4918  1.0912 -0.4952
   9323SM   H2G12560  -0.396   4.113   5.044 -0.9757 -1.1467 -2.3612
   9323SM   C3F12561  -0.379   4.035   5.253  0.1600 -0.2110 -0.0436
   9323SM   H3F12562  -0.387   3.932   5.294  2.3478 -1.0216 -1.4743
   9323SM   H3G12563  -0.478   4.085   5.259 -1.5407 -3.1172 -1.5811
   9323SM   C4F12564  -0.277   4.109   5.332  0.2131 -0.6138 -0.2640
   9323SM   H4F12565  -0.282   4.219   5.315  0.0899 -0.2738  1.6769
   9323SM   H4G12566  -0.177   4.081   5.294 -0.2097 -1.8361 -0.5045
   9323SM   C5F12567  -0.322   4.082   5.481 -0.4328  0.5681  0.4541
   9323SM   H5F12568  -0.311   3.973   5.498  3.2591  0.5111 -1.3754
   9323SM   H5G12569  -0.426   4.111   5.509 -1.2465 -3.0356  1.6815
   9323SM   C6F12570  -0.227   4.158   5.578 -0.1197  0.3012 -0.5293
   9323SM   H6F12571  -0.234   4.265   5.550  2.1794  0.9304  1.0015
   9323SM   H6G12572  -0.122   4.129   5.555  0.0143  1.5016 -1.4957
   9323SM   C7F12573  -0.257   4.138   5.731  0.7369  0.4469  0.5231
   9323SM   H7F12574  -0.233   4.031   5.747 -1.1147 -0.0252  0.2948
   9323SM   H7G12575  -0.367   4.134   5.745  0.9087 -1.3338  1.6486
   9323SM   C8F12576  -0.210   4.236   5.830 -0.2867  0.3662  0.0837
   9323SM   H8F12577  -0.230   4.339   5.793  0.3913  0.6986  0.5974
   9323SM   H8G12578  -0.099   4.232   5.839 -0.2557  0.9039 -0.0172
   9323SM   C9F12579  -0.280   4.224   5.967  0.1051 -0.1537  0.0520
   9323SM   H9F12580  -0.222   4.140   6.010  0.0982 -0.1652  0.0388
   9323SM   H9G12581  -0.387   4.202   5.948  0.3828  0.0992 -2.0526
   9323SM  C10F12582  -0.265   4.354   6.056  0.6370  0.9453 -0.5210
   9323SM  H10F12583  -0.322   4.437   6.008  0.9149  0.6720 -1.3426
   9323SM  H10G12584  -0.158   4.384   6.052  0.5213  1.2659 -3.2571
   9323SM  C11F12585  -0.302   4.325   6.205 -0.3584  0.0439 -0.4778
   9323SM  H11F12586  -0.281   4.223   6.242 -0.6146  0.3202  0.4391
   9323SM  H11G12587  -0.412   4.335   6.213 -0.3720 -1.6853  3.3998
   9323SM  C12F12588  -0.226   4.405   6.309  0.4013  0.0109  0.0348
   9323SM  H12F12589  -0.184   4.492   6.253  1.4821 -0.1421  0.5818
   9323SM  H12G12590  -0.148   4.338   6.350  0.2933  0.1685  0.5026
   9323SM  C13F12591  -0.317   4.461   6.424 -0.1288  0.0960 -0.4240
   9323SM  H13F12592  -0.372   4.369   6.452  1.7149 -1.1984 -0.8908
   9323SM  H13G12593  -0.393   4.538   6.397 -0.4319  0.9737  2.5256
   9323SM  C14F12594  -0.234   4.512   6.549  0.6988 -0.2800 -0.0758
   9323SM  H14F12595  -0.187   4.611   6.530  2.4375 -0.9198  0.6652
   9323SM  H14G12596  -0.142   4.453   6.569  1.0314  0.3413  0.2542
   9323SM  C15F12597  -0.332   4.513   6.670 -0.5359 -0.4946  0.7010
   9323SM  H15F12598  -0.360   4.407   6.689  1.3064 -1.3350 -0.9971
   9323SM  H15G12599  -0.423   4.572   6.648  0.6533  1.9303  1.8867
   9323SM  C16F12600  -0.246   4.560   6.783 -0.0048 -0.0104 -0.4630
   9323SM  H16F12601  -0.140   4.528   6.781 -0.5228 -2.6561  3.1035
   9323SM  H16G12602  -0.284   4.516   6.878  1.2831  0.9285  0.5160
   9323SM  C17F12603  -0.264   4.718   6.809  0.2787 -0.2326  0.5983
   9323SM  H17F12604  -0.361   4.735   6.860  0.4188  1.2364  0.4037
   9323SM  H17G12605  -0.264   4.771   6.712  0.3818 -1.1572  0.0809
   9323SM  C18F12606  -0.153   4.784   6.895 -0.0209  0.1210  0.2427
   9323SM  H18F12607  -0.057   4.763   6.843 -0.0504  2.2810 -0.8095
   9323SM  H18G12608  -0.130   4.742   6.995  0.5667 -1.0458 -0.3645
   9323SM  C19F12609  -0.172   4.938   6.907  0.1114  0.4916  0.5242
   9323SM  H19F12610  -0.196   4.977   6.806 -0.2004  0.9018  0.7526
   9323SM  H19G12611  -0.084   4.983   6.957  0.2277  0.0654  0.7088
   9323SM  C20F12612  -0.299   4.979   6.991 -0.2563 -0.2845  0.3162
   9323SM  H20F12613  -0.291   4.935   7.093  0.1334  1.9679  1.3278
   9323SM  H20G12614  -0.388   4.933   6.941  0.7963 -0.5910 -1.3594
   9323SM  C21F12615  -0.333   5.128   7.000 -0.0850 -0.1337 -0.6791
   9323SM  H21F12616  -0.315   5.181   6.905  2.9244 -1.5285 -1.0215
   9323SM  H21G12617  -0.255   5.166   7.070 -0.0524 -0.8301 -0.3242
   9323SM  C22F12618  -0.470   5.156   7.069 -0.5040  0.4940  0.0653
   9323SM  H22F12619  -0.554   5.127   7.002 -0.7951  1.5112 -0.0291
   9323SM  H22G12620  -0.477   5.267   7.065  0.5287  0.5489 -2.7400
   9323SM  C23F12621  -0.488   5.092   7.204 -0.3357 -0.8068  0.3279
   9323SM  H23F12622  -0.577   5.133   7.257  0.7165  0.7673  0.9576
   9323SM  H23G12623  -0.395   5.108   7.262 -0.6081  0.2457  0.4959
   9323SM  H23H12624  -0.488   4.981   7.194  3.2968 -0.7310 -2.7788
   9423SM     N12625   5.300   7.274   4.665 -0.2933  0.2823 -0.0271
   9423SM   C1512626   5.332   7.410   4.700  0.4948  0.2388 -0.1751
   9423SM  H15A12627   5.353   7.420   4.805  0.4511  1.2538 -0.2599
   9423SM  H15B12628   5.251   7.476   4.672  1.0205  1.2008  0.5380
   9423SM  H15C12629   5.421   7.440   4.646 -0.8773  2.7605 -1.2192
   9423SM   C1412630   5.165   7.237   4.711  0.1582  0.8077  0.4534
   9423SM  H14A12631   5.148   7.142   4.661  2.0251  0.7125 -0.1042
   9423SM  H14B12632   5.083   7.301   4.681  0.3585  1.0764  0.4694
   9423SM  H14C12633   5.158   7.220   4.817 -0.0695  0.6253  0.4102
   9423SM   C1312634   5.286   7.266   4.517 -0.1199 -0.8723  0.0666
   9423SM  H13A12635   5.270   7.166   4.481 -4.4400 -0.7972  1.2841
   9423SM  H13B12636   5.374   7.313   4.475  0.2976 -0.2751  1.5534
   9423SM  H13C12637   5.209   7.329   4.476 -0.8032 -1.1787  0.8570
   9423SM   C1212638   5.406   7.172   4.708  0.3855 -0.2916 -0.8771
   9423SM  H12A12639   5.500   7.210   4.670  0.5343  1.5082  1.1531
   9423SM  H12B12640   5.384   7.077   4.660 -2.5674 -1.1033  1.7570
   9423SM   C1112641   5.416   7.161   4.865 -0.0266  0.3525  0.6135
   9423SM  H11A12642   5.426   7.263   4.907  1.1355 -0.6924  3.0601
   9423SM  H11B12643   5.511   7.108   4.889 -0.1208 -0.7162 -1.2315
   9423SM     P12644   5.267   6.944   4.911 -0.2095 -0.0047 -0.4560
   9423SM   O1312645   5.172   6.906   5.016 -0.3568  0.6660  0.2909
   9423SM   O1412646   5.245   6.899   4.774 -0.5732 -0.6426 -0.4642
   9423SM   O1112647   5.402   6.874   4.949 -0.3683 -0.1630  0.4383
   9423SM   O1212648   5.298   7.100   4.921  0.1044 -0.3356 -0.2169
   9423SM   C1S12649   5.468   6.863   5.078 -0.3031 -0.1530  0.3377
   9423SM   H1S12650   5.484   6.959   5.132  0.1499  0.4449 -0.8188
   9423SM   H1T12651   5.572   6.826   5.062 -0.7419 -1.8449  1.2198
   9423SM    NF12652   5.469   6.760   5.300 -0.1602 -0.6650 -0.2833
   9423SM   HNF12653   5.518   6.680   5.332 -0.8700 -0.6216  0.9627
   9423SM   C2S12654   5.412   6.748   5.162  0.4664  0.5815  0.3766
   9423SM   H2S12655   5.302   6.755   5.176 -0.3585 -2.6377 -2.9715
   9423SM   C3S12656   5.430   6.612   5.089  0.7578 -0.2563  0.1302
   9423SM   H3S12657   5.539   6.594   5.084  0.6614 -0.5289 -1.5347
   9423SM    O312658   5.393   6.614   4.948  0.0853  0.1896 -0.3930
   9423SM   HO312659   5.371   6.708   4.947  2.0332  0.6764 -1.0815
   9423SM   C4S12660   5.366   6.495   5.164  0.5770  0.4286  0.4971
   9423SM   H4S12661   5.431   6.453   5.242  0.6653  0.3870  0.4009
   9423SM   C5S12662   5.251   6.437   5.130 -0.4128 -0.4483 -0.0481
   9423SM   H5S12663   5.203   6.471   5.038  0.0559 -0.0461 -0.1464
   9423SM   C6S12664   5.192   6.320   5.207  0.0595 -0.0720 -0.8026
   9423SM   H6S12665   5.180   6.239   5.132 -0.8093  1.0095 -1.8728
   9423SM   H6T12666   5.091   6.339   5.249  0.4939 -0.1630  0.3124
   9423SM   C7S12667   5.288   6.274   5.322  0.0787  0.2364 -0.5519
   9423SM   H7S12668   5.301   6.353   5.399  1.4115  0.2628 -0.7854
   9423SM   H7T12669   5.390   6.248   5.289 -1.0626 -1.4795 -3.0111
   9423SM   C8S12670   5.223   6.149   5.396  0.4674  0.5508  0.4242
   9423SM   H8S12671   5.252   6.058   5.339 -0.5924  1.5363 -1.8078
   9423SM   H8T12672   5.114   6.172   5.399  1.0533  3.7890 -0.0810
   9423SM   C9S12673   5.281   6.143   5.543  0.6187 -0.8810  0.1576
   9423SM   H9S12674   5.224   6.219   5.600 -1.5003  0.4090 -3.3718
   9423SM   H9T12675   5.387   6.177   5.543  0.2499  0.3109 -0.3897
   9423SM  C10S12676   5.282   5.999   5.603  0.2155  0.1530  0.5240
   9423SM  H10S12677   5.349   5.956   5.526 -0.4578  2.5915 -1.5222
   9423SM  H10T12678   5.182   5.954   5.585  0.0813  1.6656 -3.5464
   9423SM  C11S12679   5.332   5.983   5.748 -0.2672  0.1809  0.3424
   9423SM  H11S12680   5.406   6.059   5.781 -1.0744 -0.5575  4.4455
   9423SM  H11T12681   5.378   5.884   5.767 -2.4656 -0.6687  1.5351
   9423SM  C12S12682   5.220   6.000   5.851 -0.5859 -0.6462  0.3065
   9423SM  H12S12683   5.135   5.933   5.826 -0.0537  0.1631 -4.8684
   9423SM  H12T12684   5.193   6.108   5.856 -1.2298 -0.7204 -1.1519
   9423SM  C13S12685   5.269   5.963   5.991 -0.6236 -0.1459 -0.1622
   9423SM  H13S12686   5.351   6.038   6.002  0.6608 -1.3607 -1.1254
   9423SM  H13T12687   5.313   5.861   5.999 -0.8356 -0.2025  0.3189
   9423SM  C14S12688   5.171   5.981   6.111  0.1974 -0.6266  0.1501
   9423SM  H14S12689   5.072   5.942   6.079  0.4259 -0.1524 -1.2453
   9423SM  H14T12690   5.139   6.088   6.111  0.5319 -0.4951 -1.2787
   9423SM  C15S12691   5.213   5.922   6.249 -0.5085 -0.1653  0.9247
   9423SM  H15S12692   5.308   5.967   6.283 -1.3450 -0.6506  4.2950
   9423SM  H15T12693   5.226   5.814   6.228 -1.3239  0.0854 -1.0886
   9423SM  C16S12694   5.104   5.940   6.354  0.3067 -0.0986  0.3979
   9423SM  H16S12695   5.017   5.881   6.316 -0.0334 -0.0251  1.0391
   9423SM  H16T12696   5.078   6.048   6.355 -0.0203 -0.1117 -1.7261
   9423SM  C17S12697   5.135   5.886   6.492 -0.2637  0.1062  0.1471
   9423SM  H17S12698   5.144   5.776   6.477 -0.8539  0.1403 -0.4901
   9423SM  H17T12699   5.054   5.913   6.564  0.2444  2.9412 -0.2247
   9423SM  C18S12700   5.268   5.938   6.543 -0.0414 -0.5334  0.3169
   9423SM  H18S12701   5.354   5.906   6.480 -0.8637 -2.9953  0.3117
   9423SM  H18T12702   5.296   5.896   6.642 -1.6046  2.8967  2.3785
   9423SM  H18U12703   5.263   6.048   6.557 -0.7632 -0.7913  2.2811
   9423SM   C1F12704   5.451   6.861   5.386  0.1949 -0.1071 -0.1698
   9423SM    OF12705   5.353   6.945   5.370 -0.7925  0.0237 -0.0477
   9423SM   C2F12706   5.540   6.855   5.514  0.6633  0.1289  1.1357
   9423SM   H2F12707   5.637   6.809   5.485  0.3783 -0.5260  1.2072
   9423SM   H2G12708   5.492   6.787   5.588  1.9661 -1.1606  0.8405
   9423SM   C3F12709   5.562   6.996   5.577  1.0961 -0.1378 -0.1343
   9423SM   H3F12710   5.471   7.049   5.612  0.8085  0.8904 -2.3121
   9423SM   H3G12711   5.592   7.060   5.491 -0.1153 -2.0145 -2.0621
   9423SM   C4F12712   5.661   7.005   5.692 -0.9678 -0.2446 -0.0586
   9423SM   H4F12713   5.694   7.111   5.693 -1.3023 -0.1330 -0.3182
   9423SM   H4G12714   5.759   6.958   5.670 -1.7937 -1.7644 -0.6459
   9423SM   C5F12715   5.622   6.975   5.833  0.1847 -0.0888  0.3156
   9423SM   H5F12716   5.611   6.868   5.861 -0.5054  0.4649  2.3100
   9423SM   H5G12717   5.533   7.032   5.865 -0.3105  0.5677 -2.0127
   9423SM   C6F12718   5.744   7.010   5.915  0.0752  0.1147 -0.1914
   9423SM   H6F12719   5.765   7.118   5.902  0.9678  0.0787  0.7883
   9423SM   H6G12720   5.836   6.955   5.885  0.4028 -0.4449  1.7042
   9423SM   C7F12721   5.736   6.976   6.060  0.7938 -0.5704  0.5573
   9423SM   H7F12722   5.743   6.866   6.073 -3.1222 -1.0553 -0.2326
   9423SM   H7G12723   5.630   6.993   6.089  1.3374 -0.8725  2.8629
   9423SM   C8F12724   5.846   7.040   6.155  0.8127  0.3249  0.3798
   9423SM   H8F12725   5.853   7.150   6.140  2.7103  0.5269  2.3344
   9423SM   H8G12726   5.943   6.996   6.125  0.2702 -1.3550  0.9318
   9423SM   C9F12727   5.819   7.017   6.299 -0.4415 -0.3381  0.0059
   9423SM   H9F12728   5.720   7.064   6.321  0.3869  1.9390 -0.8737
   9423SM   H9G12729   5.898   7.071   6.354 -0.5284 -0.0334 -0.1645
   9423SM  C10F12730   5.829   6.867   6.341 -0.0044  0.4416 -0.1609
   9423SM  H10F12731   5.909   6.832   6.273 -0.4859  1.2184 -1.1654
   9423SM  H10G12732   5.746   6.797   6.317  2.5973 -2.0489 -2.5547
   9423SM  C11F12733   5.878   6.859   6.483 -0.0951  0.3564 -0.3108
   9423SM  H11F12734   5.799   6.884   6.556  1.8493  0.4764  1.8915
   9423SM  H11G12735   5.968   6.919   6.509 -0.0782 -0.5562  2.0482
   9423SM  C12F12736   5.904   6.709   6.511  0.1539  0.3905 -1.0688
   9423SM  H12F12737   5.989   6.675   6.448  2.3875  0.0604  1.9304
   9423SM  H12G12738   5.815   6.643   6.502  0.2362  0.1306 -0.0933
   9423SM  C13F12739   5.958   6.676   6.656  0.1158  0.0054  0.8355
   9423SM  H13F12740   5.890   6.717   6.734 -1.5829 -0.3679 -0.3941
   9423SM  H13G12741   6.052   6.731   6.676 -0.6833  0.8912  2.4404
   9423SM  C14F12742   5.971   6.523   6.676  0.2349  0.0335  0.2636
   9423SM  H14F12743   6.039   6.491   6.594 -0.8423 -0.5025 -0.4559
   9423SM  H14G12744   5.876   6.472   6.648  0.4074  0.3602 -1.0100
   9423SM  C15F12745   6.030   6.490   6.816 -0.7806  0.4151 -0.1614
   9423SM  H15F12746   6.017   6.380   6.831  1.7283  0.0690 -0.1812
   9423SM  H15G12747   5.980   6.548   6.896 -0.0548  0.9116 -0.0572
   9423SM  C16F12748   6.181   6.505   6.809  0.1783  0.7051 -0.4012
   9423SM  H16F12749   6.218   6.605   6.778  1.8209 -0.6475 -3.1624
   9423SM  H16G12750   6.222   6.445   6.725 -0.7639  1.2405 -1.2748
   9423SM  C17F12751   6.269   6.457   6.923  0.6155 -0.3575 -0.0586
   9423SM  H17F12752   6.241   6.526   7.006  0.3579 -0.9680  0.3660
   9423SM  H17G12753   6.374   6.472   6.891  0.2462 -0.4339 -1.3821
   9423SM  C18F12754   6.254   6.309   6.969 -0.3469 -0.4033 -0.0485
   9423SM  H18F12755   6.351   6.261   6.996  0.1187  0.4912 -0.0958
   9423SM  H18G12756   6.217   6.249   6.883 -3.9971  2.4609 -0.7023
   9423SM  C19F12757   6.145   6.300   7.081  0.6758  0.4416 -0.1721
   9423SM  H19F12758   6.090   6.204   7.070 -0.7907  1.3016 -0.5630
   9423SM  H19G12759   6.070   6.378   7.061 -1.6298 -0.9928  2.2389
   9423SM  C20F12760   6.191   6.329   7.228 -0.8181 -0.4340 -0.4430
   9423SM  H20F12761   6.243   6.427   7.231  0.0109 -0.8815  0.0106
   9423SM  H20G12762   6.259   6.247   7.258 -0.2843  0.6526  1.4785
   9423SM  C21F12763   6.070   6.322   7.320  0.5261 -0.2499 -0.0483
   9423SM  H21F12764   5.999   6.252   7.272 -0.8034  0.0725  1.3541
   9423SM  H21G12765   6.016   6.419   7.324 -0.5342 -0.8428  0.3776
   9423SM  C22F12766   6.114   6.296   7.459  0.7997  0.2568  0.4412
   9423SM  H22F12767   6.128   6.189   7.483 -1.4007 -0.1736  0.0570
   9423SM  H22G12768   6.035   6.324   7.532  1.6719  2.0207  0.7683
   9423SM  C23F12769   6.242   6.379   7.493  0.3555  0.6381  0.0741
   9423SM  H23F12770   6.228   6.487   7.473 -2.3461  0.8091  2.2363
   9423SM  H23G12771   6.328   6.338   7.437 -0.8811 -1.7054 -0.2132
   9423SM  H23H12772   6.265   6.367   7.601 -1.3009  1.2737  0.5338
   9523SM     N12773   1.519   3.036   4.499 -0.2799 -0.5078 -0.4702
   9523SM   C1512774   1.382   2.989   4.460  0.0233  0.3306 -0.2319
   9523SM  H15A12775   1.342   3.071   4.403  0.7352  1.9393  1.4651
   9523SM  H15B12776   1.316   2.964   4.542 -0.3104  1.0494 -0.2727
   9523SM  H15C12777   1.386   2.905   4.392 -0.2081  0.2470 -0.1423
   9523SM   C1412778   1.600   2.913   4.534 -0.4187  0.1807 -0.6373
   9523SM  H14A12779   1.531   2.845   4.583  0.1059  0.1050  0.0017
   9523SM  H14B12780   1.684   2.929   4.599 -0.5254  0.0356 -0.4631
   9523SM  H14C12781   1.619   2.858   4.443 -0.5238  0.8467 -1.0738
   9523SM   C1312782   1.584   3.103   4.385  0.5856 -0.5720  0.4211
   9523SM  H13A12783   1.560   3.058   4.289 -2.7308 -1.5606  1.5738
   9523SM  H13B12784   1.690   3.122   4.386  0.6555 -0.2300 -3.0524
   9523SM  H13C12785   1.536   3.199   4.384  0.3831 -0.6726 -0.1209
   9523SM   C1212786   1.526   3.136   4.619  0.4860  0.4583  0.6525
   9523SM  H12A12787   1.625   3.131   4.661  0.7368  0.4607  0.0804
   9523SM  H12B12788   1.471   3.097   4.703  0.1307  1.0366  0.6931
   9523SM   C1112789   1.498   3.282   4.582  0.3732  0.1307  0.2280
   9523SM  H11A12790   1.442   3.333   4.663  1.0365  0.7685  0.2892
   9523SM  H11B12791   1.414   3.289   4.510  0.2385  1.9513  0.5236
   9523SM     P12792   1.756   3.351   4.593  0.5659 -0.0709 -0.1919
   9523SM   O1312793   1.811   3.218   4.560  0.0149 -0.0432 -0.3040
   9523SM   O1412794   1.840   3.464   4.547  0.0540 -0.0208  0.1561
   9523SM   O1112795   1.735   3.360   4.748  0.1492 -0.6564  0.4715
   9523SM   O1212796   1.604   3.359   4.532 -0.4231 -0.7168 -0.2124
   9523SM   C1S12797   1.839   3.305   4.832  0.2600 -0.2641 -0.2861
   9523SM   H1S12798   1.939   3.352   4.823  0.6469 -0.6603  1.5659
   9523SM   H1T12799   1.845   3.197   4.806  0.6168 -0.0632 -1.0594
   9523SM    NF12800   1.912   3.268   5.060 -0.4595 -0.3175  0.5959
   9523SM   HNF12801   1.922   3.170   5.074  2.6777 -0.3173 -0.7219
   9523SM   C2S12802   1.797   3.312   4.981  0.9549 -0.3458  0.0726
   9523SM   H2S12803   1.760   3.415   4.997 -0.9830 -0.8250 -0.8978
   9523SM   C3S12804   1.654   3.243   5.006  0.3796 -0.0657 -0.1400
   9523SM   H3S12805   1.654   3.137   4.971 -0.8190  0.7613 -2.8680
   9523SM    O312806   1.551   3.287   4.923  0.6806  0.5793  0.3004
   9523SM   HO312807   1.599   3.336   4.856  0.6212  0.3510  0.0873
   9523SM   C4S12808   1.621   3.261   5.155 -0.0118 -0.3989 -0.1099
   9523SM   H4S12809   1.676   3.192   5.221  0.1257 -0.1143  0.0735
   9523SM   C5S12810   1.529   3.339   5.208  0.9709 -0.4398 -0.2097
   9523SM   H5S12811   1.459   3.391   5.141 -0.2956  1.2390  2.2227
   9523SM   C6S12812   1.502   3.355   5.359 -0.6694 -0.1746  0.5776
   9523SM   H6S12813   1.393   3.338   5.374 -0.7113 -1.2953 -0.8297
   9523SM   H6T12814   1.500   3.465   5.377  3.9515  0.2265 -0.0878
   9523SM   C7S12815   1.600   3.289   5.464  0.7707 -0.2266  0.1965
   9523SM   H7S12816   1.705   3.317   5.440  0.4210  2.2792  1.2713
   9523SM   H7T12817   1.603   3.178   5.457  2.6464 -0.3855  2.3480
   9523SM   C8S12818   1.568   3.326   5.602 -0.1636 -0.6787 -0.4340
   9523SM   H8S12819   1.464   3.304   5.634  0.1116  1.1918  2.0158
   9523SM   H8T12820   1.591   3.434   5.617 -0.5253 -0.9632  2.9866
   9523SM   C9S12821   1.656   3.258   5.707  0.7409  0.8933 -0.1865
   9523SM   H9S12822   1.760   3.296   5.699  0.7801  1.1044  1.0326
   9523SM   H9T12823   1.643   3.148   5.696 -2.2047  1.0410  0.8468
   9523SM  C10S12824   1.598   3.293   5.851 -0.7800  0.0063 -0.0686
   9523SM  H10S12825   1.487   3.298   5.846 -0.6890  1.0103 -2.1232
   9523SM  H10T12826   1.624   3.400   5.859 -0.2370  0.2114 -3.3421
   9523SM  C11S12827   1.655   3.205   5.958  0.7586  0.7728 -0.2734
   9523SM  H11S12828   1.763   3.221   5.980  0.9424 -1.7113  0.9121
   9523SM  H11T12829   1.657   3.098   5.929 -1.2007  0.7246 -0.3896
   9523SM  C12S12830   1.578   3.214   6.093 -0.3340 -0.0035 -0.5625
   9523SM  H12S12831   1.597   3.118   6.144 -0.1321  0.3674  0.0773
   9523SM  H12T12832   1.469   3.233   6.083 -0.4534 -1.2034 -1.7690
   9523SM  C13S12833   1.647   3.320   6.181  0.1378  0.4781 -0.0601
   9523SM  H13S12834   1.602   3.418   6.155  2.5937  2.0024  1.0804
   9523SM  H13T12835   1.756   3.323   6.161  0.3935 -0.9022  0.9727
   9523SM  C14S12836   1.622   3.281   6.327 -0.1626 -0.5537  0.6381
   9523SM  H14S12837   1.682   3.193   6.360 -1.0800 -1.6980 -0.6045
   9523SM  H14T12838   1.513   3.262   6.338 -0.1408 -0.2324  1.4254
   9523SM  C15S12839   1.673   3.392   6.422 -0.4835 -0.0220 -0.9205
   9523SM  H15S12840   1.613   3.484   6.403  1.5833  1.7766  0.6937
   9523SM  H15T12841   1.777   3.428   6.411 -0.3632  0.4629  1.2462
   9523SM  C16S12842   1.651   3.342   6.572 -0.1743  0.1348 -0.6604
   9523SM  H16S12843   1.542   3.324   6.585  0.0739 -0.6888  0.4317
   9523SM  H16T12844   1.679   3.431   6.633 -0.2890 -0.9155  0.9785
   9523SM  C17S12845   1.738   3.225   6.617 -0.0916  0.1292  0.6963
   9523SM  H17S12846   1.841   3.234   6.577 -0.4776  2.3708  0.1030
   9523SM  H17T12847   1.695   3.130   6.577 -0.3101  0.8744 -0.9155
   9523SM  C18S12848   1.738   3.195   6.772 -0.0843  0.1257  0.1325
   9523SM  H18S12849   1.766   3.278   6.839  0.3262 -0.5000  0.7499
   9523SM  H18T12850   1.800   3.107   6.798  0.8478  0.9038  0.5972
   9523SM  H18U12851   1.634   3.176   6.806 -0.1808  0.5029  0.0473
   9523SM   C1F12852   2.025   3.333   5.082  0.7387 -0.0620 -0.4791
   9523SM    OF12853   2.022   3.459   5.082 -0.2086 -0.4960 -0.2790
   9523SM   C2F12854   2.151   3.259   5.101 -0.0426  0.5008  0.2430
   9523SM   H2F12855   2.223   3.262   5.017  1.0954 -0.7578  1.1407
   9523SM   H2G12856   2.133   3.151   5.121  1.9949  0.4430  2.0726
   9523SM   C3F12857   2.232   3.309   5.222  0.5437 -0.6096 -0.1279
   9523SM   H3F12858   2.182   3.276   5.316  0.5326  2.1938  0.9517
   9523SM   H3G12859   2.245   3.420   5.217 -0.3947 -0.5448 -3.6126
   9523SM   C4F12860   2.384   3.254   5.230 -0.0109  0.0026 -0.0225
   9523SM   H4F12861   2.447   3.293   5.148 -1.4910 -1.4460 -1.9435
   9523SM   H4G12862   2.382   3.146   5.205 -0.2545  0.5809 -2.8674
   9523SM   C5F12863   2.456   3.290   5.359  0.1602  0.5474 -0.0149
   9523SM   H5F12864   2.427   3.389   5.398 -0.5485 -0.1239  1.2323
   9523SM   H5G12865   2.567   3.287   5.352  0.2508 -0.5307  1.3396
   9523SM   C6F12866   2.433   3.194   5.475 -0.5091 -0.0599 -0.1139
   9523SM   H6F12867   2.481   3.099   5.445  2.6958  1.3394  0.2217
   9523SM   H6G12868   2.329   3.179   5.511  0.0076  0.9979  1.9575
   9523SM   C7F12869   2.504   3.246   5.599  0.5062  0.1579  0.1420
   9523SM   H7F12870   2.478   3.351   5.624 -0.6909 -0.0801 -0.0595
   9523SM   H7G12871   2.614   3.236   5.581  0.8044  2.8575  0.1494
   9523SM   C8F12872   2.471   3.156   5.713  0.1655  0.5120 -1.2624
   9523SM   H8F12873   2.519   3.057   5.697  1.5216  0.9357 -0.0930
   9523SM   H8G12874   2.363   3.130   5.715  0.5648 -1.3049  1.0051
   9523SM   C9F12875   2.519   3.215   5.855 -0.0086 -0.0092  0.1755
   9523SM   H9F12876   2.461   3.301   5.893  0.4780 -0.1869  1.3456
   9523SM   H9G12877   2.624   3.247   5.839 -0.1205 -0.0652 -0.7588
   9523SM  C10F12878   2.510   3.116   5.973  0.2457 -0.5258 -0.3582
   9523SM  H10F12879   2.559   3.019   5.949  0.6542 -0.1786 -0.9558
   9523SM  H10G12880   2.400   3.105   5.986  0.4905 -1.9192  0.7121
   9523SM  C11F12881   2.576   3.165   6.101 -0.1289 -0.3006  0.1477
   9523SM  H11F12882   2.528   3.264   6.119  0.2981  0.4296 -2.3070
   9523SM  H11G12883   2.686   3.171   6.088 -0.2555  0.0784 -0.8803
   9523SM  C12F12884   2.551   3.072   6.219  0.1318  0.0234 -0.0378
   9523SM  H12F12885   2.443   3.045   6.215 -0.0982  0.9838 -0.4777
   9523SM  H12G12886   2.582   3.128   6.309  1.5949  0.6324 -0.8835
   9523SM  C13F12887   2.628   2.939   6.226  0.1791 -0.7156  0.4232
   9523SM  H13F12888   2.738   2.954   6.230  0.1354  0.1347 -0.9395
   9523SM  H13G12889   2.602   2.873   6.140  1.8426  1.2818 -1.7159
   9523SM  C14F12890   2.586   2.853   6.344  0.2141 -0.2985  0.4469
   9523SM  H14F12891   2.478   2.827   6.343  0.0317  0.4163 -0.5943
   9523SM  H14G12892   2.628   2.919   6.423  2.4530  0.0350 -0.9337
   9523SM  C15F12893   2.662   2.725   6.349  0.0981  0.1245 -0.3376
   9523SM  H15F12894   2.768   2.743   6.322  0.5431 -0.7112  0.7728
   9523SM  H15G12895   2.620   2.653   6.276 -0.2165  0.4192 -0.4508
   9523SM  C16F12896   2.653   2.660   6.486 -0.1976 -0.4726 -0.2580
   9523SM  H16F12897   2.547   2.671   6.517 -0.5028  2.2676 -1.9349
   9523SM  H16G12898   2.703   2.718   6.567 -0.5996  0.1056 -0.4180
   9523SM  C17F12899   2.682   2.509   6.487 -0.1551 -0.6540 -0.4520
   9523SM  H17F12900   2.640   2.469   6.392  2.5483  0.7542 -2.3610
   9523SM  H17G12901   2.624   2.463   6.570 -0.3467 -0.4962 -0.4972
   9523SM  C18F12902   2.829   2.477   6.513 -0.5450 -0.0907  1.1089
   9523SM  H18F12903   2.859   2.536   6.602  0.7022 -0.1124  0.7316
   9523SM  H18G12904   2.875   2.516   6.419  1.8435  0.3416  2.3720
   9523SM  C19F12905   2.851   2.323   6.534  0.2733  0.9479  0.1880
   9523SM  H19F12906   2.794   2.286   6.622  0.9892 -1.3441 -0.2518
   9523SM  H19G12907   2.959   2.313   6.557 -0.0321 -0.6477  1.0313
   9523SM  C20F12908   2.820   2.223   6.424 -0.2905 -0.1557  0.3017
   9523SM  H20F12909   2.710   2.205   6.423 -0.5141  1.0163  0.9347
   9523SM  H20G12910   2.870   2.129   6.455  3.9911  2.0351  0.7993
   9523SM  C21F12911   2.866   2.264   6.285  0.0752  0.0698 -0.5003
   9523SM  H21F12912   2.973   2.295   6.293 -0.2348  1.1245 -0.1839
   9523SM  H21G12913   2.816   2.357   6.249  0.1402 -0.2473 -1.4416
   9523SM  C22F12914   2.829   2.151   6.184  0.2623 -0.3139 -0.2340
   9523SM  H22F12915   2.722   2.159   6.156 -0.6240  0.8330  3.0349
   9523SM  H22G12916   2.851   2.048   6.220 -1.5276 -1.2641 -1.7249
   9523SM  C23F12917   2.901   2.159   6.045  0.9933  0.0316  0.3466
   9523SM  H23F12918   3.009   2.146   6.064  0.6381 -0.7876  2.0073
   9523SM  H23G12919   2.878   2.252   5.988  2.0638  0.5613  0.7588
   9523SM  H23H12920   2.861   2.084   5.973  1.1892  0.6976 -0.4739
   9623SM     N12921   4.205   1.716   4.301  0.0574 -0.2418  0.3812
   9623SM   C1512922   4.238   1.577   4.254 -0.0584 -0.0455  0.2145
   9623SM  H15A12923   4.224   1.567   4.147 -1.2950 -0.2027  0.3677
   9623SM  H15B12924   4.182   1.497   4.301 -3.0746  1.6768 -0.2195
   9623SM  H15C12925   4.339   1.549   4.280  0.0941  1.7401  1.6566
   9623SM   C1412926   4.326   1.797   4.258  0.5558 -0.5980 -0.2449
   9623SM  H14A12927   4.339   1.787   4.151  1.9006 -0.7639 -0.0842
   9623SM  H14B12928   4.418   1.761   4.301 -0.4154 -2.5459  0.3298
   9623SM  H14C12929   4.310   1.897   4.294 -1.9137 -1.6615  2.0018
   9623SM   C1312930   4.084   1.767   4.233  0.6928 -0.3509  0.1254
   9623SM  H13A12931   4.077   1.756   4.125  0.1257  0.6900  0.0460
   9623SM  H13B12932   4.087   1.874   4.244  1.1404  0.2725 -4.1208
   9623SM  H13C12933   4.000   1.717   4.279  0.5953  0.7276  1.1371
   9623SM   C1212934   4.193   1.730   4.452 -0.2525  0.1457 -0.3680
   9623SM  H12A12935   4.221   1.832   4.474  1.8983 -0.6585  0.9251
   9623SM  H12B12936   4.265   1.663   4.497  1.1646  1.9309  0.1376
   9623SM   C1112937   4.057   1.701   4.520  0.5462 -0.0362 -0.2034
   9623SM  H11A12938   4.073   1.677   4.627 -0.2770  1.6414  0.3271
   9623SM  H11B12939   4.010   1.607   4.482  1.3837 -1.2135  1.5284
   9623SM     P12940   3.997   1.947   4.590  0.2180 -0.0861 -0.2779
   9623SM   O1312941   4.144   1.983   4.600  0.7631  0.2935  0.0500
   9623SM   O1412942   3.901   2.059   4.572  0.2048 -0.8711  0.4111
   9623SM   O1112943   3.966   1.884   4.726 -0.3576 -0.2940 -0.2201
   9623SM   O1212944   3.975   1.824   4.492  0.3900 -0.6846  0.5793
   9623SM   C1S12945   3.833   1.844   4.761 -0.0907 -0.4114 -0.1810
   9623SM   H1S12946   3.811   1.745   4.716  0.0167  0.2535 -1.7452
   9623SM   H1T12947   3.758   1.912   4.715 -0.6217 -0.1752  0.9892
   9623SM    NF12948   3.686   1.772   4.943  0.3132  0.5249  0.2459
   9623SM   HNF12949   3.634   1.843   4.990  2.1197  2.5948 -0.6903
   9623SM   C2S12950   3.814   1.831   4.915  0.2833  0.5320 -0.3322
   9623SM   H2S12951   3.890   1.756   4.946 -0.2740 -0.2924 -0.9218
   9623SM   C3S12952   3.856   1.953   4.995  0.4188  0.2270  0.4950
   9623SM   H3S12953   3.787   2.037   4.973  0.3337  0.2158  0.7202
   9623SM    O312954   3.982   2.001   4.956  0.1625 -0.0822 -0.3719
   9623SM   HO312955   3.998   1.956   4.873 -0.7658 -0.5861 -0.2874
   9623SM   C4S12956   3.858   1.918   5.145 -0.2268  0.6891  0.2345
   9623SM   H4S12957   3.759   1.891   5.185 -0.9973 -1.2547 -2.7024
   9623SM   C5S12958   3.966   1.900   5.227 -0.2907  0.4286  0.1841
   9623SM   H5S12959   4.069   1.894   5.187  0.4190  0.3388  1.9217
   9623SM   C6S12960   3.953   1.848   5.374 -0.0759 -0.7299 -0.0959
   9623SM   H6S12961   3.963   1.936   5.440 -0.5604 -1.6044  1.1774
   9623SM   H6T12962   4.029   1.771   5.399 -1.6659 -2.2410  0.2914
   9623SM   C7S12963   3.818   1.777   5.422  0.2128  0.3463  0.4075
   9623SM   H7S12964   3.801   1.685   5.363 -0.8879  0.8524 -0.1080
   9623SM   H7T12965   3.746   1.856   5.392 -1.4386 -0.6716  1.5510
   9623SM   C8S12966   3.806   1.752   5.575  0.1921 -0.4789  0.3247
   9623SM   H8S12967   3.891   1.691   5.611  0.6992  1.8189  3.3551
   9623SM   H8T12968   3.710   1.695   5.582  0.7838 -1.4963  0.3191
   9623SM   C9S12969   3.787   1.878   5.657 -0.3520  0.2339 -0.1590
   9623SM   H9S12970   3.700   1.926   5.606 -0.2779 -0.4210 -0.9198
   9623SM   H9T12971   3.878   1.942   5.650  0.3060 -0.8150 -1.9129
   9623SM  C10S12972   3.756   1.844   5.805  0.0577  0.8474 -0.7233
   9623SM  H10S12973   3.836   1.782   5.852 -1.6134 -0.9439 -0.0649
   9623SM  H10T12974   3.674   1.769   5.799  1.7247 -1.0321 -1.0641
   9623SM  C11S12975   3.732   1.960   5.910  0.5594  0.0499  0.2372
   9623SM  H11S12976   3.806   2.036   5.877  1.1474 -1.0615 -1.1293
   9623SM  H11T12977   3.748   1.931   6.016 -1.7704 -0.7818  0.4321
   9623SM  C12S12978   3.594   2.029   5.916 -0.1814 -0.4237 -0.1535
   9623SM  H12S12979   3.523   1.954   5.956  2.4450 -1.8841  2.1343
   9623SM  H12T12980   3.569   2.060   5.812  2.3308 -0.4940 -0.8498
   9623SM  C13S12981   3.595   2.147   6.017 -0.4997  0.0401  0.7149
   9623SM  H13S12982   3.648   2.234   5.971  0.2185  0.0574  1.5337
   9623SM  H13T12983   3.663   2.118   6.100  1.7072  2.9895  0.1348
   9623SM  C14S12984   3.465   2.197   6.073  0.4488  0.1728  0.1582
   9623SM  H14S12985   3.392   2.215   5.991  0.6089 -1.2220 -0.3276
   9623SM  H14T12986   3.476   2.293   6.128 -0.0245  0.2965  0.0455
   9623SM  C15S12987   3.413   2.086   6.167 -0.3530  0.6478 -0.0911
   9623SM  H15S12988   3.492   2.057   6.239  0.8775  1.7038 -0.9697
   9623SM  H15T12989   3.388   2.001   6.100  0.1064  1.0875 -0.8392
   9623SM  C16S12990   3.286   2.120   6.245 -0.3200  0.1909 -0.2332
   9623SM  H16S12991   3.241   2.024   6.279 -3.1478 -0.2629 -4.4254
   9623SM  H16T12992   3.203   2.164   6.185  0.4856 -0.1742 -1.6514
   9623SM  C17S12993   3.310   2.206   6.366  0.1617  0.2517 -0.3946
   9623SM  H17S12994   3.315   2.313   6.339  0.4329 -0.2405 -2.4722
   9623SM  H17T12995   3.406   2.177   6.415 -0.0721 -0.1844 -0.1822
   9623SM  C18S12996   3.202   2.197   6.479 -0.8404  0.4373 -0.2534
   9623SM  H18S12997   3.227   2.262   6.565 -3.0760  0.5741  0.3385
   9623SM  H18T12998   3.193   2.094   6.520 -0.2483  0.7183  0.6097
   9623SM  H18U12999   3.107   2.237   6.439 -0.1050  0.0680 -2.5233
   9623SM   C1F13000   3.638   1.658   4.902 -0.1423 -0.1831  0.3950
   9623SM    OF13001   3.709   1.574   4.857  0.2574  0.1171 -0.0115
   9623SM   C2F13002   3.489   1.629   4.911 -0.1207 -0.1890  0.1985
   9623SM   H2F13003   3.449   1.635   4.807 -1.7949 -0.2056  0.8036
   9623SM   H2G13004   3.442   1.712   4.969 -1.1078 -0.3285 -0.3676
   9623SM   C3F13005   3.463   1.489   4.968  0.3056  0.7767 -0.3190
   9623SM   H3F13006   3.503   1.425   4.887  0.4791 -0.0955  0.4433
   9623SM   H3G13007   3.353   1.471   4.973  0.5812 -1.1110 -0.4965
   9623SM   C4F13008   3.513   1.457   5.114 -0.0305  0.5530 -0.7553
   9623SM   H4F13009   3.619   1.490   5.118  0.6092 -1.2105 -2.1203
   9623SM   H4G13010   3.501   1.348   5.133  1.4636  0.5495  0.3135
   9623SM   C5F13011   3.430   1.539   5.216 -0.4379  0.0512 -0.0792
   9623SM   H5F13012   3.334   1.487   5.236 -1.0789  1.1885 -0.1080
   9623SM   H5G13013   3.395   1.640   5.184 -0.1610  0.0563 -0.3626
   9623SM   C6F13014   3.499   1.546   5.350 -0.5205 -0.1386  0.4467
   9623SM   H6F13015   3.595   1.600   5.335 -0.1647 -0.6294  0.9247
   9623SM   H6G13016   3.522   1.438   5.364 -0.9066 -0.3946 -0.7874
   9623SM   C7F13017   3.430   1.617   5.466 -0.0348 -0.2186 -0.2747
   9623SM   H7F13018   3.415   1.724   5.439  2.3915  0.0559 -0.7576
   9623SM   H7G13019   3.503   1.617   5.550 -0.4392  1.6948  0.1277
   9623SM   C8F13020   3.306   1.541   5.520  0.1912 -0.0845  0.6356
   9623SM   H8F13021   3.324   1.435   5.550  0.7046 -0.0469  0.4697
   9623SM   H8G13022   3.225   1.547   5.443  0.1248  0.0006  0.7131
   9623SM   C9F13023   3.234   1.607   5.642 -0.6383 -0.2186 -0.3731
   9623SM   H9F13024   3.137   1.556   5.654  0.4391 -2.0606  0.9754
   9623SM   H9G13025   3.211   1.713   5.618 -0.2147 -0.2416 -0.9063
   9623SM  C10F13026   3.312   1.606   5.775  0.3162  0.1703  0.2575
   9623SM  H10F13027   3.407   1.663   5.761  0.3359  0.3339  0.9892
   9623SM  H10G13028   3.355   1.511   5.813  0.9884  0.2085 -0.3818
   9623SM  C11F13029   3.222   1.672   5.879 -0.5023  0.1659 -0.1433
   9623SM  H11F13030   3.141   1.602   5.907 -1.7362  1.9266  0.8392
   9623SM  H11G13031   3.173   1.763   5.837 -0.0382  0.1964 -0.6339
   9623SM  C12F13032   3.297   1.694   6.007 -0.2872  0.5521 -0.3771
   9623SM  H12F13033   3.382   1.755   5.970  1.0027 -1.4728 -0.8721
   9623SM  H12G13034   3.327   1.595   6.047 -2.9723 -0.0014  0.5015
   9623SM  C13F13035   3.211   1.770   6.105 -0.5652 -0.0508  0.1298
   9623SM  H13F13036   3.113   1.718   6.104 -0.0366 -1.1035 -1.5053
   9623SM  H13G13037   3.184   1.875   6.082 -0.3660 -0.2076 -0.8955
   9623SM  C14F13038   3.275   1.746   6.248  0.1601  0.0474  0.8288
   9623SM  H14F13039   3.349   1.828   6.259 -1.2190  1.5454 -0.5733
   9623SM  H14G13040   3.332   1.651   6.252  0.8738  0.4659  0.6873
   9623SM  C15F13041   3.171   1.746   6.363 -0.8485 -0.2247 -0.0132
   9623SM  H15F13042   3.098   1.663   6.352  1.1891 -2.4882  2.2185
   9623SM  H15G13043   3.115   1.841   6.359  0.5263  0.5830 -0.7255
   9623SM  C16F13044   3.241   1.738   6.497  1.1516 -0.3646 -0.3049
   9623SM  H16F13045   3.319   1.814   6.519  1.0290  0.4061 -2.2675
   9623SM  H16G13046   3.307   1.649   6.506  4.0884  1.8207  1.8328
   9623SM  C17F13047   3.139   1.724   6.613  0.1068 -0.1769 -0.0256
   9623SM  H17F13048   3.091   1.624   6.612 -1.5935  0.6048 -0.6078
   9623SM  H17G13049   3.063   1.804   6.596 -0.6313 -0.7548  0.4805
   9623SM  C18F13050   3.206   1.737   6.754  0.1590  0.1319 -0.2164
   9623SM  H18F13051   3.259   1.834   6.760  0.0252  0.1660  0.4971
   9623SM  H18G13052   3.274   1.650   6.770  0.6927  0.2314 -1.7463
   9623SM  C19F13053   3.094   1.731   6.859 -0.5401  0.3427  0.5693
   9623SM  H19F13054   3.058   1.627   6.869  0.8356 -0.0403  1.8611
   9623SM  H19G13055   3.003   1.781   6.819  0.1892 -0.6147 -2.6044
   9623SM  C20F13056   3.138   1.778   7.000 -1.0493 -0.8170  0.6524
   9623SM  H20F13057   3.185   1.878   6.992  0.9628 -1.8252 -1.3764
   9623SM  H20G13058   3.223   1.721   7.044 -0.4289 -0.1850  0.2785
   9623SM  C21F13059   3.014   1.798   7.084 -0.9249 -0.0946 -0.1373
   9623SM  H21F13060   2.946   1.710   7.088 -0.9389 -0.0537  0.7962
   9623SM  H21G13061   2.955   1.889   7.061 -1.5142  0.3616  2.7610
   9623SM  C22F13062   3.063   1.816   7.230  0.9940  0.1572 -0.2094
   9623SM  H22F13063   3.154   1.878   7.221  0.8539  0.4627  0.4115
   9623SM  H22G13064   3.101   1.719   7.268  2.5559  0.1350 -1.7406
   9623SM  C23F13065   2.952   1.879   7.319  0.0918 -0.7189 -0.0465
   9623SM  H23F13066   2.937   1.985   7.289  4.1105 -0.0531 -0.2469
   9623SM  H23G13067   2.985   1.873   7.426  0.9705  0.7399 -0.2152
   9623SM  H23H13068   2.858   1.820   7.313 -0.4255  0.1745 -0.7823
   9723SM     N13069   4.371   0.518   4.694  0.2887  0.0134 -0.1323
   9723SM   C1513070   4.357   0.381   4.630  0.4536  0.6560 -0.0469
   9723SM  H15A13071   4.452   0.342   4.597  0.2425 -1.8180  1.9690
   9723SM  H15B13072   4.287   0.391   4.548 -0.3272  0.0868  0.5319
   9723SM  H15C13073   4.320   0.303   4.695  3.3497 -0.9400 -0.1700
   9723SM   C1413074   4.238   0.549   4.746  0.3139 -0.6654 -0.2671
   9723SM  H14A13075   4.230   0.653   4.774  3.8800 -0.8724  2.3092
   9723SM  H14B13076   4.210   0.487   4.830 -0.2275 -0.4487 -0.2918
   9723SM  H14C13077   4.157   0.530   4.678  1.1693  1.0044 -1.8308
   9723SM   C1313078   4.476   0.510   4.801  0.2797 -0.0929  0.7581
   9723SM  H13A13079   4.453   0.447   4.885 -1.4585 -0.0241  0.3567
   9723SM  H13B13080   4.502   0.613   4.824 -1.5167  1.1026 -2.0795
   9723SM  H13C13081   4.565   0.476   4.749  0.1483  0.0709  0.4250
   9723SM   C1213082   4.404   0.614   4.584  0.0377  0.8331  0.1669
   9723SM  H12A13083   4.321   0.613   4.515  0.2723 -1.9186 -0.1898
   9723SM  H12B13084   4.490   0.564   4.540 -0.6325 -0.7267  0.5588
   9723SM   C1113085   4.434   0.766   4.621  1.0735  0.0320  0.9280
   9723SM  H11A13086   4.351   0.807   4.683  0.2862 -0.7136  0.3794
   9723SM  H11B13087   4.427   0.831   4.531  1.2394 -1.3885 -0.1370
   9723SM     P13088   4.693   0.753   4.626  0.2218  0.1211 -0.4945
   9723SM   O1313089   4.707   0.609   4.604  0.1930  0.5796 -0.0077
   9723SM   O1413090   4.715   0.843   4.511 -0.1086 -0.4424  0.2752
   9723SM   O1113091   4.793   0.796   4.738 -0.0732 -0.5127 -0.4413
   9723SM   O1213092   4.552   0.787   4.693 -1.3973  0.0012 -0.3513
   9723SM   C1S13093   4.768   0.804   4.879  0.2500  0.3278  0.1566
   9723SM   H1S13094   4.663   0.831   4.899 -0.5046 -1.9035 -0.4652
   9723SM   H1T13095   4.832   0.883   4.924  0.8294  0.4751 -0.9024
   9723SM    NF13096   4.748   0.704   5.098 -0.6884  0.3990  0.0204
   9723SM   HNF13097   4.816   0.733   5.165 -0.9481  2.0733 -0.4178
   9723SM   C2S13098   4.801   0.679   4.963  0.5193 -0.9164  0.1670
   9723SM   H2S13099   4.745   0.597   4.913  0.4743 -0.3334 -0.7709
   9723SM   C3S13100   4.950   0.621   4.957  0.3317  0.5784  0.0459
   9723SM   H3S13101   5.020   0.691   5.007  1.7411 -1.8594  1.7077
   9723SM    O313102   4.985   0.600   4.822  1.1288 -0.2377  0.8106
   9723SM   HO313103   4.926   0.660   4.775  1.3242 -0.5046  0.2127
   9723SM   C4S13104   4.964   0.490   5.026  0.6342  0.3167 -0.7737
   9723SM   H4S13105   4.940   0.507   5.132 -2.0460 -0.8783 -1.1073
   9723SM   C5S13106   4.981   0.365   4.980  0.4522  0.2698 -0.1607
   9723SM   H5S13107   5.001   0.354   4.873  2.3079 -0.4430  0.2209
   9723SM   C6S13108   4.993   0.244   5.070 -0.4821  0.2115  0.4835
   9723SM   H6S13109   5.082   0.180   5.052  0.3016  0.8449  1.9050
   9723SM   H6T13110   4.907   0.176   5.053  1.7919 -2.9563  0.7342
   9723SM   C7S13111   5.006   0.266   5.223 -0.2094 -0.1252 -0.5788
   9723SM   H7S13112   4.923   0.328   5.261 -1.8259  0.3444 -4.3906
   9723SM   H7T13113   5.102   0.319   5.243 -1.5998  3.1273 -1.8245
   9723SM   C8S13114   5.013   0.128   5.293  0.0049 -0.1328  0.0088
   9723SM   H8S13115   5.068   0.139   5.390 -0.8782  0.2888  0.4751
   9723SM   H8T13116   5.078   0.054   5.243 -0.2443 -1.1789  1.1918
   9723SM   C9S13117   4.878   0.060   5.318  0.0824 -0.0408 -0.2046
   9723SM   H9S13118   4.856   0.006   5.224  1.1108  0.7135 -0.9020
   9723SM   H9T13119   4.803   0.139   5.340 -1.4673 -1.9525  1.7548
   9723SM  C10S13120   4.884  -0.043   5.434 -0.5659 -0.0283  0.4381
   9723SM  H10S13121   4.877   0.011   5.531  0.0588 -0.2237  0.5986
   9723SM  H10T13122   4.985  -0.091   5.434 -0.9868 -0.9452  0.7377
   9723SM  C11S13123   4.775  -0.152   5.414  0.2340  0.5110 -0.2948
   9723SM  H11S13124   4.794  -0.208   5.320 -0.7638  2.4825 -1.7502
   9723SM  H11T13125   4.680  -0.096   5.399  0.2288  0.2980 -1.0961
   9723SM  C12S13126   4.753  -0.255   5.530 -0.3764 -0.3608  0.3392
   9723SM  H12S13127   4.700  -0.210   5.617 -0.9656 -1.1042  0.3754
   9723SM  H12T13128   4.854  -0.277   5.572 -0.3563  1.2671  1.2385
   9723SM  C13S13129   4.667  -0.379   5.485  0.2631  0.2299 -0.9572
   9723SM  H13S13130   4.731  -0.436   5.414 -0.1336  0.3936 -1.4509
   9723SM  H13T13131   4.572  -0.348   5.438  0.1749  1.7075  0.1343
   9723SM  C14S13132   4.635  -0.483   5.600  0.1469 -0.5255  0.1684
   9723SM  H14S13133   4.564  -0.558   5.559 -0.4423  0.6749 -1.0941
   9723SM  H14T13134   4.583  -0.432   5.684 -0.4202 -0.0216 -0.4792
   9723SM  C15S13135   4.762  -0.553   5.647  0.4340 -0.6544  0.0938
   9723SM  H15S13136   4.823  -0.463   5.673  0.8066 -0.8673 -0.0326
   9723SM  H15T13137   4.809  -0.607   5.562 -0.5190 -3.3631  1.1596
   9723SM  C16S13138   4.736  -0.636   5.767  0.1772  0.5245 -0.3773
   9723SM  H16S13139   4.663  -0.715   5.741 -0.1455  1.2196 -1.7271
   9723SM  H16T13140   4.701  -0.581   5.857  0.4236  1.9923 -1.1326
   9723SM  C17S13141   4.870  -0.712   5.810  0.7118 -0.2509 -0.1136
   9723SM  H17S13142   4.959  -0.644   5.812  0.1125  0.5565 -0.4781
   9723SM  H17T13143   4.896  -0.791   5.737 -1.0460 -0.3021 -0.7260
   9723SM  C18S13144   4.863  -0.757   5.951  0.2976 -0.3616 -0.4754
   9723SM  H18S13145   4.759  -0.792   5.969  0.3096 -0.8216 -1.2263
   9723SM  H18T13146   4.876  -0.671   6.020 -1.5871 -0.6949  0.3598
   9723SM  H18U13147   4.931  -0.840   5.978 -1.9576 -1.2107  3.1698
   9723SM   C1F13148   4.624   0.731   5.132  0.2887 -0.0889  0.7419
   9723SM    OF13149   4.533   0.698   5.051 -0.3237 -0.2596  0.1827
   9723SM   C2F13150   4.585   0.803   5.258  0.4675 -0.5509  0.8826
   9723SM   H2F13151   4.637   0.901   5.255 -0.3185 -0.1581 -0.3814
   9723SM   H2G13152   4.629   0.749   5.345 -0.1438 -0.9936  0.9263
   9723SM   C3F13153   4.437   0.821   5.278 -0.4473 -0.1699  0.1396
   9723SM   H3F13154   4.389   0.724   5.253 -1.3036  0.2123  0.2665
   9723SM   H3G13155   4.400   0.887   5.196 -0.0689 -1.2316 -0.9094
   9723SM   C4F13156   4.390   0.891   5.408 -0.0270  0.0851  0.3919
   9723SM   H4F13157   4.444   0.987   5.426 -0.2463 -0.3117  3.9614
   9723SM   H4G13158   4.413   0.829   5.498  2.1971  2.1583  1.3715
   9723SM   C5F13159   4.237   0.906   5.408 -0.0623  0.6399 -0.3356
   9723SM   H5F13160   4.192   0.816   5.361  0.0621 -0.1184  0.9514
   9723SM   H5G13161   4.212   1.000   5.356 -1.6686  1.2399  1.3984
   9723SM   C6F13162   4.190   0.919   5.554  0.3214  0.5286 -0.5497
   9723SM   H6F13163   4.208   1.020   5.595 -1.7046  0.5465  0.4357
   9723SM   H6G13164   4.251   0.851   5.617 -0.1130  0.3919 -0.2710
   9723SM   C7F13165   4.038   0.886   5.568 -0.2090 -0.3326  0.2790
   9723SM   H7F13166   4.027   0.784   5.526 -1.9309  0.3480 -1.0259
   9723SM   H7G13167   3.980   0.954   5.503 -0.7782  0.0140  1.1296
   9723SM   C8F13168   3.990   0.872   5.716  0.1084 -0.6045  0.1903
   9723SM   H8F13169   4.043   0.784   5.760 -0.9127 -2.6773 -2.4514
   9723SM   H8G13170   3.881   0.854   5.720  0.0080 -0.0058  0.2009
   9723SM   C9F13171   4.029   0.999   5.796  0.1034 -0.7560  0.0879
   9723SM   H9F13172   3.975   1.084   5.750  1.3212  1.3530  2.3163
   9723SM   H9G13173   4.137   1.022   5.796  0.4447 -2.2216  0.8376
   9723SM  C10F13174   3.975   0.998   5.944  0.5787  0.0249 -0.3691
   9723SM  H10F13175   4.022   0.915   6.002  1.6360 -0.2164 -1.5152
   9723SM  H10G13176   3.865   0.982   5.945  0.6295 -0.4158  1.2870
   9723SM  C11F13177   4.003   1.125   6.022 -0.6824  0.0265 -0.2408
   9723SM  H11F13178   3.961   1.215   5.972  0.4637  0.3018 -0.7397
   9723SM  H11G13179   4.112   1.150   6.025 -0.8544  0.8052 -0.2363
   9723SM  C12F13180   3.974   1.107   6.174 -0.6898  0.6204 -0.7054
   9723SM  H12F13181   3.982   1.212   6.208  1.1003  0.3805 -0.2922
   9723SM  H12G13182   4.056   1.056   6.229 -0.0720  2.6124  0.3220
   9723SM  C13F13183   3.838   1.045   6.206  0.1813 -0.8655 -0.1910
   9723SM  H13F13184   3.835   0.940   6.169 -1.7296 -0.9185 -0.0050
   9723SM  H13G13185   3.755   1.096   6.151  1.6708  0.6344 -1.1576
   9723SM  C14F13186   3.811   1.054   6.352  0.0632  0.1190 -0.0134
   9723SM  H14F13187   3.815   1.158   6.392 -2.0911 -0.1485  1.0175
   9723SM  H14G13188   3.887   0.998   6.411 -1.2593 -0.8623  0.8027
   9723SM  C15F13189   3.669   0.987   6.390 -0.0955  0.3698  0.4802
   9723SM  H15F13190   3.646   0.896   6.332 -1.4249  0.7324  0.4046
   9723SM  H15G13191   3.593   1.067   6.373 -0.2847 -0.2007 -1.7283
   9723SM  C16F13192   3.666   0.953   6.539 -0.2399 -1.4380 -0.5118
   9723SM  H16F13193   3.717   1.035   6.595  0.2926 -2.3242  0.3390
   9723SM  H16G13194   3.730   0.863   6.556  0.5956 -0.9331 -0.9137
   9723SM  C17F13195   3.526   0.940   6.595  0.1468  0.2729 -0.4881
   9723SM  H17F13196   3.491   1.045   6.594 -1.5720 -0.2625  0.2476
   9723SM  H17G13197   3.526   0.906   6.701  2.1724  2.1323  0.1938
   9723SM  C18F13198   3.430   0.848   6.509  0.2686 -0.5514 -0.0454
   9723SM  H18F13199   3.465   0.742   6.514 -2.8103 -1.6611 -0.0021
   9723SM  H18G13200   3.428   0.890   6.406 -1.2742 -1.9151 -0.6151
   9723SM  C19F13201   3.295   0.834   6.571 -0.0224  0.8846 -0.9568
   9723SM  H19F13202   3.247   0.934   6.577 -0.3004  0.6893  0.2236
   9723SM  H19G13203   3.298   0.785   6.670 -0.0993 -1.8192 -2.1977
   9723SM  C20F13204   3.198   0.754   6.483  0.0453 -0.7925  0.6657
   9723SM  H20F13205   3.233   0.649   6.473 -1.1102 -1.1287 -0.0464
   9723SM  H20G13206   3.206   0.789   6.378 -1.3537 -0.8014  0.5334
   9723SM  C21F13207   3.055   0.762   6.527 -0.2636 -0.5778  0.0560
   9723SM  H21F13208   3.047   0.737   6.635 -0.9144 -0.3494  0.0635
   9723SM  H21G13209   3.010   0.677   6.470 -1.1494  0.3652 -0.6917
   9723SM  C22F13210   2.975   0.891   6.494 -1.0657  0.2257 -0.3168
   9723SM  H22F13211   3.010   0.975   6.559 -2.4532  0.5089  0.1040
   9723SM  H22G13212   2.869   0.863   6.513 -0.2899 -2.6034  0.3058
   9723SM  C23F13213   2.998   0.936   6.347  0.4503  0.1747 -1.3517
   9723SM  H23F13214   2.973   0.850   6.281 -1.0429 -1.5762  1.3178
   9723SM  H23G13215   3.105   0.959   6.329  0.7453 -0.6294 -0.6877
   9723SM  H23H13216   2.944   1.029   6.318  1.2437  0.8097 -0.8372
   9823SM     N13217   7.378   6.842   4.578 -0.1803  0.5411 -0.9894
   9823SM   C1513218   7.492   6.778   4.506 -0.0818 -0.7208  0.1138
   9823SM  H15A13219   7.562   6.745   4.581  0.3098  2.1745  1.1569
   9823SM  H15B13220   7.535   6.850   4.439 -0.3445 -0.1411  0.5544
   9823SM  H15C13221   7.459   6.696   4.445  1.6826 -1.3570 -0.0239
   9823SM   C1413222   7.291   6.897   4.473  0.3195  0.0923  0.0799
   9823SM  H14A13223   7.206   6.941   4.523  0.1952  0.1044 -0.1438
   9823SM  H14B13224   7.265   6.817   4.405  1.8764  0.0368 -0.4993
   9823SM  H14C13225   7.339   6.976   4.417  0.2427  0.5326  0.6304
   9823SM   C1313226   7.305   6.744   4.658 -0.0146  0.4085 -0.1044
   9823SM  H13A13227   7.364   6.716   4.743  0.5196  0.8761 -0.3177
   9823SM  H13B13228   7.271   6.657   4.604  1.4687 -0.2450 -0.0266
   9823SM  H13C13229   7.215   6.786   4.702 -0.8712 -0.1901 -1.2382
   9823SM   C1213230   7.433   6.952   4.669 -1.0084 -0.3130 -0.8087
   9823SM  H12A13231   7.501   6.903   4.737 -0.4796 -2.0230 -2.4965
   9823SM  H12B13232   7.352   7.006   4.716  1.3838  0.0737  3.3613
   9823SM   C1113233   7.505   7.064   4.593  0.2749  0.4412 -0.8755
   9823SM  H11A13234   7.566   7.018   4.512  0.0853 -2.1675  0.3885
   9823SM  H11B13235   7.562   7.120   4.671  1.3204  0.9581 -1.9789
   9823SM     P13236   7.380   7.297   4.581  0.2810 -0.4376 -0.0902
   9823SM   O1313237   7.495   7.384   4.544  0.4797 -0.5876 -0.0813
   9823SM   O1413238   7.248   7.334   4.526 -0.3331  0.3461  0.0230
   9823SM   O1113239   7.375   7.285   4.738  0.8385  0.4570  0.0947
   9823SM   O1213240   7.416   7.153   4.531 -0.1149  0.0079 -0.2703
   9823SM   C1S13241   7.351   7.393   4.825  0.2910 -0.1067  0.4610
   9823SM   H1S13242   7.242   7.409   4.808  0.1770 -0.5213  0.7784
   9823SM   H1T13243   7.396   7.487   4.786  0.4041 -0.7839 -1.0944
   9823SM    NF13244   7.283   7.444   5.060  0.1380  0.0984  0.0877
   9823SM   HNF13245   7.341   7.491   5.126  0.0593 -0.8923  0.8781
   9823SM   C2S13246   7.364   7.354   4.975 -0.2615 -0.7600  0.2195
   9823SM   H2S13247   7.321   7.252   4.984  0.0262 -0.8715  0.3765
   9823SM   C3S13248   7.513   7.343   5.012 -0.4299 -0.2759  0.9759
   9823SM   H3S13249   7.544   7.448   5.032  0.9183 -0.4672 -0.0245
   9823SM    O313250   7.597   7.289   4.913 -0.2342  0.1188 -1.0473
   9823SM   HO313251   7.532   7.282   4.842 -0.1303  1.1899 -1.2612
   9823SM   C4S13252   7.535   7.259   5.136 -0.7117 -0.2856  0.1550
   9823SM   H4S13253   7.587   7.316   5.214  1.5258  0.2247 -1.5839
   9823SM   C5S13254   7.511   7.126   5.153 -0.4447 -0.4309  0.4874
   9823SM   H5S13255   7.463   7.067   5.074  0.7197  0.1570 -0.7027
   9823SM   C6S13256   7.542   7.053   5.277 -1.0108 -0.4235 -0.4027
   9823SM   H6S13257   7.617   6.973   5.258 -0.6339 -0.2768  0.4179
   9823SM   H6T13258   7.442   7.004   5.289 -0.9696 -1.2111 -2.7117
   9823SM   C7S13259   7.581   7.136   5.400 -0.0090 -0.4470  0.0596
   9823SM   H7S13260   7.502   7.207   5.431 -2.2475 -1.5495 -2.6942
   9823SM   H7T13261   7.670   7.196   5.373 -1.3184  1.1895 -0.7745
   9823SM   C8S13262   7.608   7.056   5.524  0.1479  0.2803  0.0695
   9823SM   H8S13263   7.704   7.002   5.507  0.1721  0.7013 -1.1836
   9823SM   H8T13264   7.533   6.981   5.556 -1.6610  1.8791 -0.2224
   9823SM   C9S13265   7.630   7.146   5.650  0.0948 -0.4045  0.0158
   9823SM   H9S13266   7.526   7.182   5.667 -0.2019 -0.9667 -0.5609
   9823SM   H9T13267   7.704   7.227   5.632 -1.0360  0.2472 -2.1161
   9823SM  C10S13268   7.691   7.082   5.777 -0.2745  0.5694  0.9399
   9823SM  H10S13269   7.799   7.077   5.753 -0.5611 -0.4797 -0.2829
   9823SM  H10T13270   7.662   6.975   5.785 -0.6430  0.4083 -1.5561
   9823SM  C11S13271   7.658   7.147   5.901  0.2350 -0.2736 -0.2165
   9823SM  H11S13272   7.550   7.134   5.926  0.0924  2.5729  1.0462
   9823SM  H11T13273   7.672   7.256   5.882 -0.5255 -0.1809 -0.2818
   9823SM  C12S13274   7.758   7.112   6.008 -0.7286  0.3937  0.1061
   9823SM  H12S13275   7.852   7.167   5.986 -1.0137  1.3336  1.1333
   9823SM  H12T13276   7.786   7.006   5.994 -2.0899  0.1919 -1.3533
   9823SM  C13S13277   7.739   7.151   6.154 -0.4493 -0.1478 -0.0886
   9823SM  H13S13278   7.646   7.109   6.200 -0.0831 -0.0127  0.7904
   9823SM  H13T13279   7.733   7.262   6.162 -1.0002 -0.2627  1.2023
   9823SM  C14S13280   7.860   7.106   6.235  0.0227 -0.3927  0.5977
   9823SM  H14S13281   7.859   7.162   6.330 -2.4530 -0.7309  0.8350
   9823SM  H14T13282   7.959   7.122   6.188  0.3026 -2.3185  0.4249
   9823SM  C15S13283   7.859   6.951   6.267  0.1947  0.5066 -0.4675
   9823SM  H15S13284   7.865   6.906   6.166  0.8291  0.4435 -0.4012
   9823SM  H15T13285   7.767   6.922   6.322 -0.0424 -0.7261 -1.4721
   9823SM  C16S13286   7.980   6.903   6.354  0.8137 -0.2593 -0.4890
   9823SM  H16S13287   7.996   6.970   6.440 -0.4434 -1.4253  0.7068
   9823SM  H16T13288   8.073   6.912   6.295  1.9854 -0.7104  1.2370
   9823SM  C17S13289   7.961   6.761   6.408 -0.2111 -0.2585 -0.5509
   9823SM  H17S13290   8.062   6.739   6.448  0.4215  0.1503 -1.8859
   9823SM  H17T13291   7.951   6.691   6.322 -0.4588 -0.2545 -0.5281
   9823SM  C18S13292   7.853   6.744   6.508 -0.0943 -0.1229 -0.1424
   9823SM  H18S13293   7.748   6.767   6.479 -0.4663 -2.1555 -0.5865
   9823SM  H18T13294   7.861   6.812   6.595  0.4781 -1.0206  0.5242
   9823SM  H18U13295   7.852   6.637   6.538 -0.1958 -0.7244 -2.1239
   9823SM   C1F13296   7.149   7.448   5.066  0.2134  0.0286 -0.0009
   9823SM    OF13297   7.079   7.391   4.984 -0.1775 -0.9034 -0.5661
   9823SM   C2F13298   7.107   7.519   5.181 -0.4399  0.0264 -0.6612
   9823SM   H2F13299   7.118   7.627   5.160 -0.3799  0.4755  1.4942
   9823SM   H2G13300   7.166   7.491   5.270  1.0075  0.5087 -1.4384
   9823SM   C3F13301   6.955   7.490   5.227 -0.3046  0.0844 -0.1040
   9823SM   H3F13302   6.939   7.381   5.239  2.1387 -0.6072 -2.1106
   9823SM   H3G13303   6.871   7.523   5.162 -1.7612 -1.9371  0.6588
   9823SM   C4F13304   6.923   7.570   5.351  0.2356  0.2479 -0.2999
   9823SM   H4F13305   6.928   7.677   5.322 -1.2294  0.8510  1.4664
   9823SM   H4G13306   7.000   7.557   5.430  0.4594  0.0474 -0.5492
   9823SM   C5F13307   6.789   7.539   5.419  0.0517 -0.2978 -0.3926
   9823SM   H5F13308   6.706   7.578   5.356  1.2116  2.5469 -0.3367
   9823SM   H5G13309   6.793   7.604   5.509  0.6611 -0.2987 -0.4085
   9823SM   C6F13310   6.754   7.395   5.462 -0.5407  0.1929 -0.3371
   9823SM   H6F13311   6.734   7.330   5.374 -3.8901  0.2292  0.2679
   9823SM   H6G13312   6.653   7.406   5.507 -0.5533 -0.5949 -0.1418
   9823SM   C7F13313   6.862   7.315   5.540  0.2152 -0.5869 -0.3500
   9823SM   H7F13314   6.945   7.286   5.472 -0.6645 -0.2383 -1.5975
   9823SM   H7G13315   6.820   7.222   5.585  3.8976 -2.1541  0.2456
   9823SM   C8F13316   6.920   7.392   5.665 -0.2134  0.4957  0.8315
   9823SM   H8F13317   6.944   7.496   5.634 -0.4336 -0.2419 -2.1380
   9823SM   H8G13318   7.016   7.337   5.680 -1.2474 -1.0878  2.0105
   9823SM   C9F13319   6.845   7.374   5.799 -0.5222  0.1915 -0.1995
   9823SM   H9F13320   6.825   7.268   5.822 -2.1829  1.0374  2.7578
   9823SM   H9G13321   6.743   7.418   5.804 -0.0270  1.5000 -0.9170
   9823SM  C10F13322   6.929   7.430   5.912  0.4178 -0.6542 -0.4702
   9823SM  H10F13323   6.964   7.533   5.890  2.0912 -1.1083 -0.0876
   9823SM  H10G13324   7.025   7.374   5.920  1.4309  1.1598  0.7983
   9823SM  C11F13325   6.853   7.421   6.042 -0.1279  0.3078  0.1550
   9823SM  H11F13326   6.786   7.333   6.047 -1.7248  1.5451  1.3652
   9823SM  H11G13327   6.791   7.513   6.047  1.2749  1.2564  0.9081
   9823SM  C12F13328   6.939   7.413   6.168 -0.3236  0.3587 -0.4456
   9823SM  H12F13329   7.028   7.476   6.148 -1.3066  2.4780  1.4792
   9823SM  H12G13330   6.977   7.309   6.182 -0.9742  0.1671 -0.0396
   9823SM  C13F13331   6.868   7.455   6.299  0.1502  0.8331 -0.0820
   9823SM  H13F13332   6.781   7.389   6.321 -0.3285  0.0605 -3.6563
   9823SM  H13G13333   6.831   7.559   6.287  2.0362  1.9439  2.6095
   9823SM  C14F13334   6.965   7.454   6.423 -0.3793  0.4028  0.4958
   9823SM  H14F13335   7.058   7.508   6.395  0.0447 -1.6956 -2.7983
   9823SM  H14G13336   6.999   7.351   6.446  1.5230  0.7137 -0.6522
   9823SM  C15F13337   6.910   7.533   6.546  0.2317 -0.3643  0.2535
   9823SM  H15F13338   6.912   7.635   6.503  0.0592  0.0535  1.2170
   9823SM  H15G13339   6.984   7.530   6.629  1.8354 -1.4102 -1.1493
   9823SM  C16F13340   6.773   7.491   6.590  0.1926 -0.6444 -0.3523
   9823SM  H16F13341   6.701   7.510   6.507  0.1673  0.3685 -0.1125
   9823SM  H16G13342   6.744   7.556   6.676 -0.0230  2.4651 -2.5819
   9823SM  C17F13343   6.756   7.342   6.631  0.0900  0.3843  0.2549
   9823SM  H17F13344   6.841   7.313   6.697 -0.7722  0.7660  1.5596
   9823SM  H17G13345   6.771   7.281   6.539 -0.0721  1.0084 -0.1916
   9823SM  C18F13346   6.620   7.313   6.707  0.2552  0.2255  0.1132
   9823SM  H18F13347   6.613   7.368   6.803 -0.6782  0.2864  0.0129
   9823SM  H18G13348   6.609   7.205   6.732 -0.9693  0.7280  1.8958
   9823SM  C19F13349   6.498   7.360   6.611 -0.6305  0.1444  0.2336
   9823SM  H19F13350   6.524   7.286   6.532  0.2908 -0.8352  1.4231
   9823SM  H19G13351   6.513   7.465   6.578 -0.8424  0.1859  0.2656
   9823SM  C20F13352   6.361   7.339   6.671  0.3441  0.3061  0.7620
   9823SM  H20F13353   6.290   7.405   6.615 -0.9614 -1.7650 -0.1545
   9823SM  H20G13354   6.364   7.377   6.775  1.2838  1.2806  0.3958
   9823SM  C21F13355   6.317   7.193   6.670 -0.0326 -0.1263  0.2927
   9823SM  H21F13356   6.401   7.134   6.713  1.4332  0.7248 -1.2820
   9823SM  H21G13357   6.310   7.166   6.563 -2.2573  0.4433  0.2464
   9823SM  C22F13358   6.183   7.160   6.741 -0.4129 -0.2864 -0.2388
   9823SM  H22F13359   6.102   7.228   6.707 -1.0245 -1.2082 -0.6615
   9823SM  H22G13360   6.187   7.191   6.848 -1.5683 -1.0317  0.0411
   9823SM  C23F13361   6.132   7.015   6.728 -0.6989  0.7271  0.5339
   9823SM  H23F13362   6.213   6.944   6.755 -1.5478 -0.2205  0.6717
   9823SM  H23G13363   6.116   6.985   6.622 -1.8400  2.4041  0.1831
   9823SM  H23H13364   6.034   6.993   6.777 -0.4879  0.2142  0.7258
   9923SM     N13365   0.302   0.496   4.417  0.7717 -0.5825 -0.2947
   9923SM   C1513366   0.366   0.476   4.549  0.2138 -0.3441  0.3083
   9923SM  H15A13367   0.431   0.390   4.544 -0.0642 -0.5099 -2.7884
   9923SM  H15B13368   0.287   0.455   4.619 -0.0802 -1.2530 -0.2828
   9923SM  H15C13369   0.421   0.566   4.574 -0.8472  1.1105 -2.2149
   9923SM   C1413370   0.252   0.364   4.366 -1.2139 -0.3175 -0.0437
   9923SM  H14A13371   0.331   0.294   4.344 -2.0320 -1.3293  0.1439
   9923SM  H14B13372   0.205   0.378   4.269 -0.5431 -1.4218 -0.5522
   9923SM  H14C13373   0.173   0.331   4.432 -0.9381  1.1372  1.0511
   9923SM   C1313374   0.177   0.580   4.428 -0.0056  0.0068  0.0787
   9923SM  H13A13375   0.135   0.604   4.332  0.9281 -1.7904 -0.8261
   9923SM  H13B13376   0.188   0.671   4.486 -0.1730  0.3294 -0.3927
   9923SM  H13C13377   0.104   0.529   4.490  0.2678 -1.9022 -1.0936
   9923SM   C1213378   0.392   0.570   4.327  0.4114 -0.3578  0.4343
   9923SM  H12A13379   0.356   0.541   4.229  0.8605  1.0041 -0.1503
   9923SM  H12B13380   0.491   0.529   4.338  0.8411  0.6944  0.6174
   9923SM   C1113381   0.400   0.720   4.329 -0.2766  0.2859 -0.6777
   9923SM  H11A13382   0.307   0.778   4.311 -1.0195 -0.6411  0.0556
   9923SM  H11B13383   0.458   0.753   4.240 -2.1841  1.4115 -1.5576
   9923SM     P13384   0.621   0.761   4.441  0.1059  0.0771 -0.0056
   9923SM   O1313385   0.667   0.631   4.393 -0.7122  0.6666 -0.0329
   9923SM   O1413386   0.660   0.891   4.376 -0.2049  0.5258 -0.0908
   9923SM   O1113387   0.674   0.771   4.587 -0.9458  0.1141  0.1354
   9923SM   O1213388   0.459   0.766   4.457 -0.4314  0.6364  0.0920
   9923SM   C1S13389   0.640   0.874   4.678  0.5633  0.6522  0.6652
   9923SM   H1S13390   0.570   0.947   4.632  1.0884  0.3941 -0.6021
   9923SM   H1T13391   0.730   0.936   4.698  0.3966  1.0871  0.0978
   9923SM    NF13392   0.552   0.925   4.903 -0.6826 -0.2434 -0.1540
   9923SM   HNF13393   0.618   0.924   4.978 -0.7458  2.2190 -0.0051
   9923SM   C2S13394   0.571   0.821   4.805  0.1276  0.4483 -0.2325
   9923SM   H2S13395   0.472   0.781   4.775 -0.0133 -1.1124  2.0817
   9923SM   C3S13396   0.636   0.696   4.873 -0.4863  0.1412 -0.4355
   9923SM   H3S13397   0.737   0.721   4.912  0.2836  0.0730 -2.2843
   9923SM    O313398   0.667   0.589   4.786  0.0473  0.2542 -0.0574
   9923SM   HO313399   0.673   0.628   4.699 -2.8928 -1.6664 -1.2946
   9923SM   C4S13400   0.559   0.634   4.990  0.3841  0.5179  0.7539
   9923SM   H4S13401   0.478   0.564   4.964  0.4049  0.2556  1.3851
   9923SM   C5S13402   0.591   0.657   5.116 -0.5266  0.5820  0.0896
   9923SM   H5S13403   0.679   0.720   5.140 -0.5629  1.1948 -1.3182
   9923SM   C6S13404   0.532   0.587   5.232 -0.6816  0.1099 -0.1899
   9923SM   H6S13405   0.428   0.551   5.220  0.3465 -3.3888  0.4356
   9923SM   H6T13406   0.531   0.657   5.318 -0.3071 -1.0935  0.8290
   9923SM   C7S13407   0.617   0.469   5.264  0.1909 -0.3053  0.4399
   9923SM   H7S13408   0.609   0.391   5.185  1.4469  0.8910 -0.9448
   9923SM   H7T13409   0.576   0.426   5.358  1.0013 -2.0970  0.0118
   9923SM   C8S13410   0.763   0.486   5.288 -0.3037  0.1487  0.9896
   9923SM   H8S13411   0.823   0.493   5.194  0.8634 -1.3295  1.5690
   9923SM   H8T13412   0.805   0.398   5.341  1.5307  0.0190 -0.5260
   9923SM   C9S13413   0.800   0.606   5.374 -0.0341  0.1147  0.4871
   9923SM   H9S13414   0.740   0.595   5.467  0.4900 -2.5880  0.5811
   9923SM   H9T13415   0.774   0.708   5.339  2.5240  0.7212  0.1251
   9923SM  C10S13416   0.952   0.631   5.391  0.1801 -0.0703  0.7603
   9923SM  H10S13417   0.975   0.728   5.441 -1.3947  0.1978  1.0343
   9923SM  H10T13418   0.996   0.641   5.290  2.6435 -2.6306  1.4570
   9923SM  C11S13419   1.022   0.520   5.469  0.7395  1.1040  0.5001
   9923SM  H11S13420   0.990   0.421   5.432 -0.7240  1.6329  0.2597
   9923SM  H11T13421   0.983   0.528   5.573  0.6235  0.1874  0.5285
   9923SM  C12S13422   1.173   0.512   5.451 -0.4402  1.1565  0.3189
   9923SM  H12S13423   1.199   0.503   5.343  0.5570 -0.3487  0.6540
   9923SM  H12T13424   1.207   0.421   5.506  0.6415  2.0082  1.1117
   9923SM  C13S13425   1.238   0.629   5.509 -0.0739  0.2930 -0.0556
   9923SM  H13S13426   1.207   0.641   5.616  0.6837  1.0985  0.0899
   9923SM  H13T13427   1.202   0.722   5.459 -0.9939  0.3047  0.6002
   9923SM  C14S13428   1.392   0.619   5.492 -0.6859  0.0211 -0.7037
   9923SM  H14S13429   1.418   0.630   5.384  1.8167  0.9174 -0.0827
   9923SM  H14T13430   1.412   0.515   5.526 -0.5139  0.7949  1.7541
   9923SM  C15S13431   1.475   0.708   5.584  0.0936 -0.2296 -0.1383
   9923SM  H15S13432   1.441   0.689   5.689 -0.0538 -3.6223 -0.6757
   9923SM  H15T13433   1.462   0.818   5.574  0.4713  0.1356  2.4796
   9923SM  C16S13434   1.625   0.677   5.579  0.4621 -0.6109 -0.0712
   9923SM  H16S13435   1.673   0.700   5.481  1.8715  1.3276  1.0180
   9923SM  H16T13436   1.633   0.570   5.608  0.1895 -0.5037  0.4062
   9923SM  C17S13437   1.693   0.742   5.698  0.2720  0.1032 -0.2860
   9923SM  H17S13438   1.652   0.689   5.787 -1.0837 -1.6865 -1.8884
   9923SM  H17T13439   1.661   0.847   5.711 -1.1938 -0.4538  0.9714
   9923SM  C18S13440   1.844   0.724   5.681  0.3618  0.9148  0.1202
   9923SM  H18S13441   1.897   0.756   5.774  0.7476 -0.0221  0.2283
   9923SM  H18T13442   1.883   0.773   5.589  0.0235  0.1297 -0.4463
   9923SM  H18U13443   1.851   0.616   5.657  0.1197 -0.0667  3.8107
   9923SM   C1F13444   0.479   1.031   4.893  1.1639  0.6231 -0.1667
   9923SM    OF13445   0.405   1.037   4.795  0.3110 -0.0768 -0.4279
   9923SM   C2F13446   0.486   1.133   5.001  0.8456 -0.2248 -0.1343
   9923SM   H2F13447   0.590   1.170   4.989  1.4751 -2.2370 -1.4586
   9923SM   H2G13448   0.485   1.089   5.104 -0.2907  4.2460  2.0119
   9923SM   C3F13449   0.371   1.239   4.998 -0.5516  0.3500 -0.2809
   9923SM   H3F13450   0.271   1.190   4.997  0.3002 -1.5137  0.3516
   9923SM   H3G13451   0.378   1.296   4.902  1.0790 -1.5960 -1.4132
   9923SM   C4F13452   0.377   1.336   5.116 -0.5428  0.1183  0.1386
   9923SM   H4F13453   0.307   1.421   5.104  0.0420  0.4611 -0.9204
   9923SM   H4G13454   0.481   1.375   5.118 -0.2575 -0.6282  0.3558
   9923SM   C5F13455   0.368   1.281   5.256 -0.3516  0.4216 -0.7614
   9923SM   H5F13456   0.452   1.215   5.287 -0.3290 -0.9016 -3.3669
   9923SM   H5G13457   0.280   1.213   5.264  0.1474 -0.0615  1.4331
   9923SM   C6F13458   0.361   1.382   5.367 -0.6704  0.3831 -0.0138
   9923SM   H6F13459   0.275   1.449   5.346 -1.2906 -0.2585  0.4341
   9923SM   H6G13460   0.449   1.450   5.364  1.0345 -1.7238 -1.6359
   9923SM   C7F13461   0.338   1.313   5.504 -0.2063 -0.2986 -0.1058
   9923SM   H7F13462   0.436   1.262   5.518 -0.2428 -0.3956 -0.2026
   9923SM   H7G13463   0.274   1.224   5.487  0.1525 -0.3422 -1.2872
   9923SM   C8F13464   0.307   1.399   5.624  0.5985 -0.1395  0.3315
   9923SM   H8F13465   0.218   1.463   5.606  1.3211  0.6770 -0.4367
   9923SM   H8G13466   0.389   1.472   5.639  1.7829 -0.7524 -2.4758
   9923SM   C9F13467   0.290   1.320   5.749  1.2677 -0.3006  0.1307
   9923SM   H9F13468   0.371   1.251   5.779 -0.1844 -1.7691  0.8669
   9923SM   H9G13469   0.193   1.265   5.752  1.3724 -0.4653  1.9217
   9923SM  C10F13470   0.301   1.414   5.877  0.2577 -0.1280  0.7976
   9923SM  H10F13471   0.378   1.492   5.860 -0.6132  0.8669  1.3289
   9923SM  H10G13472   0.317   1.356   5.971 -0.6647 -1.2849  0.2722
   9923SM  C11F13473   0.176   1.492   5.919 -0.8842 -0.5441  0.9665
   9923SM  H11F13474   0.080   1.437   5.927 -1.3991 -0.1895 -1.7938
   9923SM  H11G13475   0.162   1.558   5.830 -0.6212 -2.4899 -0.5700
   9923SM  C12F13476   0.195   1.579   6.046 -0.0157 -0.1162 -0.5237
   9923SM  H12F13477   0.298   1.617   6.055  0.0288 -0.5251  1.1174
   9923SM  H12G13478   0.172   1.517   6.136  2.0218 -1.6480 -0.9946
   9923SM  C13F13479   0.081   1.685   6.056  0.0992  0.6090  0.3694
   9923SM  H13F13480  -0.012   1.624   6.063 -0.1349  0.8812 -0.2203
   9923SM  H13G13481   0.058   1.755   5.972 -3.8802 -1.3716 -0.4778
   9923SM  C14F13482   0.093   1.768   6.182  0.1378 -0.4298 -0.0690
   9923SM  H14F13483   0.190   1.819   6.199 -1.0678  1.5504  1.3934
   9923SM  H14G13484   0.070   1.714   6.276  1.0431  1.7550  1.5048
   9923SM  C15F13485  -0.006   1.884   6.193 -0.1409 -0.1021 -0.9017
   9923SM  H15F13486  -0.105   1.834   6.189 -1.6671  2.7717 -1.1698
   9923SM  H15G13487   0.013   1.951   6.107 -0.0785  0.9539 -0.0801
   9923SM  C16F13488  -0.006   1.959   6.323  0.3956 -0.1523 -0.5639
   9923SM  H16F13489   0.098   1.995   6.342  0.5323 -2.1214  3.3350
   9923SM  H16G13490  -0.027   1.882   6.399  3.4371 -0.9800 -0.4368
   9923SM  C17F13491  -0.115   2.071   6.333 -0.4247  0.0626  0.0645
   9923SM  H17F13492  -0.209   2.026   6.293 -0.5690 -0.5587  1.0693
   9923SM  H17G13493  -0.079   2.160   6.276  3.2134 -0.3397  1.4872
   9923SM  C18F13494  -0.133   2.110   6.481  0.6828  1.1337 -0.3599
   9923SM  H18F13495  -0.037   2.155   6.513  1.0373 -0.6361  1.2194
   9923SM  H18G13496  -0.151   2.020   6.543 -0.7495  2.1612  0.7757
   9923SM  C19F13497  -0.255   2.193   6.509 -0.4044 -0.0555  1.2402
   9923SM  H19F13498  -0.346   2.141   6.472  0.7114 -0.3721 -1.2826
   9923SM  H19G13499  -0.241   2.277   6.438 -0.1207  0.8430  2.3355
   9923SM  C20F13500  -0.258   2.241   6.652  0.5004  0.4849 -0.6359
   9923SM  H20F13501  -0.168   2.296   6.687 -1.1885  2.8831  0.1860
   9923SM  H20G13502  -0.283   2.153   6.716  2.9389  0.5602  0.5524
   9923SM  C21F13503  -0.363   2.354   6.676  0.1729  0.1220  0.5342
   9923SM  H21F13504  -0.460   2.308   6.648  0.8180 -0.7567 -0.3254
   9923SM  H21G13505  -0.344   2.443   6.612 -0.2487  0.6999  1.1894
   9923SM  C22F13506  -0.360   2.396   6.815  0.1495  0.0493 -0.4480
   9923SM  H22F13507  -0.269   2.450   6.847  0.6741 -0.6332 -0.7659
   9923SM  H22G13508  -0.355   2.310   6.885  0.5909  1.1789  0.9433
   9923SM  C23F13509  -0.484   2.475   6.847  0.5880  0.1629 -0.1190
   9923SM  H23F13510  -0.496   2.489   6.957 -2.3401  2.7496 -0.6519
   9923SM  H23G13511  -0.570   2.411   6.817 -0.2723  0.7128  1.0886
   9923SM  H23H13512  -0.488   2.572   6.794 -0.5124 -0.0397 -0.4430
  10023SM     N13513   0.346   1.681   4.642 -0.3245 -0.3779  0.5651
  10023SM   C1513514   0.271   1.817   4.633 -0.4906 -0.7732 -0.6678
  10023SM  H15A13515   0.329   1.884   4.571 -1.0469 -0.0924 -0.4642
  10023SM  H15B13516   0.256   1.869   4.726 -1.4614  0.2680 -1.3844
  10023SM  H15C13517   0.173   1.805   4.589 -1.3121 -1.3927  1.2148
  10023SM   C1413518   0.273   1.602   4.741 -0.0650  0.3143 -0.0309
  10023SM  H14A13519   0.286   1.644   4.839 -0.6593 -0.3702  0.3548
  10023SM  H14B13520   0.314   1.502   4.739  0.4768  0.5340  0.1020
  10023SM  H14C13521   0.168   1.603   4.716  0.0219  0.2622 -0.4092
  10023SM   C1313522   0.327   1.613   4.506  0.1999  0.0085 -0.0888
  10023SM  H13A13523   0.222   1.592   4.491 -0.2191 -0.0885  2.5046
  10023SM  H13B13524   0.392   1.527   4.508 -0.4534 -0.5313 -1.1535
  10023SM  H13C13525   0.353   1.686   4.431  0.4411  1.0925  1.0241
  10023SM   C1213526   0.491   1.697   4.674  0.2960 -0.3987 -0.0791
  10023SM  H12A13527   0.526   1.598   4.699  1.4654  0.5966  2.5979
  10023SM  H12B13528   0.491   1.748   4.769 -2.1641 -2.0863  0.9400
  10023SM   C1113529   0.588   1.767   4.574  0.2581  0.4503  0.2647
  10023SM  H11A13530   0.610   1.693   4.494 -2.3515  0.1970 -0.3180
  10023SM  H11B13531   0.686   1.785   4.623  0.0314  1.7254  0.2891
  10023SM     P13532   0.617   2.008   4.481  0.5559 -0.3480  0.5583
  10023SM   O1313533   0.733   1.965   4.399  0.4722 -0.6577  0.2487
  10023SM   O1413534   0.539   2.119   4.429 -0.2493  0.0329  0.0881
  10023SM   O1113535   0.668   2.051   4.624 -0.2777 -0.5584  0.4555
  10023SM   O1213536   0.529   1.879   4.503 -0.5690  0.1268 -0.2528
  10023SM   C1S13537   0.566   2.095   4.711 -0.6018 -0.0192 -0.2454
  10023SM   H1S13538   0.468   2.043   4.700 -1.6384  1.6395  0.7180
  10023SM   H1T13539   0.535   2.198   4.685 -1.6472 -0.2275  0.1456
  10023SM    NF13540   0.487   2.116   4.945  0.0020  0.3765 -0.1359
  10023SM   HNF13541   0.492   2.204   4.991  0.1074  1.1853 -1.6404
  10023SM   C2S13542   0.600   2.078   4.861 -1.1920  0.5299  0.6023
  10023SM   H2S13543   0.625   1.971   4.877  0.2098  0.8303  0.5281
  10023SM   C3S13544   0.725   2.161   4.888 -0.4157 -0.0766  0.8465
  10023SM   H3S13545   0.694   2.266   4.870 -2.8919 -0.8117  0.4368
  10023SM    O313546   0.841   2.147   4.799 -0.5575  0.1398  0.0720
  10023SM   HO313547   0.799   2.104   4.724 -1.5044 -0.7735  1.0866
  10023SM   C4S13548   0.765   2.150   5.034  0.5742  0.2170 -0.0019
  10023SM   H4S13549   0.722   2.236   5.089 -2.5513 -1.2145  0.0489
  10023SM   C5S13550   0.852   2.064   5.093  0.4428  0.2736 -0.0313
  10023SM   H5S13551   0.905   1.990   5.030 -0.3123  1.1407 -1.7268
  10023SM   C6S13552   0.910   2.081   5.232 -0.3246  0.0129  0.5113
  10023SM   H6S13553   0.991   2.157   5.233  0.2342 -0.5379 -1.0108
  10023SM   H6T13554   0.961   1.986   5.258  1.5480 -0.0567 -2.8688
  10023SM   C7S13555   0.812   2.111   5.349 -0.2398 -0.3165  0.7205
  10023SM   H7S13556   0.737   2.030   5.353  0.1393 -0.8412 -1.4249
  10023SM   H7T13557   0.758   2.204   5.320 -0.0707 -0.7229 -1.0444
  10023SM   C8S13558   0.867   2.138   5.487  0.1026  0.2359  0.1084
  10023SM   H8S13559   0.931   2.228   5.480  0.9997 -0.3954  0.1165
  10023SM   H8T13560   0.921   2.047   5.519 -0.6350  0.1882  1.2604
  10023SM   C9S13561   0.753   2.156   5.588  0.0824  0.6495  0.1778
  10023SM   H9S13562   0.667   2.091   5.558 -0.6936  2.6972 -2.4645
  10023SM   H9T13563   0.713   2.259   5.585 -0.8355  0.2794 -1.2894
  10023SM  C10S13564   0.774   2.120   5.734  0.5615  0.0637  0.1727
  10023SM  H10S13565   0.688   2.163   5.790  0.1166  3.5529 -2.8327
  10023SM  H10T13566   0.869   2.161   5.773 -0.0155  0.0957  1.6421
  10023SM  C11S13567   0.776   1.969   5.763 -0.2874  1.2742 -0.6682
  10023SM  H11S13568   0.869   1.923   5.722 -0.3890  1.3924 -1.0310
  10023SM  H11T13569   0.681   1.927   5.724  1.0447 -0.7167 -1.9979
  10023SM  C12S13570   0.779   1.933   5.918 -0.0406 -0.2702 -0.2858
  10023SM  H12S13571   0.722   2.017   5.964 -0.9247 -0.6926 -0.5890
  10023SM  H12T13572   0.880   1.938   5.963  0.2620  1.4582 -1.0846
  10023SM  C13S13573   0.706   1.800   5.945 -0.4802  0.8879  0.2090
  10023SM  H13S13574   0.762   1.731   5.878 -0.2279  2.1368 -0.8955
  10023SM  H13T13575   0.601   1.816   5.913  1.1056  3.3574 -4.6168
  10023SM  C14S13576   0.716   1.759   6.094  0.2264 -1.1317 -0.4944
  10023SM  H14S13577   0.708   1.842   6.167  2.6531 -1.7918  0.6196
  10023SM  H14T13578   0.820   1.723   6.108  1.4725  2.1341 -0.6056
  10023SM  C15S13579   0.636   1.630   6.114 -0.2172 -0.6427  0.2489
  10023SM  H15S13580   0.670   1.557   6.037  0.1577 -0.8590  0.6127
  10023SM  H15T13581   0.533   1.652   6.081 -0.3491 -0.1523  0.9706
  10023SM  C16S13582   0.656   1.571   6.251  0.2808  0.5143 -0.1559
  10023SM  H16S13583   0.625   1.641   6.331  0.3208 -0.2772  0.5686
  10023SM  H16T13584   0.761   1.539   6.267  0.4935  0.6016 -1.3023
  10023SM  C17S13585   0.581   1.434   6.259 -0.4580  1.1973  0.2492
  10023SM  H17S13586   0.624   1.361   6.187  1.7512  2.8733 -0.2254
  10023SM  H17T13587   0.472   1.445   6.238 -0.3637  1.3629 -0.1529
  10023SM  C18S13588   0.594   1.372   6.396  0.0249 -0.1397 -0.3336
  10023SM  H18S13589   0.525   1.434   6.457 -0.3505 -0.1195 -0.7704
  10023SM  H18T13590   0.694   1.385   6.443 -1.1334  2.6873  1.6076
  10023SM  H18U13591   0.569   1.263   6.399 -2.8429  0.4641  1.6199
  10023SM   C1F13592   0.370   2.054   4.941  0.4681 -0.5522 -0.6324
  10023SM    OF13593   0.354   1.950   4.882 -0.0070 -0.1923  0.0105
  10023SM   C2F13594   0.254   2.115   5.020 -0.6523  0.1265  0.4509
  10023SM   H2F13595   0.167   2.097   4.953 -0.5335 -4.1367  1.1756
  10023SM   H2G13596   0.266   2.224   5.042  0.5569 -0.0457  0.6814
  10023SM   C3F13597   0.230   2.023   5.142  0.3299 -0.2105 -0.4677
  10023SM   H3F13598   0.222   1.919   5.102  3.3450 -0.6212 -0.2319
  10023SM   H3G13599   0.138   2.055   5.197  0.9398  1.4538 -0.3736
  10023SM   C4F13600   0.341   2.025   5.251  0.1701 -0.1070 -0.1886
  10023SM   H4F13601   0.436   2.004   5.198  1.1489  2.5370  0.3458
  10023SM   H4G13602   0.322   1.936   5.315  0.6747 -0.1672 -0.1219
  10023SM   C5F13603   0.355   2.147   5.349  0.3239 -0.5240 -0.0140
  10023SM   H5F13604   0.378   2.245   5.301 -1.4907  0.4941  1.0788
  10023SM   H5G13605   0.436   2.144   5.425 -0.2043  2.1839  0.7487
  10023SM   C6F13606   0.231   2.165   5.442 -0.0930 -0.7239  0.4601
  10023SM   H6F13607   0.199   2.067   5.483 -0.3018 -0.4838  0.8816
  10023SM   H6G13608   0.145   2.202   5.383 -1.0455 -1.3220  1.4324
  10023SM   C7F13609   0.251   2.267   5.552  1.3106  0.7445  0.3757
  10023SM   H7F13610   0.209   2.367   5.527 -1.5353 -0.5516 -0.4370
  10023SM   H7G13611   0.358   2.297   5.555  1.0510  1.7672 -0.0723
  10023SM   C8F13612   0.192   2.222   5.682 -0.6592 -0.3234 -0.2357
  10023SM   H8F13613   0.245   2.133   5.723 -1.4330 -0.4574  0.4924
  10023SM   H8G13614   0.092   2.185   5.654 -0.5669  0.5534 -1.8362
  10023SM   C9F13615   0.169   2.358   5.767 -0.3014  0.4018 -0.1392
  10023SM   H9F13616   0.086   2.412   5.718 -1.1023 -2.4446 -2.2372
  10023SM   H9G13617   0.262   2.419   5.766 -0.8390  1.2338 -1.1688
  10023SM  C10F13618   0.132   2.322   5.906  0.4281 -0.5560  0.2841
  10023SM  H10F13619   0.223   2.268   5.941  1.9550  0.1646 -2.3404
  10023SM  H10G13620   0.041   2.258   5.904 -0.9950  1.2398  2.5311
  10023SM  C11F13621   0.098   2.441   5.998  0.3078 -0.2183 -0.2087
  10023SM  H11F13622   0.004   2.480   5.952  0.6694  0.4414 -0.3991
  10023SM  H11G13623   0.176   2.519   6.003  1.2104 -1.1593  1.2557
  10023SM  C12F13624   0.069   2.401   6.142  0.5937  0.0990 -0.2412
  10023SM  H12F13625   0.151   2.330   6.166 -1.0918 -1.6695  0.5565
  10023SM  H12G13626  -0.020   2.335   6.141  1.9267 -1.7563 -1.2690
  10023SM  C13F13627   0.051   2.517   6.245 -0.5206 -0.1667 -0.3843
  10023SM  H13F13628  -0.034   2.581   6.213 -0.1177  0.3091 -0.5068
  10023SM  H13G13629   0.147   2.573   6.246 -1.5156  1.6059 -0.3837
  10023SM  C14F13630   0.018   2.470   6.385  0.0812 -0.2918  0.7506
  10023SM  H14F13631   0.089   2.392   6.420  0.5368  0.6363  1.9952
  10023SM  H14G13632  -0.086   2.429   6.385 -0.0019 -0.3648 -2.8343
  10023SM  C15F13633   0.035   2.582   6.487  0.2165 -0.8302 -0.2778
  10023SM  H15F13634  -0.028   2.672   6.478  0.6743 -0.3753  0.8187
  10023SM  H15G13635   0.143   2.609   6.482 -0.2104  2.0602  2.7021
  10023SM  C16F13636   0.011   2.529   6.628 -0.1340  0.8137 -0.1039
  10023SM  H16F13637   0.077   2.444   6.651  1.1824  2.0826  0.9653
  10023SM  H16G13638  -0.098   2.512   6.644 -0.2735  2.2866  0.7295
  10023SM  C17F13639   0.053   2.637   6.727 -0.4881 -0.7948 -0.4919
  10023SM  H17F13640  -0.002   2.726   6.690 -0.0353  0.7014  2.1945
  10023SM  H17G13641   0.162   2.661   6.721 -0.5461 -0.5264 -0.5031
  10023SM  C18F13642  -0.017   2.618   6.864 -0.5102  0.4316  0.3038
  10023SM  H18F13643  -0.126   2.602   6.847  0.2453 -2.8326 -2.4655
  10023SM  H18G13644   0.009   2.704   6.930  2.7530  0.0727 -0.3763
  10023SM  C19F13645   0.032   2.486   6.938 -0.5991  0.0839  0.3096
  10023SM  H19F13646   0.055   2.408   6.863  1.0817  0.3747  0.4785
  10023SM  H19G13647  -0.043   2.444   7.008 -0.7788 -1.7944 -0.9490
  10023SM  C20F13648   0.164   2.513   7.016  0.0079  0.1425  0.2216
  10023SM  H20F13649   0.139   2.594   7.088  0.9133  1.8233 -1.2958
  10023SM  H20G13650   0.245   2.557   6.955  0.9901 -3.5374 -1.3850
  10023SM  C21F13651   0.215   2.388   7.085 -0.2574 -0.2897  0.4667
  10023SM  H21F13652   0.217   2.296   7.022 -0.0855 -0.6487  0.9870
  10023SM  H21G13653   0.145   2.372   7.169 -2.0202  1.9387 -0.4764
  10023SM  C22F13654   0.352   2.416   7.151  0.2864  0.2591 -0.4956
  10023SM  H22F13655   0.348   2.513   7.205 -1.5191 -0.3981  0.6430
  10023SM  H22G13656   0.421   2.426   7.064 -1.3478  2.8100 -1.6245
  10023SM  C23F13657   0.392   2.308   7.253 -0.3718 -0.3080  1.1920
  10023SM  H23F13658   0.347   2.216   7.210 -2.8095  0.6664  1.5063
  10023SM  H23G13659   0.363   2.336   7.357 -1.7295  2.0799  0.2555
  10023SM  H23H13660   0.503   2.305   7.260  0.2950  1.8918 -3.7747
  101CHL1    C313661   3.295   5.383   8.419  0.3167  0.0533  0.0217
  101CHL1    H313662   3.394   5.335   8.409  0.4407  0.5580 -1.2843
  101CHL1    O313663   3.247   5.349   8.551  0.1563  0.2445 -0.0953
  101CHL1   H3'13664   3.154   5.373   8.554  0.4022  1.1147  0.8246
  101CHL1    C413665   3.301   5.532   8.398  0.0351 -0.6036  0.5313
  101CHL1   H4A13666   3.201   5.581   8.389 -0.5614 -1.8061  0.4802
  101CHL1   H4B13667   3.348   5.573   8.490  0.9040 -0.7737  0.1698
  101CHL1    C513668   3.370   5.560   8.265  0.6000 -0.4171 -0.9299
  101CHL1    C613669   3.481   5.642   8.264  0.2138 -0.0997 -0.0595
  101CHL1    H613670   3.526   5.689   8.353 -0.4883  0.3951  0.0449
  101CHL1    C713671   3.553   5.682   8.137 -0.1384 -0.0418  0.3766
  101CHL1   H7A13672   3.569   5.792   8.130 -3.6248  0.5381 -0.3411
  101CHL1   H7B13673   3.655   5.637   8.136  0.4133  1.1771 -0.0559
  101CHL1    C813674   3.474   5.645   8.004  0.2758  0.3479 -0.5882
  101CHL1    H813675   3.400   5.727   7.997 -0.2666 -0.1949 -1.3944
  101CHL1   C1413676   3.565   5.650   7.874 -0.3009  0.5258 -0.1663
  101CHL1   H1413677   3.644   5.576   7.901  0.0122  0.5485 -0.9895
  101CHL1   C1513678   3.643   5.775   7.850 -0.2387  0.4366 -0.3185
  101CHL1  H15A13679   3.566   5.855   7.850 -1.5777 -0.8086  0.1356
  101CHL1  H15B13680   3.721   5.782   7.929 -1.0457 -2.9657  0.9208
  101CHL1   C1613681   3.692   5.762   7.704  0.0458  0.5774  0.0658
  101CHL1  H16A13682   3.666   5.855   7.650  2.2289  1.7347  0.8529
  101CHL1  H16B13683   3.803   5.762   7.703  0.0767 -1.2455  0.2644
  101CHL1   C1713684   3.623   5.639   7.649 -0.0691 -0.0076 -0.2581
  101CHL1   H1713685   3.694   5.556   7.667 -0.4755 -0.5863 -1.1846
  101CHL1   C1313686   3.503   5.611   7.745  0.0609 -0.1591 -0.1097
  101CHL1   C1813687   3.395   5.714   7.723 -0.1365 -0.5663  0.4475
  101CHL1  H18A13688   3.318   5.714   7.802  0.8476  2.9603  1.6015
  101CHL1  H18B13689   3.429   5.820   7.723 -0.5033 -0.4375 -0.3517
  101CHL1  H18C13690   3.348   5.709   7.622  0.9389  0.2094 -0.1088
  101CHL1   C1213691   3.449   5.472   7.767 -0.2202  0.1780  0.0498
  101CHL1  H12A13692   3.387   5.446   7.679  1.1681  0.9369 -1.2033
  101CHL1  H12B13693   3.525   5.394   7.793  0.4422  1.3815  1.9371
  101CHL1   C1113694   3.346   5.462   7.884 -0.0449  0.2197 -0.4464
  101CHL1  H11A13695   3.252   5.520   7.865 -1.3014 -1.3172  0.8678
  101CHL1  H11B13696   3.312   5.357   7.895  2.0997 -0.4681  0.0128
  101CHL1    C913697   3.406   5.509   8.020 -0.2961 -0.1583 -1.0654
  101CHL1    H913698   3.493   5.442   8.038 -0.9736 -0.7648  0.0901
  101CHL1   C1013699   3.310   5.496   8.142 -1.0654 -0.6017 -0.2488
  101CHL1   C1913700   3.174   5.558   8.109 -0.3340  0.1994  0.1617
  101CHL1  H19A13701   3.130   5.519   8.015 -2.2233  0.9371  0.6859
  101CHL1  H19B13702   3.103   5.531   8.190 -0.5065 -1.8776 -0.6400
  101CHL1  H19C13703   3.190   5.666   8.089  0.8102  0.1227  0.5884
  101CHL1    C113704   3.286   5.345   8.177 -0.4141  0.4147  0.1757
  101CHL1   H1A13705   3.229   5.285   8.103 -0.7070 -0.2121  0.8899
  101CHL1   H1B13706   3.381   5.288   8.174 -0.1080  0.9598 -2.0703
  101CHL1    C213707   3.209   5.311   8.310 -0.1141  0.1965  0.4173
  101CHL1   H2A13708   3.206   5.200   8.312  2.0563  0.0711 -0.5583
  101CHL1   H2B13709   3.101   5.336   8.306 -0.7023 -2.0897  0.0796
  101CHL1   C2013710   3.602   5.639   7.495 -0.1727 -0.6906 -0.4048
  101CHL1   H2013711   3.540   5.723   7.455 -0.6249 -0.5009  0.6747
  101CHL1   C2113712   3.552   5.503   7.446 -0.9164  0.2172 -0.1266
  101CHL1  H21A13713   3.450   5.497   7.490 -0.9894 -0.4164 -0.3701
  101CHL1  H21B13714   3.621   5.422   7.476 -1.6468 -0.9910 -1.6065
  101CHL1  H21C13715   3.538   5.514   7.337  1.2549 -0.6322 -0.5444
  101CHL1   C2213716   3.730   5.671   7.417 -0.0977 -0.0887  0.0585
  101CHL1  H22A13717   3.828   5.679   7.468  0.8393 -0.4032 -1.5937
  101CHL1  H22B13718   3.741   5.592   7.339  0.7021  0.9425 -0.9196
  101CHL1   C2313719   3.711   5.798   7.336 -0.0093  0.0743 -0.4792
  101CHL1  H23A13720   3.618   5.794   7.276 -0.7860 -0.2330  0.7280
  101CHL1  H23B13721   3.702   5.881   7.409  0.8906 -0.4519  0.2675
  101CHL1   C2413722   3.830   5.822   7.242  0.4161  0.3568  0.6716
  101CHL1  H24A13723   3.921   5.820   7.306 -1.0145  0.6930  2.7868
  101CHL1  H24B13724   3.826   5.742   7.165  0.2563 -0.6259  1.6711
  101CHL1   C2513725   3.824   5.966   7.183 -0.8902  0.3234 -0.2823
  101CHL1   H2513726   3.724   5.981   7.138 -1.1819 -1.0611 -0.1178
  101CHL1   C2613727   3.876   6.079   7.279 -1.1020 -0.6102  0.2327
  101CHL1  H26A13728   3.801   6.106   7.357 -1.5253  1.9131 -0.9611
  101CHL1  H26B13729   3.962   6.041   7.338 -1.2991 -2.2163 -0.4537
  101CHL1  H26C13730   3.899   6.166   7.215 -1.6962 -0.6979 -0.1177
  101CHL1   C2713731   3.916   5.972   7.057  0.3598 -0.2230  0.0392
  101CHL1  H27A13732   4.022   5.948   7.077  0.0303 -0.4306  1.7185
  101CHL1  H27B13733   3.882   5.894   6.985  2.7736  0.8460 -2.4391
  101CHL1  H27C13734   3.912   6.070   7.006  0.7894 -0.8268 -1.1956
  102CHL1    C313735   1.713   6.130   8.099 -0.4668 -0.0099  0.5445
  102CHL1    H313736   1.716   6.224   8.040  1.7443  0.2677  1.0390
  102CHL1    O313737   1.744   6.145   8.237  0.0930 -0.7258  0.2121
  102CHL1   H3'13738   1.689   6.218   8.265  0.5507  0.3582 -1.5811
  102CHL1    C413739   1.576   6.059   8.080  0.1023  0.9966 -0.4291
  102CHL1   H4A13740   1.576   5.970   8.146 -0.7004  0.1447 -1.5186
  102CHL1   H4B13741   1.497   6.125   8.121  0.9285  0.9605  1.2942
  102CHL1    C513742   1.551   6.023   7.933  0.4937  0.5446  0.1656
  102CHL1    C613743   1.434   6.057   7.878  0.0831 -0.4112  0.4489
  102CHL1    H613744   1.350   6.105   7.929 -1.2159 -0.1233 -1.7970
  102CHL1    C713745   1.397   6.021   7.738  0.3015  0.0837 -0.0118
  102CHL1   H7A13746   1.294   5.978   7.733  1.3045 -2.4613 -0.4579
  102CHL1   H7B13747   1.404   6.105   7.666 -1.6253 -0.1468 -0.5228
  102CHL1    C813748   1.492   5.916   7.673 -0.0931  0.3040 -0.2472
  102CHL1    H813749   1.461   5.818   7.714 -0.9927  0.6724 -0.0239
  102CHL1   C1413750   1.486   5.914   7.518  0.8930  0.7391  0.1786
  102CHL1   H1413751   1.538   6.008   7.489  0.7335  0.6891 -0.2704
  102CHL1   C1513752   1.346   5.919   7.463 -0.5869  0.2003 -0.2418
  102CHL1  H15A13753   1.267   5.862   7.516 -1.5769  2.2924  0.6398
  102CHL1  H15B13754   1.307   6.023   7.468 -1.2051 -0.0259 -0.1761
  102CHL1   C1613755   1.363   5.854   7.326  0.0217 -0.6848 -0.2351
  102CHL1  H16A13756   1.305   5.759   7.329 -1.6534  0.3143  0.7120
  102CHL1  H16B13757   1.332   5.922   7.244 -2.2548 -0.4164  0.7759
  102CHL1   C1713758   1.509   5.823   7.316 -0.1494  0.3454 -0.2798
  102CHL1   H1713759   1.574   5.909   7.288  0.7301  0.6715  2.4513
  102CHL1   C1313760   1.558   5.796   7.455 -0.1684 -0.6078 -0.1514
  102CHL1   C1813761   1.496   5.665   7.513 -0.5650  0.3204  0.2357
  102CHL1  H18A13762   1.387   5.657   7.494 -0.6699  1.1931  0.4157
  102CHL1  H18B13763   1.542   5.584   7.452 -1.5547  0.7697 -1.1455
  102CHL1  H18C13764   1.514   5.653   7.622  0.3685  1.1978  0.2060
  102CHL1   C1213765   1.713   5.808   7.492  0.4095 -0.0615  0.6526
  102CHL1  H12A13766   1.773   5.723   7.454  2.5890  2.0635 -0.9564
  102CHL1  H12B13767   1.752   5.896   7.438 -0.9247 -1.0332 -2.0413
  102CHL1   C1113768   1.731   5.818   7.641 -0.0688 -0.1781 -0.3968
  102CHL1  H11A13769   1.715   5.720   7.691 -2.4997  0.8550  1.0115
  102CHL1  H11B13770   1.834   5.850   7.669 -0.5304  1.2820 -0.2729
  102CHL1    C913771   1.642   5.932   7.710  1.3542 -0.4249  0.0157
  102CHL1    H913772   1.675   6.027   7.663 -0.9095  1.5323  2.0958
  102CHL1   C1013773   1.669   5.945   7.862 -0.2234 -0.3057  0.1931
  102CHL1   C1913774   1.681   5.806   7.926  0.1377 -0.5303 -0.3048
  102CHL1  H19A13775   1.775   5.760   7.890  0.0055 -0.3776 -0.8480
  102CHL1  H19B13776   1.673   5.821   8.036 -2.4776  0.6642 -0.5769
  102CHL1  H19C13777   1.591   5.744   7.907 -1.1844  1.0622  0.4540
  102CHL1    C113778   1.804   6.023   7.881 -0.0026  0.0932  0.6886
  102CHL1   H1A13779   1.898   5.970   7.853  0.6705  0.4540  2.1359
  102CHL1   H1B13780   1.798   6.112   7.816  0.4662  1.7855  2.8337
  102CHL1    C213781   1.825   6.051   8.030 -0.3168  0.4188 -0.1242
  102CHL1   H2A13782   1.919   6.110   8.039 -1.6950  2.6928  0.2256
  102CHL1   H2B13783   1.837   5.959   8.090  1.7459  0.0588 -0.9793
  102CHL1   C2013784   1.543   5.712   7.210  0.3485 -0.6333  0.2459
  102CHL1   H2013785   1.532   5.614   7.260 -0.1498 -0.8432 -0.2674
  102CHL1   C2113786   1.687   5.740   7.164  0.9778  0.2140  0.0734
  102CHL1  H21A13787   1.718   5.661   7.092  0.4766 -0.2024  0.3102
  102CHL1  H21B13788   1.764   5.737   7.243  3.3247 -1.7055 -2.1224
  102CHL1  H21C13789   1.703   5.837   7.112  0.5470  1.4680  2.1667
  102CHL1   C2213790   1.461   5.720   7.074 -0.0133  0.2978 -0.7267
  102CHL1  H22A13791   1.357   5.730   7.112 -0.6437  0.4884 -2.4533
  102CHL1  H22B13792   1.490   5.807   7.012  0.2838  0.4322 -0.4060
  102CHL1   C2313793   1.457   5.590   7.004  0.2164  0.2297 -0.1676
  102CHL1  H23A13794   1.405   5.611   6.908  0.1661  0.8780 -0.0045
  102CHL1  H23B13795   1.560   5.555   6.983  0.0729  0.3301 -1.1045
  102CHL1   C2413796   1.365   5.485   7.074 -0.6668 -0.8003 -0.4309
  102CHL1  H24A13797   1.387   5.488   7.183 -1.0488 -0.8555 -0.3508
  102CHL1  H24B13798   1.257   5.508   7.065 -1.1219 -1.8328  1.6740
  102CHL1   C2513799   1.375   5.341   7.025 -0.5594  0.1511  0.1903
  102CHL1   H2513800   1.477   5.303   7.048  0.0611  1.4770 -0.2842
  102CHL1   C2613801   1.279   5.255   7.107 -0.3640  0.2164  0.6299
  102CHL1  H26A13802   1.284   5.153   7.064  1.0009  0.3461  0.4420
  102CHL1  H26B13803   1.318   5.248   7.211  3.4925 -0.0967 -0.6599
  102CHL1  H26C13804   1.178   5.299   7.120  0.0243  0.9421  1.2387
  102CHL1   C2713805   1.335   5.332   6.878  0.1036 -0.0663  0.2131
  102CHL1  H27A13806   1.420   5.369   6.817 -0.9708  3.5624  0.6693
  102CHL1  H27B13807   1.311   5.229   6.843 -2.3605 -0.1077  1.7607
  102CHL1  H27C13808   1.247   5.396   6.855 -1.1197 -0.9070  2.2532
  103CHL1    C313809   1.875   4.954   8.494 -0.4456  0.7322  0.3293
  103CHL1    H313810   1.775   4.934   8.450  0.4366 -3.1494 -0.2879
  103CHL1    O313811   1.846   4.938   8.632 -0.6154  0.2217 -0.1319
  103CHL1   H3'13812   1.786   4.863   8.628  2.6728 -2.6586 -2.6584
  103CHL1    C413813   1.962   4.844   8.444 -0.1617  0.1081  0.1883
  103CHL1   H4A13814   2.063   4.848   8.489  0.4564 -2.2719 -0.8728
  103CHL1   H4B13815   1.927   4.745   8.478 -0.8445  0.3550  0.2276
  103CHL1    C513816   1.963   4.850   8.294 -0.1331 -0.4191  0.4021
  103CHL1    C613817   1.931   4.747   8.223 -0.5146 -0.1572 -0.1218
  103CHL1    H613818   1.908   4.654   8.277  0.9060 -1.1173 -1.0893
  103CHL1    C713819   1.940   4.741   8.075  0.3452 -0.7170  0.1730
  103CHL1   H7A13820   1.982   4.641   8.052 -1.5372 -1.5619  0.1974
  103CHL1   H7B13821   1.838   4.741   8.032 -0.5479 -1.2101  2.1284
  103CHL1    C813822   2.029   4.852   8.009 -0.0830 -1.0065  0.0247
  103CHL1    H813823   2.134   4.824   8.032  1.1193  2.2882 -0.9664
  103CHL1   C1413824   2.018   4.873   7.862 -0.4645 -0.6287 -0.1001
  103CHL1   H1413825   1.918   4.918   7.843 -1.3944 -2.3160  0.6041
  103CHL1   C1513826   2.035   4.741   7.782  0.1060 -0.0984  0.1727
  103CHL1  H15A13827   2.110   4.677   7.835 -0.9526 -3.0046 -1.5871
  103CHL1  H15B13828   1.940   4.683   7.779  0.7883 -1.2197 -1.5054
  103CHL1   C1613829   2.097   4.788   7.647  0.3253 -0.6229 -0.4825
  103CHL1  H16A13830   2.204   4.762   7.637  0.7511  0.6040  0.6193
  103CHL1  H16B13831   2.028   4.748   7.570 -1.2916 -0.3224  0.7315
  103CHL1   C1713832   2.101   4.942   7.653 -0.7298  0.3224  0.6930
  103CHL1   H1713833   2.001   4.980   7.623 -1.1674 -0.6400  0.8773
  103CHL1   C1313834   2.111   4.982   7.806 -0.2850 -0.1449 -0.7661
  103CHL1   C1813835   2.260   4.966   7.854  0.2087 -0.7157 -0.6206
  103CHL1  H18A13836   2.315   5.056   7.819 -0.3271  0.7401  1.9949
  103CHL1  H18B13837   2.271   4.965   7.965  1.6911 -1.2399 -0.7506
  103CHL1  H18C13838   2.319   4.879   7.819  1.9249  0.1838 -0.0829
  103CHL1   C1213839   2.053   5.114   7.868  0.2144  0.9485  0.5480
  103CHL1  H12A13840   2.108   5.202   7.831 -0.6997  1.2441 -0.1482
  103CHL1  H12B13841   1.946   5.118   7.838  0.5301 -1.1138 -1.0882
  103CHL1   C1113842   2.055   5.114   8.019  0.4073 -0.0504  0.3489
  103CHL1  H11A13843   2.158   5.144   8.047  0.6273  0.7956 -1.2434
  103CHL1  H11B13844   1.989   5.194   8.057  0.9372 -0.1406  1.5233
  103CHL1    C913845   2.001   4.991   8.084 -1.0466  0.1950  0.3261
  103CHL1    H913846   1.893   5.002   8.063 -1.1691  0.2833  0.9904
  103CHL1   C1013847   2.014   4.988   8.235  0.4732 -0.0474 -0.8928
  103CHL1   C1913848   2.168   4.999   8.281 -0.2528  0.4891 -0.2721
  103CHL1  H19A13849   2.214   5.091   8.240  1.8319 -0.5687 -0.4257
  103CHL1  H19B13850   2.176   5.009   8.391 -2.7232  1.1325 -0.0754
  103CHL1  H19C13851   2.235   4.920   8.241  0.9015 -0.1430  2.7004
  103CHL1    C113852   1.938   5.107   8.297  0.6310 -0.0691 -0.8873
  103CHL1   H1A13853   1.989   5.202   8.269  1.3287 -0.2546 -0.2927
  103CHL1   H1B13854   1.833   5.106   8.262 -0.2938  0.6526  1.6041
  103CHL1    C213855   1.924   5.097   8.450 -0.2836  0.6810 -0.9667
  103CHL1   H2A13856   1.864   5.177   8.499  1.4837  1.1146  0.5905
  103CHL1   H2B13857   2.026   5.107   8.493 -0.7843  1.9564 -0.0101
  103CHL1   C2013858   2.189   5.011   7.546  0.2146  0.4126 -0.1465
  103CHL1   H2013859   2.295   4.981   7.562  0.7847  2.2286 -0.2946
  103CHL1   C2113860   2.180   5.168   7.559 -0.5113  0.0531  0.0021
  103CHL1  H21A13861   2.078   5.209   7.568 -0.2446  0.8914 -0.7062
  103CHL1  H21B13862   2.228   5.204   7.466 -0.9430  0.8092  0.0693
  103CHL1  H21C13863   2.241   5.196   7.648  1.1455 -0.9523 -0.7517
  103CHL1   C2213864   2.157   4.961   7.406  0.6341 -0.1472 -0.0242
  103CHL1  H22A13865   2.215   5.008   7.324  1.2509 -0.0179  0.4787
  103CHL1  H22B13866   2.176   4.851   7.406  1.5054 -0.0072 -0.1733
  103CHL1   C2313867   2.015   4.973   7.366 -0.8738 -0.6379 -0.2100
  103CHL1  H23A13868   1.950   4.900   7.418 -2.6697  0.5978 -0.6220
  103CHL1  H23B13869   1.990   5.073   7.408  5.5526  1.2584  0.1873
  103CHL1   C2413870   1.985   4.944   7.220 -0.1558 -0.6082  0.1975
  103CHL1  H24A13871   1.879   4.964   7.192  0.5121  0.0525 -2.0585
  103CHL1  H24B13872   2.027   5.025   7.156  0.4302 -1.3918 -0.4328
  103CHL1   C2513873   2.038   4.812   7.160 -0.3470  0.2590 -0.6425
  103CHL1   H2513874   2.148   4.809   7.167 -0.1888  2.1755 -1.5322
  103CHL1   C2613875   1.972   4.690   7.224  0.1234  0.6384 -0.6010
  103CHL1  H26A13876   2.025   4.598   7.194  1.2927  0.6395  1.2487
  103CHL1  H26B13877   1.996   4.703   7.332 -0.8937  0.6333 -0.3611
  103CHL1  H26C13878   1.862   4.697   7.209 -0.1087 -1.3342 -0.0005
  103CHL1   C2713879   2.014   4.804   7.010 -0.0684  0.1627 -0.5004
  103CHL1  H27A13880   2.043   4.898   6.959 -1.3895  1.4930  1.0537
  103CHL1  H27B13881   2.081   4.730   6.962 -0.1142  0.5968 -1.2370
  103CHL1  H27C13882   1.906   4.784   6.990 -0.7493  2.7097  0.2631
  104CHL1    C313883   5.610   5.026   8.041 -1.4387 -0.0283  0.9410
  104CHL1    H313884   5.650   5.130   8.035 -0.5903 -0.4324 -1.1929
  104CHL1    O313885   5.620   4.992   8.178 -0.3227  0.1778 -0.1622
  104CHL1   H3'13886   5.595   4.899   8.173 -1.7194  0.5879 -2.5120
  104CHL1    C413887   5.463   5.017   7.999  0.1765 -0.0979 -0.7507
  104CHL1   H4A13888   5.428   4.913   8.019  0.7079  0.3473  3.1762
  104CHL1   H4B13889   5.397   5.077   8.065 -2.7771 -1.8089 -1.9346
  104CHL1    C513890   5.437   5.042   7.858 -0.0189  0.1545 -0.2506
  104CHL1    C613891   5.346   5.129   7.806  0.5044 -0.6657 -0.2619
  104CHL1    H613892   5.287   5.186   7.879  0.0950 -0.9722 -0.3525
  104CHL1    C713893   5.314   5.139   7.661  0.5049  0.1029 -0.9761
  104CHL1   H7A13894   5.205   5.120   7.654  0.2560  0.3689  1.4069
  104CHL1   H7B13895   5.346   5.238   7.624 -1.7358  1.3928  0.3236
  104CHL1    C813896   5.372   5.027   7.577 -0.4583 -0.0531  0.4614
  104CHL1    H813897   5.306   4.938   7.588 -0.7128 -0.0702 -0.9894
  104CHL1   C1413898   5.378   5.061   7.429  0.0575  0.6093 -0.5743
  104CHL1   H1413899   5.448   5.145   7.412 -3.4283  4.3107  1.3734
  104CHL1   C1513900   5.250   5.102   7.365  0.1618 -0.3080 -0.1664
  104CHL1  H15A13901   5.169   5.030   7.388  0.1013  0.0399  0.7723
  104CHL1  H15B13902   5.230   5.207   7.395  0.9331 -0.4419  0.8570
  104CHL1   C1613903   5.272   5.096   7.215 -0.9407 -0.3461  0.6560
  104CHL1  H16A13904   5.183   5.053   7.164 -0.9007 -0.9803  1.1242
  104CHL1  H16B13905   5.288   5.197   7.169  2.1720 -0.7040  0.7008
  104CHL1   C1713906   5.406   5.020   7.203 -0.4606 -0.8393 -0.3554
  104CHL1   H1713907   5.475   5.107   7.204 -1.8148  0.2968 -1.0654
  104CHL1   C1313908   5.431   4.949   7.335 -0.2193 -0.4479 -0.6214
  104CHL1   C1813909   5.347   4.829   7.348  0.3617 -0.2671  0.1563
  104CHL1  H18A13910   5.245   4.831   7.305  0.5310 -1.6203 -0.3423
  104CHL1  H18B13911   5.389   4.749   7.284 -0.7132  0.7901 -1.9504
  104CHL1  H18C13912   5.336   4.800   7.455 -0.0646 -0.3895  0.0789
  104CHL1   C1213913   5.574   4.921   7.374  0.3814  0.2743  0.0882
  104CHL1  H12A13914   5.614   4.846   7.303  0.3402 -1.1509  1.5053
  104CHL1  H12B13915   5.633   5.015   7.364  1.2641 -0.3808 -1.1124
  104CHL1   C1113916   5.584   4.884   7.522  0.6810 -0.8172 -0.4557
  104CHL1  H11A13917   5.536   4.786   7.542  0.9373 -0.7930  0.2775
  104CHL1  H11B13918   5.688   4.876   7.559 -0.2184 -1.0680  2.2165
  104CHL1    C913919   5.511   4.984   7.620 -0.5983 -0.4818 -0.0950
  104CHL1    H913920   5.565   5.081   7.608  0.8853 -1.1922  0.5972
  104CHL1   C1013921   5.532   4.948   7.776  0.5499 -0.1538 -0.1622
  104CHL1   C1913922   5.483   4.800   7.796  0.1421  0.3468  0.4550
  104CHL1  H19A13923   5.540   4.728   7.733 -1.4351 -0.9175  0.3796
  104CHL1  H19B13924   5.489   4.765   7.901 -1.4835 -0.0498  0.4382
  104CHL1  H19C13925   5.377   4.781   7.768 -0.3874  0.9025  1.9780
  104CHL1    C113926   5.681   4.961   7.810 -0.3053 -0.0794  0.5332
  104CHL1   H1A13927   5.732   4.880   7.754  2.3259  1.8005  0.0193
  104CHL1   H1B13928   5.716   5.061   7.777  0.0011 -0.8365 -1.5814
  104CHL1    C213929   5.707   4.940   7.960 -0.0119  0.1943  0.4402
  104CHL1   H2A13930   5.806   4.961   8.008  0.8958  0.8146 -1.6034
  104CHL1   H2B13931   5.671   4.836   7.976 -0.5473  0.3461  0.2535
  104CHL1   C2013932   5.434   4.939   7.074  0.3138  0.0590  0.5775
  104CHL1   H2013933   5.447   4.831   7.093  0.9399 -0.4138 -2.1279
  104CHL1   C2113934   5.570   4.991   7.012 -0.0518 -0.0930 -0.4908
  104CHL1  H21A13935   5.648   4.970   7.089 -1.0652  0.9691  0.8876
  104CHL1  H21B13936   5.554   5.100   6.995 -0.5317  0.0856  0.9036
  104CHL1  H21C13937   5.592   4.933   6.920  0.7002  2.1818 -1.8405
  104CHL1   C2213938   5.326   4.954   6.972 -0.2239  0.1909  0.4878
  104CHL1  H22A13939   5.237   4.918   7.027 -0.5629 -0.2682 -0.3339
  104CHL1  H22B13940   5.305   5.059   6.940 -2.4146  0.2066  1.7489
  104CHL1   C2313941   5.344   4.841   6.864  0.6230 -0.5542  0.3030
  104CHL1  H23A13942   5.439   4.852   6.809  1.6304  0.7034  2.1707
  104CHL1  H23B13943   5.334   4.741   6.910 -1.2671 -0.1188  0.9528
  104CHL1   C2413944   5.232   4.839   6.763 -0.1503  0.4006  0.2317
  104CHL1  H24A13945   5.135   4.832   6.817  0.1960 -0.2128  0.7854
  104CHL1  H24B13946   5.232   4.939   6.714 -0.6067  0.0660 -0.4698
  104CHL1   C2513947   5.244   4.717   6.666 -0.2383 -0.4182 -0.1567
  104CHL1   H2513948   5.346   4.694   6.628 -0.4942 -0.5044 -0.8067
  104CHL1   C2613949   5.194   4.587   6.734 -0.1516  0.0819  0.1069
  104CHL1  H26A13950   5.086   4.587   6.761  0.1164  0.0704  1.2207
  104CHL1  H26B13951   5.194   4.502   6.663 -0.1563  0.7079 -0.6489
  104CHL1  H26C13952   5.239   4.559   6.832 -1.1601 -0.0920  0.5412
  104CHL1   C2713953   5.162   4.750   6.541 -0.0312 -0.4730 -0.9060
  104CHL1  H27A13954   5.145   4.655   6.486  1.5547 -0.3241 -1.7057
  104CHL1  H27B13955   5.058   4.782   6.564 -0.3685 -1.8854 -0.3987
  104CHL1  H27C13956   5.203   4.835   6.482 -0.3489 -1.1664 -2.1636
  105CHL1    C313957   6.381   2.741   8.405  0.0077 -0.1963  0.5960
  105CHL1    H313958   6.307   2.812   8.363 -0.1988 -0.1128  1.0905
  105CHL1    O313959   6.369   2.733   8.545  0.0818 -0.2412  0.1320
  105CHL1   H3'13960   6.284   2.693   8.566 -0.7779  0.4509 -1.8643
  105CHL1    C413961   6.364   2.611   8.339  0.1413 -0.4609  1.1980
  105CHL1   H4A13962   6.430   2.542   8.396 -0.5465 -0.1984  2.3227
  105CHL1   H4B13963   6.263   2.574   8.363 -0.3401  0.7493  1.0703
  105CHL1    C513964   6.382   2.605   8.183  0.0082 -0.5584  0.3734
  105CHL1    C613965   6.289   2.556   8.107 -0.4192 -0.3231 -0.3739
  105CHL1    H613966   6.196   2.512   8.143  0.7115 -1.0979  1.7525
  105CHL1    C713967   6.297   2.545   7.955  0.3816 -0.2293 -0.5627
  105CHL1   H7A13968   6.260   2.452   7.905  0.2520  0.0974 -1.0792
  105CHL1   H7B13969   6.235   2.625   7.910  1.7695 -0.3589 -2.8318
  105CHL1    C813970   6.448   2.578   7.906  0.2194 -0.5904 -0.5706
  105CHL1    H813971   6.499   2.481   7.924  2.4567  0.6643  0.2350
  105CHL1   C1413972   6.452   2.614   7.755  0.5309  0.1553 -0.2171
  105CHL1   H1413973   6.398   2.710   7.747  0.4355  0.2984  1.6706
  105CHL1   C1513974   6.391   2.510   7.659 -0.0834  0.2903  0.0929
  105CHL1  H15A13975   6.424   2.417   7.710 -2.6369 -0.7548 -0.0434
  105CHL1  H15B13976   6.280   2.508   7.649 -0.1749  2.9229 -0.2500
  105CHL1   C1613977   6.450   2.528   7.520 -0.1994 -0.6564 -0.4152
  105CHL1  H16A13978   6.477   2.428   7.479 -1.0131 -1.4815  0.9979
  105CHL1  H16B13979   6.371   2.568   7.453 -0.3040  2.4535  1.3773
  105CHL1   C1713980   6.563   2.639   7.546  0.6649 -0.7596 -0.4856
  105CHL1   H1713981   6.520   2.740   7.534 -5.6275 -2.7438  1.0979
  105CHL1   C1313982   6.594   2.644   7.700  0.0623  0.6247 -0.8552
  105CHL1   C1813983   6.701   2.540   7.740 -0.0545 -0.5898 -0.2341
  105CHL1  H18A13984   6.802   2.553   7.695 -0.1566 -2.5431 -1.1357
  105CHL1  H18B13985   6.709   2.528   7.850  1.6665 -2.6435 -0.5252
  105CHL1  H18C13986   6.659   2.445   7.700 -1.4434 -0.1012  0.0043
  105CHL1   C1213987   6.631   2.778   7.771 -0.6291 -0.0910 -0.5025
  105CHL1  H12A13988   6.732   2.817   7.747 -1.0862  1.4919  0.0600
  105CHL1  H12B13989   6.556   2.859   7.758  0.5324  1.4235  1.5881
  105CHL1   C1113990   6.630   2.766   7.926 -0.2232  0.0387  0.2724
  105CHL1  H11A13991   6.726   2.712   7.942 -0.1154  0.1552  0.0239
  105CHL1  H11B13992   6.644   2.864   7.976  0.9078 -0.2248  0.5057
  105CHL1    C913993   6.505   2.697   7.989 -0.0920 -0.5120  0.6862
  105CHL1    H913994   6.427   2.775   7.976  0.1809  0.2934  3.4294
  105CHL1   C1013995   6.518   2.670   8.138  0.6001 -0.4849 -1.1798
  105CHL1   C1913996   6.632   2.573   8.165  0.5220 -0.2620  0.0816
  105CHL1  H19A13997   6.734   2.615   8.154  0.8918 -1.6357 -2.7391
  105CHL1  H19B13998   6.628   2.535   8.269  1.2817  0.9285  0.5667
  105CHL1  H19C13999   6.629   2.491   8.090  4.4045 -1.1478  0.6460
  105CHL1    C114000   6.534   2.810   8.214 -0.6162 -0.2235  0.4798
  105CHL1   H1A14001   6.639   2.843   8.204 -0.6049 -0.5702 -0.7785
  105CHL1   H1B14002   6.471   2.893   8.175 -0.4198  0.6116  1.8801
  105CHL1    C214003   6.523   2.796   8.367  0.7391  0.2239 -0.6707
  105CHL1   H2A14004   6.538   2.897   8.411  0.7723  0.3744 -1.0231
  105CHL1   H2B14005   6.611   2.738   8.401  1.1385  0.8317 -0.6598
  105CHL1   C2014006   6.678   2.621   7.450  0.5194 -0.3183  0.8097
  105CHL1   H2014007   6.716   2.521   7.481 -2.7091 -2.4151 -1.3899
  105CHL1   C2114008   6.792   2.717   7.474 -0.5565 -0.8248 -0.0729
  105CHL1  H21A14009   6.879   2.711   7.406  0.3171 -0.0919  0.9426
  105CHL1  H21B14010   6.840   2.704   7.574 -1.5301  0.4195  0.5890
  105CHL1  H21C14011   6.746   2.818   7.469 -1.0119 -1.0447 -0.3681
  105CHL1   C2214012   6.633   2.612   7.299 -0.1506 -0.1570  0.4772
  105CHL1  H22A14013   6.557   2.531   7.300 -2.0698  1.5584  0.6611
  105CHL1  H22B14014   6.580   2.708   7.278  0.3390  0.0095 -0.0115
  105CHL1   C2314015   6.748   2.575   7.203 -0.2327 -0.0107  0.0334
  105CHL1  H23A14016   6.842   2.632   7.223  0.9098 -2.2005  1.2669
  105CHL1  H23B14017   6.779   2.469   7.214  1.8801  0.3939 -1.3530
  105CHL1   C2414018   6.709   2.599   7.056  0.5181  0.2317  0.6126
  105CHL1  H24A14019   6.623   2.533   7.028  3.5062 -3.6050 -0.5274
  105CHL1  H24B14020   6.682   2.706   7.048 -0.3582  0.1321  1.9351
  105CHL1   C2514021   6.820   2.574   6.953 -0.3505  0.9442 -0.0933
  105CHL1   H2514022   6.870   2.481   6.987 -2.1010  0.5211  1.4729
  105CHL1   C2614023   6.748   2.548   6.816 -0.1325 -0.5363 -0.3056
  105CHL1  H26A14024   6.826   2.513   6.745  0.3735  0.3216 -0.1834
  105CHL1  H26B14025   6.677   2.463   6.822 -0.4384 -0.3948 -1.5074
  105CHL1  H26C14026   6.696   2.639   6.779 -0.1392 -0.6999 -0.7102
  105CHL1   C2714027   6.920   2.691   6.958 -0.2018  1.0268 -0.0762
  105CHL1  H27A14028   6.994   2.700   6.876  2.8881 -2.5926  1.9932
  105CHL1  H27B14029   6.861   2.785   6.951 -0.3643  1.2274  2.7204
  105CHL1  H27C14030   6.976   2.700   7.053 -1.6683  1.4533  0.7838
  106CHL1    C314031   1.788   3.932   8.330 -0.3591  0.1636 -0.0830
  106CHL1    H314032   1.681   3.961   8.328 -0.2181  0.7608  0.6913
  106CHL1    O314033   1.838   3.943   8.462  0.3688  0.1627  0.3883
  106CHL1   H3'14034   1.933   3.938   8.457  0.3952 -1.0352  1.5527
  106CHL1    C414035   1.809   3.787   8.280 -0.0803 -0.0720 -0.2118
  106CHL1   H4A14036   1.918   3.762   8.283  0.9700  3.3031 -3.2090
  106CHL1   H4B14037   1.756   3.723   8.353  0.8188  0.7783  1.2358
  106CHL1    C514038   1.759   3.762   8.138  0.5238 -0.1427 -0.6027
  106CHL1    C614039   1.653   3.678   8.106  0.2240  0.0767  0.3739
  106CHL1    H614040   1.613   3.619   8.190 -0.4486  0.8649  0.6206
  106CHL1    C714041   1.625   3.651   7.961 -0.0438 -0.2550  0.4497
  106CHL1   H7A14042   1.610   3.543   7.943  1.5237 -0.5322  0.6550
  106CHL1   H7B14043   1.525   3.692   7.937 -0.0185  0.0260  0.8120
  106CHL1    C814044   1.725   3.700   7.852  0.1109 -0.1400 -0.3396
  106CHL1    H814045   1.820   3.642   7.854  1.0901  1.4026 -0.1252
  106CHL1   C1414046   1.667   3.703   7.715  0.1363 -0.3148 -0.1117
  106CHL1   H1414047   1.583   3.775   7.712 -2.4014 -3.0077  1.0176
  106CHL1   C1514048   1.600   3.570   7.670 -0.1520 -0.7826  1.1588
  106CHL1  H15A14049   1.665   3.482   7.688 -1.4661 -2.3073 -0.9519
  106CHL1  H15B14050   1.505   3.540   7.719 -1.4421  0.6972 -0.3084
  106CHL1   C1614051   1.580   3.603   7.517 -0.6984  0.4625 -0.0230
  106CHL1  H16A14052   1.597   3.517   7.448 -1.2832 -0.1245  0.5559
  106CHL1  H16B14053   1.471   3.620   7.506 -1.1176 -2.0601 -0.3440
  106CHL1   C1714054   1.658   3.727   7.488  0.3752 -0.4911  0.4717
  106CHL1   H1714055   1.586   3.809   7.508 -2.1400 -2.2929 -0.6181
  106CHL1   C1314056   1.755   3.749   7.604 -0.1452  0.4858  0.3111
  106CHL1   C1814057   1.880   3.657   7.588 -0.4111 -0.1085 -0.5400
  106CHL1  H18A14058   1.951   3.719   7.529  0.1932 -0.1786  0.0994
  106CHL1  H18B14059   1.933   3.639   7.684 -2.6077 -0.6117  0.6600
  106CHL1  H18C14060   1.852   3.561   7.541 -0.4975 -1.3333  1.8696
  106CHL1   C1214061   1.799   3.900   7.631 -0.0198 -0.2724 -0.3930
  106CHL1  H12A14062   1.877   3.940   7.562 -0.0706 -0.0816 -0.3399
  106CHL1  H12B14063   1.717   3.975   7.623  0.5246  0.2550 -1.2158
  106CHL1   C1114064   1.857   3.897   7.774 -0.5553 -0.2877  0.1673
  106CHL1  H11A14065   1.949   3.838   7.758  0.5251  0.1543  3.7488
  106CHL1  H11B14066   1.882   4.000   7.809 -1.3268 -0.4169  1.1702
  106CHL1    C914067   1.770   3.841   7.885  0.4665  0.7811 -0.6362
  106CHL1    H914068   1.673   3.896   7.891  0.3202  0.3806  1.7323
  106CHL1   C1014069   1.828   3.849   8.040 -0.0007 -0.2876  0.5055
  106CHL1   C1914070   1.982   3.817   8.035  0.5791 -0.1678  0.6248
  106CHL1  H19A14071   2.038   3.904   7.996 -0.7033  0.2280 -0.4108
  106CHL1  H19B14072   2.033   3.783   8.128 -0.5300 -0.0723  1.2881
  106CHL1  H19C14073   1.991   3.734   7.961  1.1779  0.3112  0.1540
  106CHL1    C114074   1.805   4.002   8.085  0.6783 -0.2209  0.0427
  106CHL1   H1A14075   1.860   4.067   8.013  0.5153 -0.8580 -0.6801
  106CHL1   H1B14076   1.695   4.015   8.076  0.6759  0.8740  1.4588
  106CHL1    C214077   1.846   4.034   8.233  0.3622  0.4357  0.1351
  106CHL1   H2A14078   1.811   4.137   8.256 -1.7456 -0.2532  0.2493
  106CHL1   H2B14079   1.956   4.030   8.247 -0.0644 -2.0097  3.8777
  106CHL1   C2014080   1.716   3.753   7.351  0.2989  0.8462  0.1753
  106CHL1   H2014081   1.806   3.815   7.368  1.4869 -1.0342  1.1040
  106CHL1   C2114082   1.622   3.832   7.266 -0.1893  0.3643 -0.1274
  106CHL1  H21A14083   1.635   3.843   7.157 -2.1908 -0.3174 -0.4766
  106CHL1  H21B14084   1.608   3.931   7.315 -0.4179  1.6254 -2.5787
  106CHL1  H21C14085   1.524   3.779   7.275  0.9662 -1.6161  1.7726
  106CHL1   C2214086   1.747   3.625   7.268 -0.2342 -0.7053 -0.0003
  106CHL1  H22A14087   1.793   3.547   7.331  1.0194  1.0175  1.3074
  106CHL1  H22B14088   1.654   3.597   7.213 -0.0108 -0.4477 -0.5190
  106CHL1   C2314089   1.848   3.676   7.157  0.2217  0.2106  0.0579
  106CHL1  H23A14090   1.834   3.783   7.130  1.8094  0.2238 -0.8467
  106CHL1  H23B14091   1.947   3.665   7.204  0.2027 -2.7204 -0.4126
  106CHL1   C2414092   1.863   3.583   7.034  0.9795  0.2883 -0.5437
  106CHL1  H24A14093   1.867   3.481   7.079  1.1560  0.9329  0.9478
  106CHL1  H24B14094   1.774   3.599   6.970  0.9759 -0.3578 -0.7106
  106CHL1   C2514095   1.989   3.601   6.943  0.0783 -0.3179  0.5826
  106CHL1   H2514096   2.073   3.588   7.014  0.7939 -0.4348 -0.2772
  106CHL1   C2614097   1.990   3.483   6.839 -0.6990 -0.2118  0.1879
  106CHL1  H26A14098   2.082   3.494   6.779 -0.1898 -1.7443  0.6275
  106CHL1  H26B14099   1.978   3.389   6.899  1.2106 -0.8147 -0.2988
  106CHL1  H26C14100   1.904   3.495   6.770  0.6714 -1.6582 -1.8656
  106CHL1   C2714101   2.006   3.734   6.881 -0.0302 -0.2619  0.0535
  106CHL1  H27A14102   1.925   3.765   6.811 -0.2460 -1.8609 -0.4503
  106CHL1  H27B14103   2.014   3.814   6.958  0.4974  0.0762 -0.3499
  106CHL1  H27C14104   2.103   3.728   6.827  0.2178 -0.6473  0.5366
  107CHL1    C314105   3.940   7.103   8.244  0.0829  0.7656  0.4099
  107CHL1    H314106   3.850   7.165   8.264 -0.8544 -0.5810  0.4784
  107CHL1    O314107   4.035   7.099   8.355  0.1111 -0.2589  0.5425
  107CHL1   H3'14108   3.982   7.075   8.431 -2.3056  0.8206 -0.6745
  107CHL1    C414109   3.903   6.958   8.222 -0.1808  0.1547 -0.3458
  107CHL1   H4A14110   3.999   6.904   8.212  0.2809  0.5179  1.6664
  107CHL1   H4B14111   3.856   6.912   8.312  1.6965 -0.7711  0.2247
  107CHL1    C514112   3.830   6.935   8.094 -0.3140 -0.4377 -0.5235
  107CHL1    C614113   3.716   6.872   8.100  0.2732 -0.4313  0.4906
  107CHL1    H614114   3.684   6.818   8.191 -4.3432 -0.7884 -1.0945
  107CHL1    C714115   3.632   6.850   7.974 -0.4550  0.2827 -0.1749
  107CHL1   H7A14116   3.583   6.751   7.983  0.4238 -0.1218  0.3248
  107CHL1   H7B14117   3.552   6.927   7.979 -0.9446 -0.1040 -1.6302
  107CHL1    C814118   3.709   6.878   7.839  0.1858 -0.5746 -0.8363
  107CHL1    H814119   3.783   6.797   7.824  0.8863 -0.8770  3.2018
  107CHL1   C1414120   3.607   6.888   7.726  0.0899  0.3210 -0.2952
  107CHL1   H1414121   3.524   6.956   7.754 -1.1463 -1.9736  2.1231
  107CHL1   C1514122   3.538   6.757   7.692  0.6161 -0.0006 -0.4879
  107CHL1  H15A14123   3.608   6.672   7.684 -0.6062 -0.8940 -2.8790
  107CHL1  H15B14124   3.460   6.727   7.765  2.1768 -3.0967  0.0321
  107CHL1   C1614125   3.479   6.782   7.556  0.1537  0.0623  0.4251
  107CHL1  H16A14126   3.510   6.699   7.489 -0.6893  3.0199 -4.0113
  107CHL1  H16B14127   3.369   6.772   7.560  0.2288 -0.5734  1.2186
  107CHL1   C1714128   3.529   6.918   7.507 -0.5975 -0.2677 -0.2232
  107CHL1   H1714129   3.460   6.999   7.540 -0.9998 -1.4594  2.1072
  107CHL1   C1314130   3.658   6.946   7.590 -0.3548  0.0450  0.3039
  107CHL1   C1814131   3.775   6.863   7.532 -0.4232  0.6355 -0.0083
  107CHL1  H18A14132   3.818   6.910   7.441  2.1925 -1.4481  0.0112
  107CHL1  H18B14133   3.858   6.859   7.606 -1.6013  1.3459  1.4020
  107CHL1  H18C14134   3.752   6.758   7.505  1.8735 -0.9459  3.4320
  107CHL1   C1214135   3.713   7.085   7.607 -0.4584 -0.1621  0.3356
  107CHL1  H12A14136   3.768   7.117   7.515 -0.3809 -0.0148  0.4324
  107CHL1  H12B14137   3.633   7.161   7.619  0.3992  1.1913 -1.8253
  107CHL1   C1114138   3.820   7.083   7.717 -0.0816  0.7905 -0.0190
  107CHL1  H11A14139   3.917   7.040   7.683 -0.6283  0.1672 -0.8329
  107CHL1  H11B14140   3.833   7.189   7.746 -1.8739  0.7722  1.0276
  107CHL1    C914141   3.776   7.014   7.852  0.0368 -0.3795  0.6367
  107CHL1    H914142   3.695   7.075   7.896  0.7606  0.2325  1.1540
  107CHL1   C1014143   3.883   7.008   7.964  0.0093 -0.0874 -0.8771
  107CHL1   C1914144   4.008   6.919   7.915  0.4617 -0.6068  0.4444
  107CHL1  H19A14145   4.050   6.960   7.821 -1.5053  1.6628  0.4458
  107CHL1  H19B14146   4.088   6.929   7.991  0.8597  1.0709 -0.1575
  107CHL1  H19C14147   3.976   6.815   7.896  0.5170 -0.3588 -1.1530
  107CHL1    C114148   3.920   7.148   8.003  0.2681 -0.0564  0.3785
  107CHL1   H1A14149   3.965   7.192   7.911  0.2129 -0.5262  0.1263
  107CHL1   H1B14150   3.828   7.207   8.023 -2.1126 -2.7101 -1.8224
  107CHL1    C214151   4.011   7.158   8.118  0.4112 -0.4380 -0.1920
  107CHL1   H2A14152   4.037   7.264   8.135  1.4415 -0.6078 -0.6659
  107CHL1   H2B14153   4.100   7.093   8.103 -0.9739 -2.4819  0.0355
  107CHL1   C2014154   3.539   6.917   7.353 -0.1286  0.0780 -0.1370
  107CHL1   H2014155   3.619   6.847   7.322  0.2935  1.4421 -2.3638
  107CHL1   C2114156   3.593   7.057   7.303  0.0495 -0.0718 -0.5783
  107CHL1  H21A14157   3.698   7.081   7.326 -0.2166  1.6386 -1.0438
  107CHL1  H21B14158   3.528   7.140   7.340 -0.0710 -0.0936 -0.7381
  107CHL1  H21C14159   3.597   7.056   7.192 -0.8005  0.0226 -0.6201
  107CHL1   C2214160   3.401   6.883   7.275 -0.1922 -0.9157 -0.0555
  107CHL1  H22A14161   3.362   6.786   7.313  1.1439 -0.1753  3.7227
  107CHL1  H22B14162   3.329   6.966   7.288 -0.3108 -1.1571  0.9992
  107CHL1   C2314163   3.435   6.861   7.123  0.3219  0.0121  0.2917
  107CHL1  H23A14164   3.445   6.961   7.075  1.1734  0.0862  0.6014
  107CHL1  H23B14165   3.530   6.805   7.113  0.2639 -0.2661  1.1872
  107CHL1   C2414166   3.313   6.796   7.051 -0.3214  0.4669  0.3253
  107CHL1  H24A14167   3.288   6.720   7.128 -0.4668  1.9499  1.7974
  107CHL1  H24B14168   3.230   6.869   7.061 -2.0451 -1.2181 -0.8892
  107CHL1   C2514169   3.320   6.742   6.903  0.1534  0.2320 -0.8437
  107CHL1   H2514170   3.343   6.824   6.832  1.0185  0.9046  0.1917
  107CHL1   C2614171   3.434   6.643   6.886 -0.8165  0.4732  0.0215
  107CHL1  H26A14172   3.441   6.615   6.779 -1.5363  1.6574 -0.3470
  107CHL1  H26B14173   3.531   6.694   6.903 -1.3018  1.1569  0.8102
  107CHL1  H26C14174   3.440   6.552   6.951  0.7750 -1.1577 -2.2618
  107CHL1   C2714175   3.186   6.674   6.866 -0.3030 -0.4684 -0.0140
  107CHL1  H27A14176   3.171   6.589   6.936  0.6116  0.3396  1.2100
  107CHL1  H27B14177   3.101   6.745   6.873  0.2262  0.2146 -0.4131
  107CHL1  H27C14178   3.191   6.625   6.766  0.8313 -1.3827  0.4675
  108CHL1    C314179   6.065   2.336   8.391  0.2756 -0.3587  0.1349
  108CHL1    H314180   6.087   2.433   8.340  0.7797  0.1715  1.3302
  108CHL1    O314181   5.991   2.366   8.509  0.3601  0.1355  0.2410
  108CHL1   H3'14182   5.907   2.407   8.489 -0.1883 -1.1278 -0.1924
  108CHL1    C414183   5.976   2.252   8.297 -0.0207 -0.4990 -0.4568
  108CHL1   H4A14184   5.932   2.162   8.345 -1.8707 -1.0448 -2.9561
  108CHL1   H4B14185   5.887   2.313   8.269  0.8634  0.3273 -1.5589
  108CHL1    C514186   6.047   2.223   8.165  0.1950 -0.2835  0.0017
  108CHL1    C614187   5.994   2.257   8.048 -0.3019 -0.5031 -0.2655
  108CHL1    H614188   5.892   2.299   8.041 -0.0202  0.4953  1.1810
  108CHL1    C714189   6.072   2.218   7.918  0.4647  0.7188 -0.0008
  108CHL1   H7A14190   5.995   2.172   7.853  1.3477  1.3514 -1.5554
  108CHL1   H7B14191   6.114   2.308   7.868  0.1327  0.0006 -1.6704
  108CHL1    C814192   6.192   2.123   7.927 -0.6304  0.6353 -0.5458
  108CHL1    H814193   6.151   2.020   7.940 -0.8497  0.6808 -0.8704
  108CHL1   C1414194   6.275   2.134   7.805  0.0248  0.8286  0.0208
  108CHL1   H1414195   6.307   2.240   7.807  1.1154  0.5271 -0.6387
  108CHL1   C1514196   6.195   2.114   7.672  0.3406  0.6255 -0.1139
  108CHL1  H15A14197   6.128   2.026   7.685  1.4837 -0.1950  0.3633
  108CHL1  H15B14198   6.141   2.208   7.647 -3.3648 -1.5839 -1.3523
  108CHL1   C1614199   6.311   2.077   7.573  0.3405 -0.6748 -0.5429
  108CHL1  H16A14200   6.299   1.990   7.505  0.7319 -1.4622  0.3823
  108CHL1  H16B14201   6.325   2.170   7.514 -2.1337  1.4889  1.9806
  108CHL1   C1714202   6.442   2.063   7.657  0.0502 -0.4058  0.2730
  108CHL1   H1714203   6.476   2.168   7.662  0.8290 -0.7040  2.6272
  108CHL1   C1314204   6.391   2.038   7.804  0.4591 -0.3708 -0.6419
  108CHL1   C1814205   6.334   1.895   7.808  0.2117  0.1061  0.2772
  108CHL1  H18A14206   6.406   1.818   7.774 -0.3264  0.9133 -3.1046
  108CHL1  H18B14207   6.283   1.871   7.903  0.0927  0.7345  0.3810
  108CHL1  H18C14208   6.254   1.879   7.732  0.3123  1.8141 -0.2368
  108CHL1   C1214209   6.486   2.085   7.926 -0.8073  0.3387 -0.5794
  108CHL1  H12A14210   6.579   2.024   7.922  0.6928  2.5170 -2.7299
  108CHL1  H12B14211   6.522   2.189   7.906  3.4651 -1.1416 -1.7716
  108CHL1   C1114212   6.408   2.080   8.057 -0.1303 -0.1972  0.0443
  108CHL1  H11A14213   6.386   1.976   8.086  0.2074 -0.3770 -0.3303
  108CHL1  H11B14214   6.476   2.123   8.133  0.7700 -1.3162 -0.1060
  108CHL1    C914215   6.269   2.160   8.050  1.0070 -0.3090 -0.7419
  108CHL1    H914216   6.297   2.266   8.035  0.5315  0.5778  3.4426
  108CHL1   C1014217   6.188   2.159   8.182 -0.0116  0.1945  0.0123
  108CHL1   C1914218   6.165   2.013   8.229 -0.1058  0.6143  0.6386
  108CHL1  H19A14219   6.125   1.941   8.154 -0.8997 -1.1494  2.6486
  108CHL1  H19B14220   6.255   1.962   8.268  0.0206  0.2923 -0.0647
  108CHL1  H19C14221   6.101   2.016   8.320 -0.3739 -1.4078  0.5672
  108CHL1    C114222   6.279   2.224   8.289  0.1768  0.1343  0.6819
  108CHL1   H1A14223   6.368   2.163   8.315  0.4744 -0.3186 -1.3078
  108CHL1   H1B14224   6.318   2.317   8.243  1.2760 -0.7607 -0.2488
  108CHL1    C214225   6.207   2.269   8.416  0.8760  0.4434 -0.6298
  108CHL1   H2A14226   6.273   2.342   8.469  0.2504  1.0566 -0.6730
  108CHL1   H2B14227   6.195   2.181   8.483  1.0845 -0.7449 -2.1099
  108CHL1   C2014228   6.546   1.972   7.597 -0.2823 -1.0098  0.3881
  108CHL1   H2014229   6.513   1.867   7.615 -0.5651 -1.0809 -0.4936
  108CHL1   C2114230   6.682   2.007   7.670 -0.5031  0.3108  1.0912
  108CHL1  H21A14231   6.681   1.971   7.775  0.1104  0.8442  1.2856
  108CHL1  H21B14232   6.695   2.118   7.663 -0.4930  0.2055 -2.6189
  108CHL1  H21C14233   6.770   1.959   7.622  1.6598  3.3994  1.6561
  108CHL1   C2214234   6.574   1.979   7.445  0.2853 -0.4500 -0.0310
  108CHL1  H22A14235   6.665   1.919   7.423 -0.4501 -0.9624 -1.8077
  108CHL1  H22B14236   6.492   1.928   7.390 -2.2889  1.1929  2.0063
  108CHL1   C2314237   6.597   2.119   7.388 -0.2042  0.2311 -0.0335
  108CHL1  H23A14238   6.505   2.180   7.402 -0.5527 -0.5238  1.0895
  108CHL1  H23B14239   6.677   2.165   7.449 -0.9974  0.6191  0.7411
  108CHL1   C2414240   6.650   2.105   7.245 -0.5101 -0.0403  0.5561
  108CHL1  H24A14241   6.734   2.177   7.240  1.1832 -1.9740 -0.5802
  108CHL1  H24B14242   6.708   2.014   7.219  1.8641  1.5665 -0.1545
  108CHL1   C2514243   6.551   2.138   7.127  0.5290 -0.0845  0.1207
  108CHL1   H2514244   6.487   2.048   7.111 -0.6445  0.8719 -0.8174
  108CHL1   C2614245   6.463   2.256   7.163 -0.5329  0.1668 -0.4007
  108CHL1  H26A14246   6.394   2.244   7.249  0.5152 -2.3783  0.1609
  108CHL1  H26B14247   6.533   2.335   7.197 -0.3665 -0.2229  0.1801
  108CHL1  H26C14248   6.408   2.286   7.071  0.6450 -0.3169 -1.2911
  108CHL1   C2714249   6.629   2.159   6.998 -0.2694  0.1164 -0.1251
  108CHL1  H27A14250   6.568   2.195   6.912 -0.8333  1.2329  0.7280
  108CHL1  H27B14251   6.709   2.235   7.009 -0.8002  1.2668 -3.1706
  108CHL1  H27C14252   6.683   2.067   6.967 -0.3174  0.3614 -0.9831
  109CHL1    C314253   3.024   6.577   8.518  0.2693  0.6024  0.6363
  109CHL1    H314254   3.054   6.671   8.467  1.1792 -0.7212 -1.3692
  109CHL1    O314255   3.024   6.593   8.655 -0.2604 -0.0513 -0.5971
  109CHL1   H3'14256   3.014   6.505   8.692 -3.1325  0.8065  0.9642
  109CHL1    C414257   2.877   6.550   8.476 -0.0321  0.7530  0.4156
  109CHL1   H4A14258   2.849   6.457   8.531  0.3123 -0.0277 -0.6955
  109CHL1   H4B14259   2.813   6.622   8.531 -0.7266 -0.4269  1.2174
  109CHL1    C514260   2.854   6.532   8.327  0.1166  0.4467 -0.0116
  109CHL1    C614261   2.772   6.614   8.259 -0.3308  0.0935  0.3362
  109CHL1    H614262   2.707   6.688   8.308  0.2389  2.7162 -2.5059
  109CHL1    C714263   2.746   6.596   8.114 -0.1766 -0.4705  0.2822
  109CHL1   H7A14264   2.637   6.602   8.093  0.0168 -0.3554 -0.7329
  109CHL1   H7B14265   2.789   6.679   8.054 -2.1394 -0.0546 -0.6463
  109CHL1    C814266   2.807   6.466   8.052  0.3314 -0.3268  0.3966
  109CHL1    H814267   2.734   6.384   8.067 -0.6215  0.3736 -0.2533
  109CHL1   C1414268   2.824   6.470   7.900 -0.2845  0.0244  0.3915
  109CHL1   H1414269   2.902   6.546   7.882 -0.4982  0.1035 -0.1920
  109CHL1   C1514270   2.703   6.514   7.813 -0.3456  0.3561 -0.5795
  109CHL1  H15A14271   2.611   6.454   7.830 -0.6134  1.3734  2.2338
  109CHL1  H15B14272   2.686   6.622   7.836  0.2598  0.6538 -1.4713
  109CHL1   C1614273   2.751   6.485   7.671 -0.2671 -0.2688 -0.3195
  109CHL1  H16A14274   2.674   6.430   7.613  1.7982 -2.4102 -1.2579
  109CHL1  H16B14275   2.781   6.578   7.619  2.8488 -0.5260  0.7839
  109CHL1   C1714276   2.877   6.387   7.687  0.2436 -0.5346  0.0872
  109CHL1   H1714277   2.960   6.458   7.670  0.4142 -0.7373  0.0767
  109CHL1   C1314278   2.884   6.342   7.839 -0.1903 -0.2111  0.5001
  109CHL1   C1814279   2.785   6.218   7.861  0.1827  0.7803 -0.1948
  109CHL1  H18A14280   2.682   6.236   7.824  0.2123  0.6855 -0.3271
  109CHL1  H18B14281   2.822   6.131   7.803 -0.3185  0.2633  0.2510
  109CHL1  H18C14282   2.785   6.197   7.970 -2.2611 -1.2725 -0.4956
  109CHL1   C1214283   3.022   6.325   7.904  0.8391 -0.5045  0.1629
  109CHL1  H12A14284   3.081   6.240   7.862  1.3730 -0.7681  1.4069
  109CHL1  H12B14285   3.087   6.411   7.879  0.6154  0.1532  1.7131
  109CHL1   C1114286   3.004   6.310   8.050 -0.2906  0.1490 -0.3511
  109CHL1  H11A14287   2.962   6.210   8.074  0.9389 -0.3821 -0.3671
  109CHL1  H11B14288   3.108   6.312   8.089 -0.0145  0.3005 -1.0780
  109CHL1    C914289   2.938   6.429   8.121 -0.0735  0.1538  0.0265
  109CHL1    H914290   3.005   6.516   8.106 -0.3835  0.3318 -0.3634
  109CHL1   C1014291   2.942   6.422   8.272  0.1387 -0.6303  0.0847
  109CHL1   C1914292   2.881   6.284   8.318  0.4496  0.3780 -0.3932
  109CHL1  H19A14293   2.949   6.202   8.286 -0.3947 -0.1008 -0.9827
  109CHL1  H19B14294   2.878   6.272   8.428  1.0293 -0.4161 -0.4545
  109CHL1  H19C14295   2.778   6.265   8.280 -0.1159  2.6212 -0.1253
  109CHL1    C114296   3.091   6.431   8.319 -0.7251  0.1430  0.4088
  109CHL1   H1A14297   3.130   6.332   8.285 -0.3284  0.8331 -1.2503
  109CHL1   H1B14298   3.144   6.516   8.272  1.4643 -0.6370  1.2896
  109CHL1    C214299   3.114   6.458   8.470  0.3618 -0.3393  0.2718
  109CHL1   H2A14300   3.222   6.475   8.491  1.4131 -2.1195 -2.9084
  109CHL1   H2B14301   3.091   6.359   8.514  1.9652 -0.7021  0.3767
  109CHL1   C2014302   2.887   6.281   7.580  0.4080  0.8845  0.3685
  109CHL1   H2014303   2.807   6.205   7.591  0.9546  0.1691 -0.4253
  109CHL1   C2114304   3.028   6.216   7.576  0.1452  0.0339 -0.0039
  109CHL1  H21A14305   3.028   6.134   7.502  0.0455  0.1747 -0.1616
  109CHL1  H21B14306   3.057   6.187   7.679 -4.4729 -0.3811  1.4323
  109CHL1  H21C14307   3.090   6.297   7.531 -0.6154 -0.5465 -2.2257
  109CHL1   C2214308   2.853   6.339   7.445  0.3513 -0.6106  0.1773
  109CHL1  H22A14309   2.751   6.380   7.437  0.7600  0.5186  0.6210
  109CHL1  H22B14310   2.923   6.423   7.425  1.0219 -0.4435  2.9226
  109CHL1   C2314311   2.851   6.226   7.339  0.2699  0.0657 -0.4705
  109CHL1  H23A14312   2.952   6.183   7.319  1.5815  2.2562  0.8800
  109CHL1  H23B14313   2.797   6.141   7.384  1.8705 -0.2033  1.0696
  109CHL1   C2414314   2.802   6.281   7.198 -0.0977  0.9338 -0.5223
  109CHL1  H24A14315   2.795   6.199   7.124  0.5423  0.8240 -0.4697
  109CHL1  H24B14316   2.697   6.315   7.211 -0.9060 -0.3843 -3.0274
  109CHL1   C2514317   2.887   6.388   7.120  0.0921  0.4098 -0.5967
  109CHL1   H2514318   2.888   6.484   7.175  1.8386  0.2671 -0.3176
  109CHL1   C2614319   3.031   6.337   7.104 -0.6305  0.3171  0.7501
  109CHL1  H26A14320   3.082   6.357   7.201 -0.8030 -2.1439  1.4193
  109CHL1  H26B14321   3.041   6.228   7.088  3.3771  0.4479  1.2825
  109CHL1  H26C14322   3.089   6.393   7.027  0.6571 -1.7860  0.1158
  109CHL1   C2714323   2.833   6.411   6.972  0.0399 -0.0046 -0.7112
  109CHL1  H27A14324   2.744   6.477   6.978  0.1804  0.1375 -0.1327
  109CHL1  H27B14325   2.912   6.457   6.909  0.7104 -0.7328 -0.4213
  109CHL1  H27C14326   2.799   6.318   6.923  0.7670 -0.5557 -0.1947
  110CHL1    C314327   0.923   6.873   7.992  0.1490 -0.8484 -0.3240
  110CHL1    H314328   0.835   6.811   8.019 -1.1712  1.0913  0.1232
  110CHL1    O314329   0.944   6.977   8.095  0.3764 -0.2319 -0.1751
  110CHL1   H3'14330   1.036   6.996   8.076  0.5295 -0.6957  0.0699
  110CHL1    C414331   1.046   6.787   7.979 -0.3780  0.3213 -0.1663
  110CHL1   H4A14332   1.138   6.849   7.967 -0.4785  0.4037 -0.5215
  110CHL1   H4B14333   1.073   6.734   8.073  1.9866 -1.3190 -1.6454
  110CHL1    C514334   1.025   6.683   7.869  0.1774  0.7459 -0.4238
  110CHL1    C614335   1.044   6.555   7.900  0.5506  0.5266 -0.4103
  110CHL1    H614336   1.086   6.541   8.001  1.9972 -0.0207 -1.0544
  110CHL1    C714337   1.033   6.452   7.797 -0.2646  0.2848  0.1003
  110CHL1   H7A14338   1.118   6.381   7.789  0.3557  1.0511 -0.3167
  110CHL1   H7B14339   0.941   6.395   7.822 -0.5635  1.2465  1.2923
  110CHL1    C814340   1.021   6.504   7.650  0.7151 -0.2351  0.5801
  110CHL1    H814341   1.121   6.542   7.620 -0.0221  0.9005 -0.5390
  110CHL1   C1414342   0.986   6.399   7.545 -0.1416  0.3439  0.1206
  110CHL1   H1414343   0.888   6.355   7.574 -0.3362 -0.8456 -2.1181
  110CHL1   C1514344   1.069   6.270   7.534  0.0199  0.1286  0.2394
  110CHL1  H15A14345   1.177   6.297   7.534  0.3459 -1.0932 -0.7840
  110CHL1  H15B14346   1.047   6.211   7.625 -1.7826 -0.3733 -0.4857
  110CHL1   C1614347   1.033   6.212   7.402  0.5189  0.5169 -0.5119
  110CHL1  H16A14348   1.120   6.187   7.337 -0.0376  2.2960 -2.0016
  110CHL1  H16B14349   0.980   6.118   7.430 -0.0358  1.0844  0.3807
  110CHL1   C1714350   0.946   6.319   7.325 -0.0849  0.5266 -0.6144
  110CHL1   H1714351   0.840   6.295   7.346 -0.0845  0.9101 -0.1444
  110CHL1   C1314352   0.975   6.451   7.400 -0.7530 -0.0561 -0.6281
  110CHL1   C1814353   1.114   6.504   7.360 -0.3222 -0.8878  0.3562
  110CHL1  H18A14354   1.093   6.543   7.258 -0.3991 -0.5448  0.5044
  110CHL1  H18B14355   1.142   6.593   7.420 -0.0092  0.3416 -1.5253
  110CHL1  H18C14356   1.196   6.429   7.355 -0.7402 -1.4545  1.6933
  110CHL1   C1214357   0.869   6.561   7.400 -0.1576 -1.0994 -0.2202
  110CHL1  H12A14358   0.854   6.607   7.300  0.4700  0.0437  0.2042
  110CHL1  H12B14359   0.776   6.512   7.435 -0.8592  0.8193  0.7539
  110CHL1   C1114360   0.893   6.674   7.501 -0.5765  0.5897  0.3789
  110CHL1  H11A14361   0.972   6.736   7.454  0.4638  0.1977  1.5539
  110CHL1  H11B14362   0.798   6.732   7.494 -1.5252 -0.6619  1.9953
  110CHL1    C914363   0.922   6.627   7.644 -0.0096 -0.4146  0.3291
  110CHL1    H914364   0.822   6.594   7.678  0.3289 -2.3789 -0.3969
  110CHL1   C1014365   0.984   6.735   7.735  0.7460  0.1120  0.4350
  110CHL1   C1914366   1.113   6.795   7.673  0.7490 -0.6538  0.1005
  110CHL1  H19A14367   1.079   6.848   7.582 -0.3185  0.9903  1.3941
  110CHL1  H19B14368   1.161   6.876   7.732  0.8902  0.9113 -2.0437
  110CHL1  H19C14369   1.192   6.719   7.655 -0.0824 -1.1670 -1.5184
  110CHL1    C114370   0.873   6.849   7.749 -0.2907 -0.3408  0.3027
  110CHL1   H1A14371   0.874   6.893   7.648 -1.2959 -1.9495 -0.4522
  110CHL1   H1B14372   0.773   6.802   7.764 -0.1925  0.1089  2.9226
  110CHL1    C214373   0.894   6.950   7.862 -0.3935  0.3013  0.4056
  110CHL1   H2A14374   0.802   7.011   7.880  1.0297  2.4395  0.7609
  110CHL1   H2B14375   0.976   7.016   7.826 -0.4253  0.9119  1.3943
  110CHL1   C2014376   0.974   6.309   7.169  0.1347  0.5794 -1.0834
  110CHL1   H2014377   1.081   6.332   7.149  1.3729 -1.9840  1.7334
  110CHL1   C2114378   0.887   6.408   7.087  0.0772  0.8851 -0.3495
  110CHL1  H21A14379   0.900   6.514   7.116  0.0432  0.8332 -0.1462
  110CHL1  H21B14380   0.779   6.384   7.078  0.4652 -0.7934 -0.9963
  110CHL1  H21C14381   0.929   6.412   6.984  2.3148  1.2777  0.5224
  110CHL1   C2214382   0.957   6.165   7.110  0.7984  0.1159 -0.1579
  110CHL1  H22A14383   1.003   6.087   7.175 -3.1727 -1.6663  0.7901
  110CHL1  H22B14384   0.850   6.136   7.110  0.4960  1.1978  0.2564
  110CHL1   C2314385   1.004   6.150   6.970 -0.6933 -0.3610  0.3457
  110CHL1  H23A14386   1.005   6.044   6.935  0.6971 -0.3334  0.2341
  110CHL1  H23B14387   0.939   6.197   6.893  0.8306 -2.2820 -2.2888
  110CHL1   C2414388   1.150   6.196   6.954 -0.1164  0.5829 -0.3520
  110CHL1  H24A14389   1.148   6.299   6.912 -2.5319  0.0038 -1.8776
  110CHL1  H24B14390   1.210   6.190   7.047  1.6155  1.6356 -1.3424
  110CHL1   C2514391   1.236   6.114   6.859 -0.7109 -0.4247  0.5329
  110CHL1   H2514392   1.193   6.110   6.756 -1.9773 -3.5816  1.0559
  110CHL1   C2614393   1.383   6.171   6.845 -0.1170 -0.0940  0.4827
  110CHL1  H26A14394   1.383   6.271   6.798  1.4405 -0.0824  0.4334
  110CHL1  H26B14395   1.429   6.184   6.945  0.1082  0.5468  0.2976
  110CHL1  H26C14396   1.455   6.109   6.787 -0.6681 -0.6948  0.4275
  110CHL1   C2714397   1.251   5.969   6.897 -0.8814 -0.3519 -0.2429
  110CHL1  H27A14398   1.165   5.910   6.935 -0.0494  0.3403  3.0126
  110CHL1  H27B14399   1.300   5.917   6.812  1.1850  0.8597  0.1412
  110CHL1  H27C14400   1.329   5.945   6.973 -0.1163  1.1002 -0.5343
  111CHL1    C314401   2.845   1.914   7.934 -0.0192  0.3866  0.1816
  111CHL1    H314402   2.822   1.845   7.850  1.4187 -1.5620  1.3265
  111CHL1    O314403   2.793   1.869   8.053 -0.2171  0.2810 -0.3176
  111CHL1   H3'14404   2.839   1.917   8.122 -1.7962 -0.9752  1.7590
  111CHL1    C414405   2.999   1.921   7.953 -0.4708  0.6464  0.8947
  111CHL1   H4A14406   3.025   1.984   8.040 -0.5273  0.4547  1.0493
  111CHL1   H4B14407   3.037   1.817   7.962  0.5178  0.7467 -1.2838
  111CHL1    C514408   3.076   1.986   7.840 -0.4615  0.6891  0.4409
  111CHL1    C614409   3.186   1.925   7.792  0.5936  0.3825 -0.2757
  111CHL1    H614410   3.217   1.831   7.841  1.3802  0.4693 -0.5952
  111CHL1    C714411   3.267   1.965   7.672 -0.3223  0.0118  0.8169
  111CHL1   H7A14412   3.378   1.966   7.682 -0.3252  0.7531  0.8444
  111CHL1   H7B14413   3.239   1.898   7.588  0.5150  0.0115  0.5285
  111CHL1    C814414   3.221   2.109   7.628 -0.2724 -0.5732  0.5353
  111CHL1    H814415   3.278   2.180   7.692  0.1961 -0.7609  0.3315
  111CHL1   C1414416   3.268   2.135   7.482  0.0325 -0.9347  0.5134
  111CHL1   H1414417   3.212   2.061   7.422 -1.1342  1.1603 -1.1160
  111CHL1   C1514418   3.413   2.115   7.451 -0.5777 -0.0402 -0.1190
  111CHL1  H15A14419   3.480   2.151   7.533 -2.2878  3.0739  0.0624
  111CHL1  H15B14420   3.436   2.008   7.433  2.9439 -0.1479  3.5204
  111CHL1   C1614421   3.440   2.193   7.321  0.4619 -0.4335 -0.3151
  111CHL1  H16A14422   3.527   2.257   7.348 -2.0874  2.8256  0.9417
  111CHL1  H16B14423   3.458   2.130   7.231  0.1812  0.2094 -0.8289
  111CHL1   C1714424   3.315   2.284   7.301 -0.0574 -0.2147  0.6434
  111CHL1   H1714425   3.254   2.236   7.222 -0.5332  0.3242  0.6747
  111CHL1   C1314426   3.231   2.276   7.432  0.2091  0.2745 -0.1049
  111CHL1   C1814427   3.281   2.390   7.529  0.1556  0.2846  0.7199
  111CHL1  H18A14428   3.256   2.366   7.634 -0.6426 -0.8931  0.2825
  111CHL1  H18B14429   3.392   2.401   7.525 -0.0357  2.1730 -0.1911
  111CHL1  H18C14430   3.220   2.482   7.517 -0.1271 -0.1714 -1.8465
  111CHL1   C1214431   3.079   2.285   7.417 -0.5086  0.8046  0.2312
  111CHL1  H12A14432   3.043   2.382   7.375 -3.9889 -0.4676 -0.0328
  111CHL1  H12B14433   3.044   2.205   7.348 -2.0360  0.8405  0.9135
  111CHL1   C1114434   3.017   2.256   7.556 -0.0842 -0.5736 -0.1434
  111CHL1  H11A14435   3.028   2.343   7.625  0.0866 -2.0534  1.7860
  111CHL1  H11B14436   2.909   2.251   7.528  0.0297 -0.6173 -0.5728
  111CHL1    C914437   3.070   2.131   7.635 -0.7060  0.7331 -0.0526
  111CHL1    H914438   3.033   2.048   7.571 -0.2169  0.7177 -0.3276
  111CHL1   C1014439   3.013   2.106   7.772  0.0480 -0.3385 -0.7605
  111CHL1   C1914440   3.053   2.230   7.870  0.2203  0.6347 -0.1243
  111CHL1  H19A14441   3.163   2.230   7.887  0.0109 -0.8144  1.5647
  111CHL1  H19B14442   3.019   2.328   7.831  0.2770  0.0060 -1.8122
  111CHL1  H19C14443   2.985   2.214   7.956 -0.2292  0.4492 -0.5091
  111CHL1    C114444   2.857   2.104   7.766 -0.5671  0.5204 -0.2189
  111CHL1   H1A14445   2.820   2.207   7.749  2.0232  1.8991  1.7778
  111CHL1   H1B14446   2.827   2.038   7.682 -2.9102 -1.1349  1.7679
  111CHL1    C214447   2.786   2.048   7.896  0.5771 -0.6115 -0.0859
  111CHL1   H2A14448   2.677   2.027   7.895  0.5986 -0.7632  0.3075
  111CHL1   H2B14449   2.797   2.113   7.985  0.0337 -2.2171  1.2131
  111CHL1   C2014450   3.348   2.425   7.242  0.2078  0.4219 -0.8849
  111CHL1   H2014451   3.420   2.474   7.311  0.0410  0.8928 -1.0405
  111CHL1   C2114452   3.225   2.511   7.220 -0.7899 -0.1780  0.7620
  111CHL1  H21A14453   3.175   2.534   7.317  0.2350  2.3187  0.7776
  111CHL1  H21B14454   3.151   2.468   7.149  1.4022 -0.6658 -1.3543
  111CHL1  H21C14455   3.261   2.601   7.167 -0.6761 -1.2299 -1.0226
  111CHL1   C2214456   3.443   2.421   7.111  0.1511 -0.0334 -0.7564
  111CHL1  H22A14457   3.523   2.351   7.141 -0.6738  0.4932  3.1514
  111CHL1  H22B14458   3.382   2.371   7.032 -0.6036  1.3306 -1.0648
  111CHL1   C2314459   3.495   2.553   7.058 -0.2009  0.0490 -0.4010
  111CHL1  H23A14460   3.401   2.593   7.013 -1.3053 -1.8311  0.1367
  111CHL1  H23B14461   3.527   2.622   7.139  1.3042 -0.0459 -0.8768
  111CHL1   C2414462   3.609   2.539   6.951  0.3078 -0.6456 -0.1876
  111CHL1  H24A14463   3.557   2.517   6.855 -2.4908 -0.1651  1.1154
  111CHL1  H24B14464   3.654   2.640   6.934 -0.4119 -0.4543 -1.0775
  111CHL1   C2514465   3.717   2.426   6.973  0.1047 -0.7454  0.3464
  111CHL1   H2514466   3.676   2.336   7.022 -1.7044  0.4846  1.1846
  111CHL1   C2614467   3.771   2.389   6.833  0.3691 -1.0841 -0.3395
  111CHL1  H26A14468   3.812   2.474   6.774 -0.2794 -1.5200 -1.4471
  111CHL1  H26B14469   3.851   2.312   6.841  1.0303 -0.4258 -0.5091
  111CHL1  H26C14470   3.688   2.343   6.774  0.0086 -1.7953  0.6925
  111CHL1   C2714471   3.831   2.479   7.064  0.3017  0.3442  0.4756
  111CHL1  H27A14472   3.776   2.513   7.155 -0.0943 -2.8323  1.5629
  111CHL1  H27B14473   3.907   2.400   7.080  0.5991  0.4300 -0.4610
  111CHL1  H27C14474   3.883   2.568   7.022  0.7964 -0.1560  0.0261
  112CHL1    C314475   5.055   2.097   7.955  0.2834  0.0250  0.6289
  112CHL1    H314476   5.146   2.054   7.910 -1.0152 -3.2326  0.8578
  112CHL1    O314477   5.090   2.168   8.070 -0.4259 -0.6761  0.4732
  112CHL1   H3'14478   5.012   2.179   8.125  0.9167  1.9610  2.0943
  112CHL1    C414479   4.980   2.198   7.865 -0.6441 -0.1676  0.0031
  112CHL1   H4A14480   4.883   2.233   7.906  0.1251 -0.3553  2.1457
  112CHL1   H4B14481   5.048   2.285   7.852 -2.7361  1.7102  0.8619
  112CHL1    C514482   4.951   2.135   7.730 -0.0591 -0.3427 -0.0399
  112CHL1    C614483   5.014   2.184   7.616  0.1083  0.2962 -0.2065
  112CHL1    H614484   5.069   2.279   7.623  1.5999 -0.3808 -1.8409
  112CHL1    C714485   4.996   2.123   7.482  0.1891  0.3234 -0.3049
  112CHL1   H7A14486   4.976   2.193   7.398  0.0923  0.4226 -0.1986
  112CHL1   H7B14487   5.082   2.063   7.444 -1.3881 -1.6652 -0.9169
  112CHL1    C814488   4.879   2.018   7.476 -0.2612  0.1739 -0.3388
  112CHL1    H814489   4.789   2.082   7.466  0.0112  0.5314 -0.5767
  112CHL1   C1414490   4.888   1.931   7.348  0.0637 -0.4249 -0.0925
  112CHL1   H1414491   4.979   1.867   7.359  0.3022  0.0891  1.0399
  112CHL1   C1514492   4.884   2.004   7.216 -0.4372  0.5654  0.0067
  112CHL1  H15A14493   4.816   2.092   7.206  1.1837  1.9609  0.8156
  112CHL1  H15B14494   4.988   2.034   7.190  0.0050 -0.3566  0.6889
  112CHL1   C1614495   4.840   1.889   7.118 -0.4740 -0.4207  0.4908
  112CHL1  H16A14496   4.759   1.933   7.057  3.4655  1.8350 -3.6771
  112CHL1  H16B14497   4.924   1.866   7.049  0.1143 -1.0115  1.3770
  112CHL1   C1714498   4.797   1.770   7.207  0.4642 -1.1088  0.0544
  112CHL1   H1714499   4.892   1.713   7.217  2.3360  1.4064 -1.9663
  112CHL1   C1314500   4.764   1.836   7.338  0.5117 -0.1047 -0.2544
  112CHL1   C1814501   4.634   1.921   7.326 -0.0542 -0.0088 -0.7538
  112CHL1  H18A14502   4.630   1.982   7.420 -1.6365  2.7626 -2.4676
  112CHL1  H18B14503   4.624   1.979   7.232  2.9774  1.1779 -0.4691
  112CHL1  H18C14504   4.544   1.857   7.341  0.3893 -0.0543  2.6218
  112CHL1   C1214505   4.766   1.742   7.455  0.2924  0.4281 -0.8164
  112CHL1  H12A14506   4.675   1.679   7.464  0.5739  0.1548  0.3013
  112CHL1  H12B14507   4.855   1.676   7.461 -1.6194 -2.3094 -0.6460
  112CHL1   C1114508   4.766   1.824   7.590 -0.2291 -0.2586 -0.0956
  112CHL1  H11A14509   4.666   1.874   7.592  0.0362  0.3231 -1.0631
  112CHL1  H11B14510   4.757   1.755   7.677 -1.2911 -0.9654 -0.7275
  112CHL1    C914511   4.877   1.929   7.604 -0.0208 -0.0664  1.3520
  112CHL1    H914512   4.967   1.864   7.605  1.8805  2.3686  0.4018
  112CHL1   C1014513   4.866   2.009   7.736 -0.2846  0.0531 -0.2524
  112CHL1   C1914514   4.725   2.056   7.770  0.5920 -0.5245  0.3903
  112CHL1  H19A14515   4.650   1.975   7.777  0.7451 -0.6023  1.2817
  112CHL1  H19B14516   4.712   2.103   7.869  2.6423 -0.7525  0.8090
  112CHL1  H19C14517   4.674   2.123   7.698  0.2264 -0.8938  0.3039
  112CHL1    C114518   4.916   1.919   7.851 -1.2027 -0.7834 -0.3700
  112CHL1   H1A14519   4.835   1.847   7.876 -2.3195  0.6671  0.3212
  112CHL1   H1B14520   5.012   1.870   7.823 -0.8227 -1.1413  1.4201
  112CHL1    C214521   4.953   1.992   7.989  0.1257 -0.0291  0.0275
  112CHL1   H2A14522   4.992   1.923   8.068  0.5289  0.8341  0.5931
  112CHL1   H2B14523   4.863   2.041   8.030  0.1235 -0.0703  0.0716
  112CHL1   C2014524   4.697   1.673   7.136  0.0020  0.0448  0.0338
  112CHL1   H2014525   4.604   1.733   7.123 -1.2258 -1.2787  2.2258
  112CHL1   C2114526   4.667   1.549   7.214  0.0106  0.4741 -0.4171
  112CHL1  H21A14527   4.755   1.481   7.219 -0.3865  0.0147  0.6000
  112CHL1  H21B14528   4.593   1.488   7.157 -0.4008  0.7977 -0.2335
  112CHL1  H21C14529   4.632   1.569   7.317  0.9218 -0.1465  0.0251
  112CHL1   C2214530   4.727   1.639   6.987 -0.6410 -0.1705 -0.3456
  112CHL1  H22A14531   4.634   1.590   6.950 -1.2740  0.4111  0.4267
  112CHL1  H22B14532   4.742   1.731   6.928 -1.8695  0.4952  0.3301
  112CHL1   C2314533   4.836   1.537   6.959 -0.0880 -0.1930  0.3520
  112CHL1  H23A14534   4.914   1.574   7.028 -0.5092  1.8628 -0.2094
  112CHL1  H23B14535   4.799   1.434   6.974 -0.9900 -0.0208 -0.5771
  112CHL1   C2414536   4.891   1.542   6.819 -0.1732 -0.9478  0.5845
  112CHL1  H24A14537   4.943   1.638   6.797  1.7274 -1.9115  0.7310
  112CHL1  H24B14538   4.967   1.463   6.808 -0.1853 -0.8469 -0.2663
  112CHL1   C2514539   4.782   1.528   6.703  0.0300 -0.0185  0.4137
  112CHL1   H2514540   4.723   1.622   6.713  1.2763  0.7429  0.9464
  112CHL1   C2614541   4.857   1.552   6.570  0.0289 -0.0185  0.4255
  112CHL1  H26A14542   4.941   1.482   6.553 -0.3541  0.0172 -1.9928
  112CHL1  H26B14543   4.785   1.533   6.487  3.5262  0.2002 -2.9423
  112CHL1  H26C14544   4.894   1.655   6.552 -0.6559 -0.1048 -1.9064
  112CHL1   C2714545   4.692   1.406   6.707  0.1823  0.3282  0.0616
  112CHL1  H27A14546   4.622   1.407   6.621 -0.7154  0.7666  0.7767
  112CHL1  H27B14547   4.746   1.310   6.715 -0.0591  0.3604  3.4912
  112CHL1  H27C14548   4.635   1.421   6.801 -0.8231 -3.2434  0.1519
  113CHL1    C314549   7.598   5.412   8.149  0.0485  0.4331  0.0037
  113CHL1    H314550   7.686   5.479   8.140  0.8071 -0.5619 -0.1181
  113CHL1    O314551   7.558   5.423   8.287  0.0762 -0.2253  0.2966
  113CHL1   H3'14552   7.473   5.379   8.291 -1.0982  1.6445 -1.5365
  113CHL1    C414553   7.486   5.459   8.059  0.2357 -0.0339 -0.0758
  113CHL1   H4A14554   7.395   5.399   8.078 -0.0114  0.7120  1.1590
  113CHL1   H4B14555   7.461   5.561   8.095  0.3880 -0.7006  2.0094
  113CHL1    C514556   7.521   5.452   7.914 -0.1762 -0.3147  0.6986
  113CHL1    C614557   7.504   5.554   7.830  0.4597 -0.0828  0.7934
  113CHL1    H614558   7.466   5.652   7.863  0.0358  1.2096 -3.0486
  113CHL1    C714559   7.533   5.546   7.686  0.2731  0.2524 -0.2234
  113CHL1   H7A14560   7.440   5.585   7.639  1.1454  0.8657 -1.5205
  113CHL1   H7B14561   7.623   5.610   7.670 -0.2179  1.5349  1.8233
  113CHL1    C814562   7.556   5.407   7.626 -0.2318  0.7348  0.8822
  113CHL1    H814563   7.454   5.364   7.621 -0.2640  0.6805  1.8065
  113CHL1   C1414564   7.631   5.414   7.495 -1.1544 -0.3383  0.5648
  113CHL1   H1414565   7.729   5.462   7.519 -0.9224 -0.4892 -0.0638
  113CHL1   C1514566   7.576   5.506   7.389 -0.2200 -0.3239  0.2048
  113CHL1  H15A14567   7.475   5.473   7.355 -0.8131  2.1951 -0.6486
  113CHL1  H15B14568   7.578   5.611   7.424 -2.1858 -0.2356  0.2006
  113CHL1   C1614569   7.674   5.481   7.272  0.5765 -0.2213 -0.5573
  113CHL1  H16A14570   7.614   5.486   7.179  0.2064 -1.1073 -0.3697
  113CHL1  H16B14571   7.753   5.559   7.268  1.4620 -0.9697  1.2044
  113CHL1   C1714572   7.752   5.349   7.307  0.4642 -0.1326  0.0679
  113CHL1   H1714573   7.851   5.383   7.346 -0.0082  0.4135  0.8115
  113CHL1   C1314574   7.671   5.285   7.424  0.0704  0.1242  0.3748
  113CHL1   C1814575   7.544   5.212   7.374 -0.1339  0.7958 -0.3540
  113CHL1  H18A14576   7.488   5.273   7.301 -2.1576 -0.3622  0.1468
  113CHL1  H18B14577   7.595   5.129   7.320  1.4124  1.4287  0.0526
  113CHL1  H18C14578   7.493   5.184   7.468  0.3339 -0.6529 -0.5012
  113CHL1   C1214579   7.752   5.198   7.521  0.2403  0.4306  0.3588
  113CHL1  H12A14580   7.773   5.096   7.482 -0.8920  0.1828  0.3686
  113CHL1  H12B14581   7.846   5.256   7.534  0.1162  1.8089 -3.3970
  113CHL1   C1114582   7.678   5.179   7.656  0.0472 -0.1366 -0.3223
  113CHL1  H11A14583   7.594   5.109   7.640 -0.5945 -0.0705  2.2679
  113CHL1  H11B14584   7.747   5.117   7.718 -0.0370 -1.6792 -1.7102
  113CHL1    C914585   7.641   5.314   7.719  0.8582 -0.5017 -0.2000
  113CHL1    H914586   7.740   5.363   7.728  2.9497 -3.8343 -2.7015
  113CHL1   C1014587   7.574   5.308   7.863  0.2375  0.5457 -0.6079
  113CHL1   C1914588   7.443   5.223   7.860 -0.4543 -0.3143  0.4450
  113CHL1  H19A14589   7.364   5.270   7.798 -1.8299 -1.3226  1.3505
  113CHL1  H19B14590   7.458   5.121   7.816 -1.8155 -0.0718 -0.6556
  113CHL1  H19C14591   7.398   5.212   7.961 -0.0738 -1.7154  0.4813
  113CHL1    C114592   7.674   5.254   7.966  0.0192  0.6372 -0.3174
  113CHL1   H1A14593   7.674   5.146   7.941 -2.2618  1.0789 -2.7906
  113CHL1   H1B14594   7.776   5.291   7.940 -0.6977  0.9851 -3.0274
  113CHL1    C214595   7.641   5.272   8.110  0.2669 -0.1023 -0.1431
  113CHL1   H2A14596   7.724   5.250   8.180  2.0222  0.0074 -2.0751
  113CHL1   H2B14597   7.556   5.208   8.140 -0.2181  0.2871 -0.6661
  113CHL1   C2014598   7.768   5.273   7.176  0.2438 -0.0345 -0.2815
  113CHL1   H2014599   7.671   5.237   7.137  1.2638 -2.0826 -1.0336
  113CHL1   C2114600   7.838   5.137   7.205  0.1457 -0.6690 -0.1933
  113CHL1  H21A14601   7.847   5.076   7.113 -0.3928 -2.2206  0.7382
  113CHL1  H21B14602   7.775   5.078   7.275 -0.6243  1.5698  1.1035
  113CHL1  H21C14603   7.933   5.162   7.256 -1.3008  3.4275  0.9373
  113CHL1   C2214604   7.847   5.346   7.060  0.4379  0.3210 -1.3448
  113CHL1  H22A14605   7.866   5.273   6.979 -0.8536 -1.6393  0.0400
  113CHL1  H22B14606   7.792   5.436   7.025 -0.2174  1.0639  1.3404
  113CHL1   C2314607   7.989   5.394   7.092 -0.2143 -0.3150 -0.1045
  113CHL1  H23A14608   7.991   5.446   7.189 -0.0035  0.4309 -0.4996
  113CHL1  H23B14609   8.047   5.300   7.107  0.5207  0.4814  2.4849
  113CHL1   C2414610   8.047   5.474   6.974 -0.1311 -0.2888  0.1703
  113CHL1  H24A14611   8.078   5.394   6.904 -0.3223  0.3789 -0.6988
  113CHL1  H24B14612   7.970   5.547   6.941  1.5069  1.6879  0.4977
  113CHL1   C2514613   8.168   5.570   7.007 -0.0014  0.3209  0.6371
  113CHL1   H2514614   8.125   5.629   7.091  0.9595  0.4722  1.0317
  113CHL1   C2614615   8.288   5.488   7.067 -0.1054  0.0666  0.2012
  113CHL1  H26A14616   8.326   5.422   6.986  0.4858 -0.4071  0.8628
  113CHL1  H26B14617   8.373   5.553   7.095  1.8225 -1.5674 -1.5134
  113CHL1  H26C14618   8.261   5.414   7.144  0.3326  1.5246  1.8114
  113CHL1   C2714619   8.210   5.652   6.884 -0.2994  0.3963 -0.1691
  113CHL1  H27A14620   8.229   5.595   6.791 -1.5369  2.0849 -1.5085
  113CHL1  H27B14621   8.129   5.723   6.857 -1.5309 -1.0714 -0.4813
  113CHL1  H27C14622   8.302   5.707   6.914  1.0825 -2.8646  2.0969
  114CHL1    C314623   3.960   0.419   8.033 -0.3743  0.0673  0.1918
  114CHL1    H314624   3.900   0.510   8.014  1.1763  0.7016 -2.1606
  114CHL1    O314625   3.957   0.375   8.168 -0.1212 -0.0068  0.5148
  114CHL1   H3'14626   3.961   0.279   8.163  2.2105  0.0955 -1.4485
  114CHL1    C414627   3.890   0.313   7.940 -0.0637 -1.2241 -0.1066
  114CHL1   H4A14628   3.941   0.216   7.957  0.4651 -0.9014  0.1795
  114CHL1   H4B14629   3.783   0.312   7.973 -1.2020  3.4009 -2.8309
  114CHL1    C514630   3.894   0.355   7.796 -0.6917 -0.0360  0.6504
  114CHL1    C614631   3.785   0.353   7.714  0.6183 -0.2423 -0.8050
  114CHL1    H614632   3.689   0.309   7.746 -0.0746  2.2969  0.9871
  114CHL1    C714633   3.780   0.395   7.571  0.6125 -0.0609 -0.1566
  114CHL1   H7A14634   3.728   0.325   7.503  1.2400 -0.0344 -0.6709
  114CHL1   H7B14635   3.718   0.487   7.565  1.3998  0.3621 -3.1417
  114CHL1    C814636   3.917   0.429   7.515  0.1079  0.3353 -0.6532
  114CHL1    H814637   3.962   0.327   7.505  2.4728  0.7703  3.3168
  114CHL1   C1414638   3.910   0.512   7.389  0.0790  0.2262 -0.2541
  114CHL1   H1414639   3.882   0.613   7.427 -1.1850 -0.3121  0.2809
  114CHL1   C1514640   3.801   0.483   7.286 -0.4931  0.3777  0.2105
  114CHL1  H15A14641   3.787   0.373   7.279  0.0118  0.3446 -0.3536
  114CHL1  H15B14642   3.700   0.529   7.294 -0.7619  0.3610 -2.2602
  114CHL1   C1614643   3.856   0.546   7.154 -0.5496  0.2059  0.0699
  114CHL1  H16A14644   3.844   0.473   7.072 -1.8385  1.3908 -0.8474
  114CHL1  H16B14645   3.788   0.628   7.121  1.0914  1.3105 -0.7347
  114CHL1   C1714646   3.990   0.616   7.193 -0.4367 -0.9720  0.0194
  114CHL1   H1714647   3.959   0.715   7.232 -0.4511 -0.0225 -2.2836
  114CHL1   C1314648   4.037   0.533   7.311  0.3230 -0.2444 -0.1245
  114CHL1   C1814649   4.096   0.391   7.262  0.6994  0.5056 -0.0430
  114CHL1  H18A14650   4.202   0.395   7.231  0.6765  0.1008 -0.1710
  114CHL1  H18B14651   4.083   0.313   7.340  1.4436  0.5344  0.1114
  114CHL1  H18C14652   4.032   0.353   7.179 -1.5808  1.5824  1.1013
  114CHL1   C1214653   4.125   0.605   7.417  0.4767 -0.0913  0.4884
  114CHL1  H12A14654   4.231   0.618   7.384  0.6510 -0.8012  0.7592
  114CHL1  H12B14655   4.083   0.704   7.446 -0.8052 -0.2940 -0.6081
  114CHL1   C1114656   4.146   0.528   7.545  0.0015  0.2596 -0.0213
  114CHL1  H11A14657   4.193   0.429   7.524  1.4124  0.8069  0.4373
  114CHL1  H11B14658   4.204   0.589   7.617 -0.5701  0.3588  0.3645
  114CHL1    C914659   4.006   0.490   7.613  0.6479 -1.2758  0.4339
  114CHL1    H914660   3.964   0.592   7.631  2.2621 -0.5390  0.2879
  114CHL1   C1014661   4.028   0.410   7.744  0.6540 -0.4149  0.2102
  114CHL1   C1914662   4.115   0.278   7.718  0.4208  0.5104 -0.0499
  114CHL1  H19A14663   4.222   0.305   7.702  0.9424  0.2853  2.6299
  114CHL1  H19B14664   4.107   0.206   7.802  0.9943 -0.5517 -0.8818
  114CHL1  H19C14665   4.081   0.234   7.621  0.1430  0.6567 -0.0213
  114CHL1    C114666   4.099   0.502   7.847 -0.7391 -0.8301  0.2196
  114CHL1   H1A14667   4.204   0.526   7.820 -1.1603  0.8123 -0.0687
  114CHL1   H1B14668   4.048   0.601   7.846  2.8131  1.2218  2.4779
  114CHL1    C214669   4.103   0.452   7.986 -0.6185 -0.6506 -0.0994
  114CHL1   H2A14670   4.157   0.518   8.057 -0.2392 -0.1395 -0.8497
  114CHL1   H2B14671   4.159   0.357   7.973 -0.0985 -0.1563 -1.6402
  114CHL1   C2014672   4.077   0.638   7.066 -0.1290  0.8491 -0.3556
  114CHL1   H2014673   4.082   0.544   7.007 -1.4458  1.0074 -0.7465
  114CHL1   C2114674   4.227   0.681   7.108  0.1237 -0.5240  0.9693
  114CHL1  H21A14675   4.295   0.678   7.020 -0.7797 -1.8482  0.2986
  114CHL1  H21B14676   4.268   0.608   7.181 -0.1053 -1.0200  0.6032
  114CHL1  H21C14677   4.230   0.781   7.157  0.3590 -0.5333  0.9735
  114CHL1   C2214678   4.015   0.741   6.982 -0.5600 -0.0543 -0.0312
  114CHL1  H22A14679   3.918   0.696   6.949 -0.8818 -1.3514  2.4629
  114CHL1  H22B14680   3.989   0.821   7.054 -1.4300 -0.9920  0.7355
  114CHL1   C2314681   4.095   0.790   6.858 -0.1486  0.1609  0.5047
  114CHL1  H23A14682   4.193   0.832   6.890  1.4307 -2.5317 -0.3933
  114CHL1  H23B14683   4.116   0.705   6.789 -1.1080  1.2985 -1.2617
  114CHL1   C2414684   4.023   0.899   6.777 -0.3139  0.2518  0.0836
  114CHL1  H24A14685   3.943   0.858   6.711  0.8239 -1.4487 -0.3161
  114CHL1  H24B14686   3.979   0.965   6.855  1.4106  0.7270  0.7083
  114CHL1   C2514687   4.101   0.994   6.683 -0.0591  0.4149 -0.3196
  114CHL1   H2514688   4.195   1.026   6.732 -1.2560  1.4498  1.4147
  114CHL1   C2614689   4.134   0.914   6.554  0.2455  0.1262 -0.1352
  114CHL1  H26A14690   4.213   0.838   6.571  0.4363  0.0821 -1.1509
  114CHL1  H26B14691   4.047   0.856   6.518  0.7527 -0.6319 -0.1680
  114CHL1  H26C14692   4.165   0.984   6.473  2.3499  0.9364  1.2754
  114CHL1   C2714693   4.028   1.125   6.652 -0.4318  0.3364  0.9101
  114CHL1  H27A14694   4.019   1.175   6.751  1.8050  1.0600  0.7949
  114CHL1  H27B14695   4.093   1.187   6.585 -2.0338  0.2068 -0.8624
  114CHL1  H27C14696   3.925   1.113   6.611  0.7372 -3.0100 -1.5010
  115CHL1    C314697   1.421   1.347   7.892 -0.0025  0.5325 -0.3470
  115CHL1    H314698   1.336   1.322   7.826  0.5225 -1.1606 -0.4347
  115CHL1    O314699   1.371   1.362   8.026 -0.3829  0.6735 -0.0429
  115CHL1   H3'14700   1.453   1.375   8.074 -0.3226  1.0290 -0.2380
  115CHL1    C414701   1.521   1.232   7.868 -0.3070  0.4686  0.2335
  115CHL1   H4A14702   1.601   1.236   7.946  0.5187 -3.1122 -0.2532
  115CHL1   H4B14703   1.460   1.142   7.891 -0.5405  0.8675  1.2622
  115CHL1    C514704   1.584   1.230   7.730  0.4475  0.2519  0.1836
  115CHL1    C614705   1.577   1.122   7.653 -0.4411  0.4183 -0.7848
  115CHL1    H614706   1.521   1.035   7.691  0.0284 -0.0303 -1.1190
  115CHL1    C714707   1.626   1.112   7.513 -0.4736 -0.2152  0.3320
  115CHL1   H7A14708   1.667   1.012   7.487 -0.4895  0.3943 -2.3908
  115CHL1   H7B14709   1.536   1.122   7.448  0.2719  3.2105 -0.3863
  115CHL1    C814710   1.728   1.222   7.481 -0.3958  0.6694 -0.1216
  115CHL1    H814711   1.825   1.197   7.529 -0.6767  1.9879  1.2347
  115CHL1   C1414712   1.742   1.218   7.331  0.4638  0.4610 -0.2348
  115CHL1   H1414713   1.644   1.231   7.281  0.0630 -1.0937  0.0746
  115CHL1   C1514714   1.787   1.093   7.263  0.4050 -0.0565 -0.4238
  115CHL1  H15A14715   1.871   1.043   7.316  1.4126  0.1815 -1.7396
  115CHL1  H15B14716   1.704   1.019   7.266  0.5359 -0.1715  0.9541
  115CHL1   C1614717   1.824   1.135   7.117  0.1025 -0.3929 -0.1243
  115CHL1  H16A14718   1.925   1.094   7.097  0.5293 -0.2036  1.4385
  115CHL1  H16B14719   1.753   1.095   7.042 -0.2396 -1.4487  0.7493
  115CHL1   C1714720   1.825   1.293   7.118 -0.3164 -0.4232  0.3829
  115CHL1   H1714721   1.725   1.332   7.089 -1.2144 -1.2213  2.2454
  115CHL1   C1314722   1.825   1.329   7.268 -0.3541 -0.4385 -1.2851
  115CHL1   C1814723   1.971   1.317   7.327  0.0786  0.6314  0.2246
  115CHL1  H18A14724   2.027   1.224   7.302  0.6007  0.9562  0.1604
  115CHL1  H18B14725   2.037   1.405   7.313  0.4623 -0.0538 -3.1257
  115CHL1  H18C14726   1.969   1.312   7.438  1.9348  0.9569  0.3145
  115CHL1   C1214727   1.769   1.464   7.312 -0.5781  0.3815  0.3688
  115CHL1  H12A14728   1.833   1.545   7.271  0.1222  1.0467  2.6407
  115CHL1  H12B14729   1.674   1.483   7.257 -0.5275 -0.2256  0.0557
  115CHL1   C1114730   1.749   1.481   7.461 -0.5588  0.3026 -0.0192
  115CHL1  H11A14731   1.853   1.488   7.501 -0.4663 -0.3194 -0.1388
  115CHL1  H11B14732   1.692   1.574   7.479 -0.2835  0.6217 -0.7515
  115CHL1    C914733   1.671   1.362   7.527 -0.2083  0.0778 -0.3792
  115CHL1    H914734   1.571   1.367   7.480 -0.6799  2.2347  0.7382
  115CHL1   C1014735   1.643   1.362   7.678 -0.2773 -0.1196  0.1079
  115CHL1   C1914736   1.777   1.394   7.749  0.0405 -0.1600  0.1434
  115CHL1  H19A14737   1.767   1.381   7.859 -0.6220  0.8973  0.2223
  115CHL1  H19B14738   1.861   1.339   7.702 -1.2539 -2.0675 -0.0404
  115CHL1  H19C14739   1.803   1.500   7.729  2.0386 -0.9245 -1.6368
  115CHL1    C114740   1.537   1.472   7.710  1.1116 -0.4477 -0.7965
  115CHL1   H1A14741   1.580   1.574   7.703 -0.6959  0.2533 -2.7494
  115CHL1   H1B14742   1.449   1.459   7.643  1.0646 -1.2628 -0.5839
  115CHL1    C214743   1.483   1.476   7.858  0.0807 -0.0167  0.4481
  115CHL1   H2A14744   1.408   1.556   7.870  1.0618  1.0875 -0.4841
  115CHL1   H2B14745   1.564   1.492   7.932  0.4353  0.5120 -0.0429
  115CHL1   C2014746   1.926   1.359   7.019 -0.6641  0.0955 -0.3284
  115CHL1   H2014747   2.032   1.343   7.048 -1.0935  0.1184  1.3700
  115CHL1   C2114748   1.911   1.514   7.025 -0.1291  0.4755  0.3715
  115CHL1  H21A14749   1.806   1.549   7.034 -0.3590  0.4063 -1.5941
  115CHL1  H21B14750   1.958   1.550   6.931 -1.3863 -2.1484 -1.3932
  115CHL1  H21C14751   1.964   1.545   7.117 -0.6263 -3.3929  2.1901
  115CHL1   C2214752   1.902   1.308   6.877 -0.1897  0.7317  0.2615
  115CHL1  H22A14753   1.991   1.350   6.824  1.4046 -0.5504  1.7978
  115CHL1  H22B14754   1.927   1.200   6.876 -0.0961  0.6705 -3.2548
  115CHL1   C2314755   1.771   1.346   6.810  0.1130  0.3815 -0.4294
  115CHL1  H23A14756   1.688   1.324   6.882  0.2903 -2.2499 -0.9251
  115CHL1  H23B14757   1.780   1.452   6.779 -2.0741  0.0685 -2.4064
  115CHL1   C2414758   1.731   1.257   6.696 -0.3764 -0.1203  0.6567
  115CHL1  H24A14759   1.791   1.282   6.606 -0.0482 -3.3950 -0.1586
  115CHL1  H24B14760   1.757   1.152   6.724 -0.7202  0.1740  2.1970
  115CHL1   C2514761   1.587   1.267   6.650 -0.1178 -0.0038  0.0245
  115CHL1   H2514762   1.530   1.229   6.737 -1.1158 -0.1348 -0.6720
  115CHL1   C2614763   1.546   1.408   6.615  0.2035 -0.4202 -0.0154
  115CHL1  H26A14764   1.453   1.412   6.556  0.7497 -0.4940 -0.9035
  115CHL1  H26B14765   1.552   1.470   6.708  3.0378 -0.2229 -0.2139
  115CHL1  H26C14766   1.632   1.446   6.556 -0.3977 -0.1294 -0.7117
  115CHL1   C2714767   1.563   1.175   6.528 -0.1107  0.4523  0.4507
  115CHL1  H27A14768   1.464   1.206   6.488 -0.8533  0.4887  2.2219
  115CHL1  H27B14769   1.646   1.181   6.454  0.6358 -1.5477  1.0447
  115CHL1  H27C14770   1.547   1.067   6.550 -2.6379  0.7298  0.2978
  116CHL1    C314771   2.931   2.465   8.192  0.0390 -0.3437  0.6243
  116CHL1    H314772   2.947   2.382   8.119  1.2338  1.4738 -1.2904
  116CHL1    O314773   2.913   2.420   8.320 -0.0160  0.7524 -0.3870
  116CHL1   H3'14774   2.881   2.497   8.368 -3.3440 -0.5610 -0.2209
  116CHL1    C414775   3.061   2.547   8.184 -0.1116 -0.0398  0.0231
  116CHL1   H4A14776   3.040   2.625   8.260 -1.7153 -0.2528 -0.1660
  116CHL1   H4B14777   3.150   2.493   8.222  0.9338  0.4836 -1.5511
  116CHL1    C514778   3.088   2.598   8.042 -0.1128  1.1261  0.3623
  116CHL1    C614779   3.200   2.576   7.975  0.6045  0.2151  0.3673
  116CHL1    H614780   3.285   2.524   8.023 -0.8003 -1.8849  0.6649
  116CHL1    C714781   3.233   2.631   7.843 -0.2820 -0.0144  0.4269
  116CHL1   H7A14782   3.334   2.677   7.850  0.3554 -1.0451 -1.3111
  116CHL1   H7B14783   3.225   2.548   7.769  0.3375  0.0749  0.2496
  116CHL1    C814784   3.130   2.741   7.789 -0.6720  0.7932  0.7466
  116CHL1    H814785   3.164   2.834   7.840 -0.7415  2.2628 -1.7389
  116CHL1   C1414786   3.145   2.760   7.646 -0.4647  0.5747  0.0664
  116CHL1   H1414787   3.126   2.660   7.600 -0.6934  0.4060  0.5182
  116CHL1   C1514788   3.279   2.799   7.583 -0.3500 -0.0016  0.9769
  116CHL1  H15A14789   3.332   2.878   7.640 -0.5311  0.5704  0.3573
  116CHL1  H15B14790   3.343   2.709   7.568 -0.7252  0.0499 -1.2256
  116CHL1   C1614791   3.242   2.842   7.441  0.7509 -0.3119  0.3289
  116CHL1  H16A14792   3.275   2.947   7.422  0.5393 -0.2499  0.2895
  116CHL1  H16B14793   3.282   2.786   7.353 -0.5351  1.9083 -1.8290
  116CHL1   C1714794   3.086   2.849   7.430  0.6943 -0.0224  0.1245
  116CHL1   H1714795   3.050   2.751   7.392  0.2495  1.3918 -3.4573
  116CHL1   C1314796   3.042   2.853   7.579 -0.4396 -0.1040 -0.2079
  116CHL1   C1814797   3.059   2.994   7.631 -0.8836  0.3078  0.4017
  116CHL1  H18A14798   3.064   2.990   7.742 -0.3263 -0.2720  0.3546
  116CHL1  H18B14799   3.154   3.039   7.596 -0.4380 -0.7177  0.2536
  116CHL1  H18C14800   2.980   3.067   7.601 -1.9514  0.2998  2.8778
  116CHL1   C1214801   2.904   2.801   7.609  0.4436  0.4014 -0.0968
  116CHL1  H12A14802   2.832   2.877   7.572 -0.9237 -0.1358  1.3415
  116CHL1  H12B14803   2.890   2.701   7.562 -1.4333  0.7376 -0.3315
  116CHL1   C1114804   2.878   2.790   7.758  0.2626 -0.1647  0.0604
  116CHL1  H11A14805   2.895   2.888   7.807  1.4222 -1.2868  2.0629
  116CHL1  H11B14806   2.774   2.757   7.781  0.5292 -0.7338  0.4875
  116CHL1    C914807   2.985   2.700   7.825  0.2564 -0.3652 -0.2986
  116CHL1    H914808   2.976   2.599   7.778  2.4072 -0.4714 -0.6068
  116CHL1   C1014809   2.972   2.676   7.977  0.1813  0.2323  0.5201
  116CHL1   C1914810   2.955   2.815   8.045  0.1776 -0.3372  0.2782
  116CHL1  H19A14811   3.026   2.897   8.021 -1.4400  1.4562  1.3252
  116CHL1  H19B14812   2.854   2.851   8.015  1.2499  2.1783 -0.5954
  116CHL1  H19C14813   2.953   2.806   8.155 -0.9884  2.0295  0.5030
  116CHL1    C114814   2.845   2.590   7.998  0.9194  0.3740  0.2024
  116CHL1   H1A14815   2.761   2.655   7.964 -0.1543 -0.4320  1.2343
  116CHL1   H1B14816   2.846   2.494   7.942 -0.8030 -0.5306  1.6163
  116CHL1    C214817   2.808   2.550   8.142  0.0517  0.0356 -0.4047
  116CHL1   H2A14818   2.718   2.485   8.134  0.8291 -1.1076 -0.0987
  116CHL1   H2B14819   2.790   2.637   8.209  1.8750 -0.4663  0.7868
  116CHL1   C2014820   3.032   2.955   7.332  0.2745  0.5335  0.4945
  116CHL1   H2014821   3.048   3.060   7.367 -2.3373  0.8949  0.7873
  116CHL1   C2114822   2.875   2.947   7.313  0.2598 -0.1236 -0.1914
  116CHL1  H21A14823   2.837   2.843   7.312 -0.1696 -0.0156  1.6784
  116CHL1  H21B14824   2.853   3.009   7.223  2.1525  0.3889 -0.3429
  116CHL1  H21C14825   2.818   2.993   7.397  0.3111  0.6645 -0.5808
  116CHL1   C2214826   3.099   2.945   7.188 -0.6196 -0.4937 -0.6211
  116CHL1  H22A14827   3.091   3.043   7.136 -1.4103  1.1385  2.3699
  116CHL1  H22B14828   3.210   2.934   7.196 -0.6632  0.1705  1.2668
  116CHL1   C2314829   3.037   2.850   7.084  0.1584 -0.1764  0.0357
  116CHL1  H23A14830   3.022   2.746   7.121  0.5424 -0.2336  0.0427
  116CHL1  H23B14831   2.936   2.892   7.069  0.2545  0.1233  0.2312
  116CHL1   C2414832   3.102   2.852   6.945 -0.3073  0.5711  0.1111
  116CHL1  H24A14833   3.099   2.951   6.895  1.1548  0.0437 -1.1178
  116CHL1  H24B14834   3.208   2.821   6.948 -0.3234  0.2359 -1.7166
  116CHL1   C2514835   3.049   2.750   6.839 -1.0974  0.6758 -0.9176
  116CHL1   H2514836   3.096   2.781   6.743 -2.1936  1.8528 -1.1175
  116CHL1   C2614837   3.086   2.602   6.873  0.0103 -0.9124 -0.2477
  116CHL1  H26A14838   3.066   2.537   6.786  0.9066  0.1198 -1.2510
  116CHL1  H26B14839   3.191   2.594   6.909  0.3722  0.5015 -0.9228
  116CHL1  H26C14840   3.025   2.556   6.954  0.0021 -0.4786 -0.0066
  116CHL1   C2714841   2.897   2.764   6.803  0.0370 -0.2319  0.3013
  116CHL1  H27A14842   2.876   2.691   6.723  1.5698 -0.7682  0.3584
  116CHL1  H27B14843   2.842   2.734   6.895  0.6297  0.8868  1.0594
  116CHL1  H27C14844   2.878   2.870   6.774 -1.0365 -0.8149 -1.1918
  117CHL1    C314845   4.800   0.454   8.067 -0.1704 -0.0678  0.1207
  117CHL1    H314846   4.909   0.451   8.044 -0.3969  1.4892 -1.3400
  117CHL1    O314847   4.785   0.490   8.200 -0.1953 -0.1171  0.2817
  117CHL1   H3'14848   4.821   0.418   8.251  1.3074  0.2624 -0.1966
  117CHL1    C414849   4.741   0.568   7.986 -1.2472  0.5572 -0.4328
  117CHL1   H4A14850   4.642   0.592   8.030 -0.7021  1.7197  0.2032
  117CHL1   H4B14851   4.802   0.653   8.024  0.9041 -1.4094  0.7628
  117CHL1    C514852   4.734   0.537   7.833 -0.5010  0.0075 -1.1405
  117CHL1    C614853   4.784   0.622   7.740  0.0278  0.1991 -0.2944
  117CHL1    H614854   4.828   0.716   7.775  2.4666 -0.8314 -0.3730
  117CHL1    C714855   4.789   0.606   7.590 -0.2639  0.2819 -0.2974
  117CHL1   H7A14856   4.765   0.703   7.540 -2.1129  0.3383  0.6193
  117CHL1   H7B14857   4.890   0.583   7.552 -0.1674 -0.8273  0.5936
  117CHL1    C814858   4.694   0.483   7.551  0.6400 -0.9889 -0.3657
  117CHL1    H814859   4.597   0.536   7.560  2.2350  1.7228  2.5834
  117CHL1   C1414860   4.714   0.452   7.405  0.0916  0.3261  0.4228
  117CHL1   H1414861   4.819   0.418   7.402  0.1241  0.3963  0.7987
  117CHL1   C1514862   4.707   0.565   7.302 -0.1528 -0.6926  0.0035
  117CHL1  H15A14863   4.624   0.635   7.329  1.4846  1.1264  0.5032
  117CHL1  H15B14864   4.797   0.629   7.298 -1.6215  1.5698  1.1491
  117CHL1   C1614865   4.673   0.493   7.167  0.7527  0.3425  0.0326
  117CHL1  H16A14866   4.582   0.536   7.121  1.8446  0.5621 -2.0278
  117CHL1  H16B14867   4.750   0.501   7.087  2.5933 -1.8322  1.4458
  117CHL1   C1714868   4.649   0.344   7.210 -0.1189 -0.0456 -0.2541
  117CHL1   H1714869   4.753   0.305   7.207  0.3650  1.1836  0.0664
  117CHL1   C1314870   4.613   0.342   7.360 -0.0519  0.2346  0.2308
  117CHL1   C1814871   4.465   0.388   7.381  0.0778  0.2145  0.1127
  117CHL1  H18A14872   4.440   0.480   7.325 -1.2303 -0.2828 -0.1405
  117CHL1  H18B14873   4.386   0.318   7.348 -2.3686  1.3609  3.0469
  117CHL1  H18C14874   4.442   0.403   7.489 -3.3344 -0.1855 -0.4708
  117CHL1   C1214875   4.644   0.216   7.433  0.6131 -0.1033  0.0228
  117CHL1  H12A14876   4.572   0.139   7.399  2.0976 -0.8073 -1.6765
  117CHL1  H12B14877   4.744   0.173   7.412  0.9452  0.9839 -0.7610
  117CHL1   C1114878   4.625   0.239   7.588 -0.3303  0.0730  0.5089
  117CHL1  H11A14879   4.522   0.237   7.628 -0.1377  0.0622  1.0178
  117CHL1  H11B14880   4.681   0.157   7.638 -0.2397 -1.0123 -1.3039
  117CHL1    C914881   4.703   0.364   7.642 -0.3272  0.6745  0.3943
  117CHL1    H914882   4.811   0.342   7.650 -0.3300  0.0851 -0.9377
  117CHL1   C1014883   4.674   0.402   7.790  0.0870  0.7278  0.3049
  117CHL1   C1914884   4.521   0.410   7.819  0.8487  0.3114  0.1501
  117CHL1  H19A14885   4.504   0.436   7.925 -2.5245 -0.5655 -0.0563
  117CHL1  H19B14886   4.472   0.496   7.768 -1.0134 -0.1240  1.1513
  117CHL1  H19C14887   4.471   0.314   7.794  1.7242 -0.3587  0.9131
  117CHL1    C114888   4.737   0.285   7.881  0.3795 -0.2988 -0.1592
  117CHL1   H1A14889   4.675   0.193   7.867 -2.4988  1.7831 -2.2035
  117CHL1   H1B14890   4.842   0.278   7.844  0.4988  1.3262 -0.2010
  117CHL1    C214891   4.736   0.322   8.031 -0.0251  0.2901  0.1882
  117CHL1   H2A14892   4.797   0.242   8.080 -1.4281 -0.5412  0.6477
  117CHL1   H2B14893   4.632   0.314   8.070 -1.3929  1.6340 -2.9057
  117CHL1   C2014894   4.571   0.244   7.119 -0.5133 -0.2595 -0.3763
  117CHL1   H2014895   4.527   0.164   7.184 -0.8525 -0.4259 -0.8063
  117CHL1   C2114896   4.668   0.176   7.031 -0.3471  0.7288  0.4560
  117CHL1  H21A14897   4.623   0.117   6.949  0.6972  0.0478  0.3446
  117CHL1  H21B14898   4.724   0.096   7.085 -0.1885  0.4999 -0.0478
  117CHL1  H21C14899   4.739   0.243   6.978  2.1992 -2.9530 -1.2141
  117CHL1   C2214900   4.456   0.314   7.039 -0.4279 -0.4507 -0.4777
  117CHL1  H22A14901   4.396   0.368   7.115  1.1886 -0.3162  0.7551
  117CHL1  H22B14902   4.500   0.387   6.968  1.0030  1.4595  2.2063
  117CHL1   C2314903   4.362   0.214   6.967  0.6713 -0.3679  0.2296
  117CHL1  H23A14904   4.416   0.163   6.885  2.6700  1.3824  0.3923
  117CHL1  H23B14905   4.324   0.134   7.034  1.1737 -1.5340 -0.8378
  117CHL1   C2414906   4.247   0.277   6.885  0.2512 -0.3784  0.0939
  117CHL1  H24A14907   4.178   0.326   6.957 -0.4187  0.6299 -1.1995
  117CHL1  H24B14908   4.292   0.365   6.834 -0.8898  0.5279  0.6149
  117CHL1   C2514909   4.165   0.172   6.800  0.1984  0.1195 -0.1824
  117CHL1   H2514910   4.237   0.110   6.743  0.8045 -0.8786  1.5993
  117CHL1   C2614911   4.104   0.063   6.892  0.6937 -0.1579 -0.4500
  117CHL1  H26A14912   4.041   0.111   6.969  0.1947  0.8699 -1.4568
  117CHL1  H26B14913   4.041  -0.003   6.829 -0.0484  0.2851 -0.1790
  117CHL1  H26C14914   4.178  -0.001   6.945  0.2136 -0.3895 -0.0603
  117CHL1   C2714915   4.059   0.238   6.699 -0.7855 -0.2335 -0.8970
  117CHL1  H27A14916   4.108   0.319   6.641  0.8459  0.7500  1.6647
  117CHL1  H27B14917   3.993   0.161   6.652 -1.8174 -0.2895  0.5707
  117CHL1  H27C14918   3.989   0.298   6.761 -0.9823 -0.9430 -0.4168
  118CHL1    C314919   6.849   0.997   8.189  0.3377 -0.1598 -0.2490
  118CHL1    H314920   6.959   1.014   8.189  1.0360 -2.5819  5.1496
  118CHL1    O314921   6.794   1.045   8.312  0.4740  0.1073  0.4279
  118CHL1   H3'14922   6.709   1.003   8.322  0.8746 -1.7888 -2.6875
  118CHL1    C414923   6.767   1.063   8.078 -0.5586  0.1937  0.6777
  118CHL1   H4A14924   6.658   1.048   8.099 -0.5679 -2.0468 -0.7644
  118CHL1   H4B14925   6.780   1.173   8.094  1.9465  0.0859 -0.3007
  118CHL1    C514926   6.796   1.025   7.938 -0.1656  0.0336 -0.1988
  118CHL1    C614927   6.845   1.113   7.849  0.3053  0.7114 -0.1032
  118CHL1    H614928   6.860   1.218   7.878 -1.2828  1.4209 -1.6453
  118CHL1    C714929   6.880   1.065   7.707  0.0580  0.1199  0.0011
  118CHL1   H7A14930   6.834   1.144   7.645  0.4309  1.1840  1.0594
  118CHL1   H7B14931   6.987   1.045   7.686 -0.4775 -1.6343 -1.3718
  118CHL1    C814932   6.805   0.936   7.675  0.2101 -0.4900 -0.1941
  118CHL1    H814933   6.696   0.956   7.672  0.0313 -0.7567  2.2515
  118CHL1   C1414934   6.861   0.889   7.543 -0.8215  1.2767  0.4903
  118CHL1   H1414935   6.970   0.873   7.563 -1.1315  0.2952  1.5525
  118CHL1   C1514936   6.862   0.991   7.428  0.7012 -0.1439 -1.3387
  118CHL1  H15A14937   6.759   1.032   7.421 -0.6489 -3.2513 -1.8324
  118CHL1  H15B14938   6.931   1.075   7.450 -1.2166  1.3249 -0.6789
  118CHL1   C1614939   6.898   0.902   7.305 -0.2817 -0.3562 -0.4819
  118CHL1  H16A14940   6.832   0.918   7.216 -1.0698  2.9921  0.5597
  118CHL1  H16B14941   7.006   0.911   7.283  0.7711 -1.0827  3.6635
  118CHL1   C1714942   6.882   0.755   7.350 -0.2404 -0.4533  0.3672
  118CHL1   H1714943   6.986   0.729   7.378  0.2397 -1.6500 -2.2456
  118CHL1   C1314944   6.809   0.760   7.484  0.7684  0.5315 -0.1789
  118CHL1   C1814945   6.651   0.778   7.467 -0.3775  0.1727  0.5513
  118CHL1  H18A14946   6.578   0.765   7.550  0.1312  1.0544  1.1519
  118CHL1  H18B14947   6.620   0.875   7.423 -1.1639  0.7010  2.2005
  118CHL1  H18C14948   6.611   0.697   7.402  2.7831 -1.4716  0.4548
  118CHL1   C1214949   6.826   0.653   7.595  0.3968 -0.1878  0.6398
  118CHL1  H12A14950   6.770   0.563   7.561 -0.5850  0.0098  1.6752
  118CHL1  H12B14951   6.934   0.630   7.601  0.3648 -0.8091 -0.7583
  118CHL1   C1114952   6.781   0.695   7.734 -0.0949  0.6434  0.6031
  118CHL1  H11A14953   6.670   0.696   7.733 -0.0979  0.6025 -0.8879
  118CHL1  H11B14954   6.801   0.618   7.812 -2.5283 -0.6823  0.0222
  118CHL1    C914955   6.828   0.835   7.777 -0.1116  0.3835 -0.3264
  118CHL1    H914956   6.937   0.825   7.795 -0.5091 -2.9275  1.0280
  118CHL1   C1014957   6.775   0.879   7.916 -0.1471  0.7323 -0.3304
  118CHL1   C1914958   6.624   0.839   7.926 -0.2760 -0.4449 -0.5196
  118CHL1  H19A14959   6.562   0.903   7.860  1.1799  1.5522 -0.0264
  118CHL1  H19B14960   6.609   0.729   7.916  0.9104 -0.6564 -0.0923
  118CHL1  H19C14961   6.594   0.861   8.031 -0.3545 -0.5873 -0.5114
  118CHL1    C114962   6.854   0.800   8.025 -0.0561  0.1394 -0.5517
  118CHL1   H1A14963   6.817   0.696   8.014 -1.2824  0.6721 -1.8735
  118CHL1   H1B14964   6.961   0.797   7.994 -0.3584 -0.1391 -1.6355
  118CHL1    C214965   6.829   0.842   8.169  0.1232  0.0448  0.2026
  118CHL1   H2A14966   6.899   0.793   8.241  0.5854  2.3576  1.4117
  118CHL1   H2B14967   6.723   0.829   8.201 -0.1220  1.5655  0.0670
  118CHL1   C2014968   6.838   0.663   7.240 -0.2606  0.3822  0.0236
  118CHL1   H2014969   6.738   0.695   7.205  0.2579  0.1250 -1.7858
  118CHL1   C2114970   6.814   0.514   7.288  0.7729  0.1625 -0.3651
  118CHL1  H21A14971   6.776   0.450   7.206  0.7772  0.6247 -0.7372
  118CHL1  H21B14972   6.739   0.523   7.369 -0.8902  1.2998 -1.9355
  118CHL1  H21C14973   6.908   0.460   7.315  0.1645 -1.3838 -1.2130
  118CHL1   C2214974   6.925   0.664   7.115 -0.8362  0.3427  0.0495
  118CHL1  H22A14975   6.979   0.760   7.102  3.2078 -1.7061 -0.0330
  118CHL1  H22B14976   7.008   0.592   7.137  0.2708  1.8847  1.1316
  118CHL1   C2314977   6.845   0.626   6.991  0.2858  0.1536 -0.1087
  118CHL1  H23A14978   6.797   0.527   7.004  2.4244 -0.9752 -0.4324
  118CHL1  H23B14979   6.764   0.700   6.974 -1.4492 -1.1951  1.8339
  118CHL1   C2414980   6.928   0.629   6.860 -0.4632 -0.3158 -0.1481
  118CHL1  H24A14981   7.018   0.564   6.872 -0.6422 -0.6044 -0.3497
  118CHL1  H24B14982   6.865   0.601   6.774 -2.0446  0.8827  0.5874
  118CHL1   C2514983   6.991   0.764   6.818  0.6107  0.0839  0.2738
  118CHL1   H2514984   7.038   0.804   6.910  1.1001 -0.6155  0.3339
  118CHL1   C2614985   7.087   0.754   6.707 -0.0929 -1.1708 -0.2786
  118CHL1  H26A14986   7.041   0.729   6.610 -0.1579  2.2347 -1.2695
  118CHL1  H26B14987   7.130   0.854   6.686  0.2526 -0.6691  2.4471
  118CHL1  H26C14988   7.175   0.691   6.733 -0.0459 -0.3485  1.8031
  118CHL1   C2714989   6.879   0.851   6.770 -0.1056 -1.2192  0.2239
  118CHL1  H27A14990   6.931   0.947   6.754 -1.0904 -0.6253  0.5277
  118CHL1  H27B14991   6.842   0.813   6.672  0.9269 -2.0693  0.1492
  118CHL1  H27C14992   6.784   0.858   6.828 -0.4374 -1.3444 -0.2933
  119CHL1    C314993   0.221   2.053   8.216 -0.9882 -0.7607 -0.4049
  119CHL1    H314994   0.140   1.978   8.227 -0.0542 -1.6206  0.9497
  119CHL1    O314995   0.234   2.104   8.349  0.1247  0.1840 -0.3933
  119CHL1   H3'14996   0.304   2.168   8.334 -0.8860  1.9243  1.6283
  119CHL1    C414997   0.359   1.985   8.183 -1.1115  0.4206  1.0055
  119CHL1   H4A14998   0.441   2.058   8.199  0.4764 -1.4068  1.6782
  119CHL1   H4B14999   0.375   1.907   8.261 -1.4149 -0.6304  0.0440
  119CHL1    C515000   0.351   1.927   8.044  0.1420  0.4091 -0.3804
  119CHL1    C615001   0.378   1.796   8.030 -0.5354  0.0018 -0.7388
  119CHL1    H615002   0.415   1.742   8.119 -2.0296 -0.7066 -0.5181
  119CHL1    C715003   0.367   1.721   7.895 -0.5958 -0.1496 -0.2359
  119CHL1   H7A15004   0.448   1.644   7.890 -0.6707 -0.2421 -0.0348
  119CHL1   H7B15005   0.264   1.679   7.901 -1.8870  2.9970  2.1769
  119CHL1    C815006   0.380   1.826   7.783 -0.1430 -0.0503 -0.4704
  119CHL1    H815007   0.484   1.865   7.775  0.7413 -1.9696  0.6884
  119CHL1   C1415008   0.341   1.751   7.657  0.0168  0.0085 -0.6367
  119CHL1   H1415009   0.245   1.698   7.672  1.4852 -2.0697  2.7460
  119CHL1   C1515010   0.431   1.632   7.618  0.1948 -0.1817 -0.1661
  119CHL1  H15A15011   0.533   1.678   7.618 -0.5644  1.5850  0.1529
  119CHL1  H15B15012   0.443   1.548   7.689  2.7229 -0.7492 -1.1621
  119CHL1   C1615013   0.400   1.603   7.472  0.3213 -0.1627  0.1947
  119CHL1  H16A15014   0.501   1.612   7.426  0.8026  3.0528  1.6073
  119CHL1  H16B15015   0.338   1.516   7.443  0.6263 -0.2485 -0.2104
  119CHL1   C1715016   0.319   1.729   7.424  0.5854  0.6073  1.1786
  119CHL1   H1715017   0.212   1.704   7.440  1.0214 -2.7026 -0.3640
  119CHL1   C1315018   0.336   1.840   7.532 -0.0440  0.4679  0.0634
  119CHL1   C1815019   0.456   1.919   7.501 -0.4183 -0.5419  0.2223
  119CHL1  H18A15020   0.450   1.980   7.408  0.7568  0.8536  1.0235
  119CHL1  H18B15021   0.487   1.990   7.581  0.9523  1.1693 -1.7095
  119CHL1  H18C15022   0.541   1.848   7.490 -0.1659 -0.2033 -0.0123
  119CHL1   C1215023   0.220   1.940   7.557  0.0574 -0.0397  0.4127
  119CHL1  H12A15024   0.200   2.007   7.471  2.0623 -0.9209 -0.8110
  119CHL1  H12B15025   0.133   1.873   7.569  0.6246 -1.4673 -2.6262
  119CHL1   C1115026   0.245   2.026   7.683 -0.5585  0.1683 -0.2005
  119CHL1  H11A15027   0.332   2.093   7.663 -0.4458  0.1664  0.2733
  119CHL1  H11B15028   0.152   2.082   7.705 -2.1739 -1.8244 -1.5586
  119CHL1    C915029   0.273   1.938   7.808 -0.9407  0.6173 -0.0703
  119CHL1    H915030   0.186   1.876   7.839 -0.5482  0.7969  1.4942
  119CHL1   C1015031   0.302   2.026   7.928  0.7568 -0.0235 -0.0258
  119CHL1   C1915032   0.416   2.125   7.902  0.4149 -0.1463 -0.0756
  119CHL1  H19A15033   0.495   2.071   7.845  0.0799 -0.9215  0.1728
  119CHL1  H19B15034   0.384   2.218   7.850 -0.8006  0.4527  1.6460
  119CHL1  H19C15035   0.460   2.163   7.997  1.6164 -2.0245  0.1707
  119CHL1    C115036   0.182   2.098   7.985  0.5787 -0.1304 -0.2946
  119CHL1   H1A15037   0.160   2.181   7.914  0.2366 -1.4501 -1.7776
  119CHL1   H1B15038   0.110   2.014   7.995 -0.1424  0.3069 -1.5464
  119CHL1    C215039   0.194   2.168   8.121 -0.3805 -0.7009  0.4420
  119CHL1   H2A15040   0.100   2.219   8.150 -0.8493  0.2606 -2.4043
  119CHL1   H2B15041   0.278   2.241   8.117 -0.5348 -0.3652  2.4162
  119CHL1   C2015042   0.346   1.764   7.281  0.2983  0.5006  0.3703
  119CHL1   H2015043   0.452   1.797   7.283  0.7631 -0.9877  1.0882
  119CHL1   C2115044   0.270   1.882   7.221 -0.7850 -0.3536  0.6730
  119CHL1  H21A15045   0.279   1.974   7.282  2.9054  0.6919 -1.1970
  119CHL1  H21B15046   0.164   1.848   7.212 -0.8468  0.2345 -1.0394
  119CHL1  H21C15047   0.313   1.907   7.122  0.7100 -0.6508  1.2326
  119CHL1   C2215048   0.328   1.639   7.185  0.2657 -0.3507 -0.4177
  119CHL1  H22A15049   0.404   1.562   7.208  1.4829  0.2800 -2.1812
  119CHL1  H22B15050   0.230   1.588   7.202 -0.0397  0.0369 -0.9849
  119CHL1   C2315051   0.338   1.663   7.031 -0.6810  0.5442 -0.2773
  119CHL1  H23A15052   0.259   1.727   6.986 -1.9740 -1.7842 -1.5234
  119CHL1  H23B15053   0.445   1.681   7.010  1.2624 -1.5657  5.7173
  119CHL1   C2415054   0.304   1.530   6.967 -0.0872 -0.5846 -0.4032
  119CHL1  H24A15055   0.355   1.449   7.023  0.5188  0.2319  0.2438
  119CHL1  H24B15056   0.194   1.519   6.980  0.1105  0.4662  3.2563
  119CHL1   C2515057   0.342   1.509   6.818  0.7803 -0.2056  0.0394
  119CHL1   H2515058   0.445   1.547   6.803  0.5722 -0.0372 -1.0674
  119CHL1   C2615059   0.344   1.363   6.793  0.3172  0.2591  0.3301
  119CHL1  H26A15060   0.246   1.319   6.823 -0.3394  0.9257 -0.7999
  119CHL1  H26B15061   0.365   1.344   6.686  2.0824  1.7876  0.3560
  119CHL1  H26C15062   0.426   1.313   6.851  1.3624  0.7396 -0.6874
  119CHL1   C2715063   0.238   1.579   6.720  0.6324  1.4214  0.5985
  119CHL1  H27A15064   0.191   1.672   6.761 -1.0896  0.4662  0.8965
  119CHL1  H27B15065   0.292   1.611   6.629 -0.3834  1.0289 -0.1598
  119CHL1  H27C15066   0.158   1.505   6.697  3.5098 -1.7435  0.0628
  120CHL1    C315067   0.309   1.270   8.150  0.7405  0.0085  1.0061
  120CHL1    H315068   0.244   1.360   8.148  1.7540  0.7529 -0.1903
  120CHL1    O315069   0.346   1.249   8.279  0.6466 -0.4618 -0.7027
  120CHL1   H3'15070   0.399   1.170   8.265  1.5716 -0.3714  1.7321
  120CHL1    C415071   0.230   1.147   8.098  0.1218  0.7751  0.0538
  120CHL1   H4A15072   0.285   1.055   8.128 -0.8841  0.4344  0.9072
  120CHL1   H4B15073   0.146   1.147   8.171  0.8215  3.1934  0.9328
  120CHL1    C515074   0.193   1.155   7.951  0.5549  0.3103 -0.9319
  120CHL1    C615075   0.059   1.142   7.917 -0.4904 -0.9167 -0.1349
  120CHL1    H615076  -0.014   1.121   7.996  1.4122 -2.2558  1.3672
  120CHL1    C715077   0.010   1.156   7.776  0.2808 -0.2292 -0.0478
  120CHL1   H7A15078  -0.068   1.082   7.746  1.9601 -1.8107 -0.7007
  120CHL1   H7B15079  -0.018   1.260   7.748  0.2164 -0.1037  0.4780
  120CHL1    C815080   0.127   1.126   7.679 -0.4233 -0.2997 -0.0889
  120CHL1    H815081   0.162   1.021   7.690 -0.3700 -0.3141 -0.4020
  120CHL1   C1415082   0.083   1.148   7.536 -0.4870 -0.3777  0.6136
  120CHL1   H1415083   0.037   1.249   7.529 -2.1469 -1.1923 -0.8711
  120CHL1   C1515084  -0.037   1.064   7.483 -0.0695  0.3716 -0.0687
  120CHL1  H15A15085  -0.022   0.958   7.511  1.2639  0.7838  0.8474
  120CHL1  H15B15086  -0.133   1.097   7.530 -2.1023 -0.3790 -3.3211
  120CHL1   C1615087  -0.031   1.081   7.330 -0.3976 -0.1134  0.4184
  120CHL1  H16A15088  -0.034   0.981   7.280 -2.3250 -1.2765  2.6623
  120CHL1  H16B15089  -0.107   1.154   7.293 -1.4066 -2.1427 -1.8145
  120CHL1   C1715090   0.102   1.158   7.301  0.5713  0.8470 -0.0479
  120CHL1   H1715091   0.078   1.266   7.291 -0.4787  0.7779  1.4053
  120CHL1   C1315092   0.192   1.130   7.422 -0.0165 -0.2933 -0.6313
  120CHL1   C1815093   0.237   0.978   7.419  0.1328  0.3520  0.2193
  120CHL1  H18A15094   0.277   0.950   7.519  0.0173  0.3826  0.2736
  120CHL1  H18B15095   0.150   0.921   7.382 -0.8915  1.5510  0.7030
  120CHL1  H18C15096   0.320   0.972   7.345  0.0282 -0.2624  0.1482
  120CHL1   C1215097   0.315   1.219   7.460  0.2674 -0.3755  0.4052
  120CHL1  H12A15098   0.401   1.198   7.392 -1.0311 -3.3905 -0.4739
  120CHL1  H12B15099   0.286   1.325   7.446 -1.3944 -1.0385 -1.7060
  120CHL1   C1115100   0.358   1.200   7.601 -0.0290  0.0202 -0.3037
  120CHL1  H11A15101   0.410   1.102   7.599  0.8835  0.4891 -0.5302
  120CHL1  H11B15102   0.437   1.277   7.616 -0.6348  0.3801  1.1934
  120CHL1    C915103   0.250   1.214   7.710  0.4026  0.3734 -0.2517
  120CHL1    H915104   0.224   1.322   7.711  1.6186  0.7015 -1.7691
  120CHL1   C1015105   0.302   1.188   7.858 -1.0427  0.1130  0.5397
  120CHL1   C1915106   0.414   1.076   7.851 -0.0175 -0.0923 -0.5179
  120CHL1  H19A15107   0.453   1.045   7.950  0.7731  3.0382  0.2840
  120CHL1  H19B15108   0.366   0.985   7.809 -0.7422 -0.6672  1.4738
  120CHL1  H19C15109   0.500   1.100   7.785  0.7551 -0.3034  0.3870
  120CHL1    C115110   0.374   1.324   7.911  0.1879  0.9862 -0.2067
  120CHL1   H1A15111   0.459   1.348   7.844  0.2994 -1.5488 -1.0680
  120CHL1   H1B15112   0.304   1.410   7.910  1.2841  2.0203  2.3886
  120CHL1    C215113   0.425   1.316   8.059  0.2646 -0.1549  0.5444
  120CHL1   H2A15114   0.461   1.415   8.095 -1.9554  1.3045 -0.9718
  120CHL1   H2B15115   0.517   1.254   8.059  2.8385  3.3375  0.7002
  120CHL1   C2015116   0.148   1.115   7.160 -0.0722  0.5727  0.0688
  120CHL1   H2015117   0.162   1.005   7.159 -0.1926  0.4848  2.4566
  120CHL1   C2115118   0.291   1.185   7.147  0.5486  0.2730  0.2604
  120CHL1  H21A15119   0.352   1.124   7.216 -1.1012 -1.8399 -0.0389
  120CHL1  H21B15120   0.266   1.289   7.178 -2.1969  0.1910 -1.3183
  120CHL1  H21C15121   0.322   1.193   7.040 -1.0247  2.9547 -0.1119
  120CHL1   C2215122   0.043   1.144   7.043  0.2327 -0.2087  0.2266
  120CHL1  H22A15123  -0.053   1.093   7.066 -0.5137  0.9774 -0.1741
  120CHL1  H22B15124   0.010   1.250   7.037  1.1570  0.0286 -0.9417
  120CHL1   C2315125   0.081   1.095   6.903 -0.1073  0.2559 -1.0856
  120CHL1  H23A15126   0.179   1.145   6.886  0.7645 -1.0054  0.0200
  120CHL1  H23B15127   0.096   0.986   6.913  2.8257  0.3262 -3.2227
  120CHL1   C2415128  -0.025   1.137   6.794  0.1160  0.2449  0.1462
  120CHL1  H24A15129  -0.127   1.100   6.819  0.2847  1.5329  3.1158
  120CHL1  H24B15130  -0.031   1.247   6.782 -2.5409  0.0136 -1.5768
  120CHL1   C2515131   0.007   1.099   6.647 -0.0702  0.1865 -0.6972
  120CHL1   H2515132   0.028   0.990   6.645  3.0632  0.6296  1.5529
  120CHL1   C2615133  -0.113   1.155   6.558  0.0323  0.1595 -0.9117
  120CHL1  H26A15134  -0.142   1.254   6.599 -0.0040 -0.5667  0.8803
  120CHL1  H26B15135  -0.086   1.172   6.451  1.0972  0.0041 -0.6868
  120CHL1  H26C15136  -0.191   1.079   6.576  0.1711  0.3477  0.6172
  120CHL1   C2715137   0.131   1.176   6.601 -0.0236 -0.6449  0.1534
  120CHL1  H27A15138   0.119   1.285   6.616 -2.0017 -0.8306  0.2697
  120CHL1  H27B15139   0.227   1.141   6.644 -0.2391 -0.5217  0.7384
  120CHL1  H27C15140   0.147   1.154   6.493 -0.7456 -0.5880  0.0275
  121CHL1    C315141   4.661   4.492   5.038  0.6294  0.2240  0.2906
  121CHL1    H315142   4.708   4.418   4.969  2.5217  2.2571 -0.7216
  121CHL1    O315143   4.667   4.624   4.991  0.3810  0.1894  0.4869
  121CHL1   H3'15144   4.606   4.621   4.917  0.7767 -1.0681  0.1851
  121CHL1    C415145   4.510   4.455   5.046  0.0828  0.3248 -1.1560
  121CHL1   H4A15146   4.463   4.544   5.093  0.8350  0.2514 -0.2246
  121CHL1   H4B15147   4.458   4.466   4.949 -0.3382  0.4589 -0.9190
  121CHL1    C515148   4.471   4.322   5.112  0.3041  0.1667 -0.3091
  121CHL1    C615149   4.401   4.226   5.048 -0.0834 -0.6450 -0.2325
  121CHL1    H615150   4.369   4.247   4.945 -0.2821  1.4045  0.2066
  121CHL1    C715151   4.362   4.099   5.111  0.2604  0.6300  0.0797
  121CHL1   H7A15152   4.255   4.071   5.098  0.1073  0.6784  1.1105
  121CHL1   H7B15153   4.417   4.014   5.067  0.3994  0.6220  0.2665
  121CHL1    C815154   4.387   4.096   5.262 -0.3116 -0.1041 -0.5656
  121CHL1    H815155   4.304   4.156   5.306  0.5813  1.3011 -0.7588
  121CHL1   C1415156   4.377   3.958   5.316 -0.1756  0.1282  0.2400
  121CHL1   H1415157   4.465   3.905   5.274  1.3776  1.9341  1.0660
  121CHL1   C1515158   4.260   3.860   5.282  0.5422 -0.2367  0.7482
  121CHL1  H15A15159   4.167   3.920   5.271  0.8362 -0.0242 -0.7041
  121CHL1  H15B15160   4.279   3.817   5.182 -1.3761 -0.8498  0.6116
  121CHL1   C1615161   4.265   3.755   5.388  0.3255  0.2286 -0.2095
  121CHL1  H16A15162   4.161   3.746   5.424  0.0753 -2.3496 -1.3706
  121CHL1  H16B15163   4.299   3.660   5.342  2.8397  0.6615  0.5635
  121CHL1   C1715164   4.373   3.810   5.496 -0.0139  0.4684  0.4252
  121CHL1   H1715165   4.467   3.762   5.460 -1.2862 -1.7636 -0.1054
  121CHL1   C1315166   4.396   3.956   5.469  0.1108  0.3557 -0.0790
  121CHL1   C1815167   4.269   4.023   5.534  1.1885  0.1278  0.1201
  121CHL1  H18A15168   4.174   3.997   5.485  0.7711 -0.9628  1.4443
  121CHL1  H18B15169   4.253   3.999   5.642 -2.6378  0.9356 -0.1523
  121CHL1  H18C15170   4.277   4.134   5.527 -0.1156  0.2355  0.1478
  121CHL1   C1215171   4.533   4.009   5.499  0.8336  0.2044  0.9869
  121CHL1  H12A15172   4.545   4.002   5.609 -1.0680  0.4915  1.2467
  121CHL1  H12B15173   4.607   3.950   5.441  0.2717  0.9997 -0.5929
  121CHL1   C1115174   4.554   4.143   5.445 -0.4159  0.4475  0.0268
  121CHL1  H11A15175   4.497   4.214   5.508 -1.6091 -0.7297  0.3108
  121CHL1  H11B15176   4.662   4.168   5.459 -0.0188 -0.9362 -0.4020
  121CHL1    C915177   4.522   4.166   5.298 -0.8179  0.3851 -0.0262
  121CHL1    H915178   4.603   4.110   5.247 -0.1801  1.5985 -0.3616
  121CHL1   C1015179   4.531   4.302   5.250  0.7908  0.4876  0.1879
  121CHL1   C1915180   4.461   4.400   5.344 -0.8539  0.1491 -0.0153
  121CHL1  H19A15181   4.358   4.367   5.369 -0.6298 -0.8141 -0.3436
  121CHL1  H19B15182   4.526   4.411   5.434  0.0955 -3.4599 -0.1268
  121CHL1  H19C15183   4.459   4.501   5.298 -1.2612  0.9167  1.5860
  121CHL1    C115184   4.674   4.346   5.241 -0.5630  0.5519 -0.1053
  121CHL1   H1A15185   4.733   4.328   5.333  1.3973  1.4622 -1.1274
  121CHL1   H1B15186   4.721   4.273   5.171 -0.4393 -0.0649  0.6151
  121CHL1    C215187   4.712   4.481   5.179  0.2983 -0.5004 -0.5165
  121CHL1   H2A15188   4.822   4.491   5.172  0.3607 -0.9631 -0.2053
  121CHL1   H2B15189   4.684   4.572   5.237 -0.2323 -1.7855  1.3387
  121CHL1   C2015190   4.357   3.755   5.640 -0.7126  0.1552 -0.0534
  121CHL1   H2015191   4.392   3.823   5.720  0.8623 -1.7275  0.9616
  121CHL1   C2115192   4.461   3.640   5.643 -0.2620 -0.2373 -0.3490
  121CHL1  H21A15193   4.460   3.581   5.737 -2.3757  0.0011 -0.1791
  121CHL1  H21B15194   4.565   3.678   5.633  0.5900 -1.5334  2.5349
  121CHL1  H21C15195   4.434   3.575   5.556 -2.2747  0.6400 -0.4316
  121CHL1   C2215196   4.220   3.701   5.687 -0.0390 -0.2946 -0.4368
  121CHL1  H22A15197   4.141   3.775   5.666 -2.2519 -1.7496  2.0701
  121CHL1  H22B15198   4.188   3.616   5.623 -2.2007  0.5107 -0.4919
  121CHL1   C2315199   4.219   3.660   5.833 -0.4993  0.5666  0.1960
  121CHL1  H23A15200   4.270   3.562   5.845  0.8732  0.5734 -4.0326
  121CHL1  H23B15201   4.280   3.729   5.897 -0.4587  0.6779  0.0368
  121CHL1   C2415202   4.087   3.636   5.905 -0.6621  0.5171 -0.2623
  121CHL1  H24A15203   4.039   3.735   5.921 -0.0248  1.1412 -1.9971
  121CHL1  H24B15204   4.025   3.580   5.831 -1.9543 -0.6436  1.6203
  121CHL1   C2515205   4.094   3.558   6.033 -0.4453  0.1162  0.9866
  121CHL1   H2515206   4.134   3.464   5.989 -0.5301  1.9607 -3.4770
  121CHL1   C2615207   4.196   3.610   6.133  0.4026  0.1424 -0.3642
  121CHL1  H26A15208   4.169   3.704   6.187 -0.5156 -0.6505  0.6048
  121CHL1  H26B15209   4.217   3.535   6.212  1.8378  0.1156 -0.7440
  121CHL1  H26C15210   4.296   3.611   6.085  0.6475 -0.8878  0.0908
  121CHL1   C2715211   3.955   3.526   6.092 -0.4027 -0.0260  0.1084
  121CHL1  H27A15212   3.968   3.456   6.177  0.4844  0.4416  0.3740
  121CHL1  H27B15213   3.915   3.623   6.129  0.0123  1.2033 -2.4054
  121CHL1  H27C15214   3.888   3.485   6.014 -0.5098 -0.4138  0.4011
  122CHL1    C315215   3.874   5.390   5.334 -0.5586 -0.0431 -0.9593
  122CHL1    H315216   3.868   5.497   5.362  0.5013  0.2587 -1.8211
  122CHL1    O315217   3.925   5.385   5.200 -0.0885  0.2583  0.5874
  122CHL1   H3'15218   3.868   5.446   5.153 -1.0537 -0.6211  0.5830
  122CHL1    C415219   3.955   5.290   5.426  0.7245 -0.4423 -0.0083
  122CHL1   H4A15220   3.940   5.189   5.382  0.8338 -0.0167 -1.0575
  122CHL1   H4B15221   4.063   5.317   5.418  0.4034  0.3530 -2.5988
  122CHL1    C515222   3.887   5.297   5.562  0.0251 -0.0388  0.2227
  122CHL1    C615223   3.947   5.356   5.661 -1.1434 -0.6079 -0.0970
  122CHL1    H615224   4.046   5.400   5.638 -1.5543 -0.4371 -1.6630
  122CHL1    C715225   3.888   5.370   5.803 -0.7448 -0.5345 -0.1485
  122CHL1   H7A15226   3.974   5.351   5.871 -0.5908 -2.3669 -0.8045
  122CHL1   H7B15227   3.864   5.477   5.819 -0.2839 -0.2278 -1.3441
  122CHL1    C815228   3.772   5.273   5.827  0.0168 -0.0066 -1.0580
  122CHL1    H815229   3.818   5.172   5.825  1.4714  0.5429  1.3236
  122CHL1   C1415230   3.703   5.297   5.964  0.3492 -0.4274 -0.1820
  122CHL1   H1415231   3.685   5.406   5.966 -3.3384 -0.8930 -0.0363
  122CHL1   C1515232   3.784   5.277   6.093  0.2256  0.1876  0.4759
  122CHL1  H15A15233   3.865   5.201   6.094  1.8406  1.8294  1.2189
  122CHL1  H15B15234   3.848   5.366   6.109 -0.9857  1.4201 -1.2162
  122CHL1   C1615235   3.680   5.263   6.211 -0.3992  0.1831 -0.2253
  122CHL1  H16A15236   3.679   5.165   6.263 -0.6836  0.9674  1.2794
  122CHL1  H16B15237   3.687   5.342   6.288  0.8998 -2.1491  2.2400
  122CHL1   C1715238   3.543   5.276   6.137 -0.4992 -0.3242  0.7535
  122CHL1   H1715239   3.516   5.383   6.120 -0.4943 -0.6970 -2.1566
  122CHL1   C1315240   3.567   5.232   5.986 -0.2979 -0.5330 -0.3242
  122CHL1   C1815241   3.583   5.076   5.983  0.8219  0.3365 -0.5876
  122CHL1  H18A15242   3.645   5.039   6.068 -1.1601 -0.8079  0.4331
  122CHL1  H18B15243   3.480   5.038   6.002  0.6737  2.0730  2.9391
  122CHL1  H18C15244   3.617   5.037   5.885 -0.6146  2.6841 -2.1358
  122CHL1   C1215245   3.475   5.285   5.878  0.7431 -0.6974 -0.2914
  122CHL1  H12A15246   3.375   5.238   5.874  1.1426 -1.4981 -1.2499
  122CHL1  H12B15247   3.472   5.396   5.880 -1.0149 -0.7263  0.3153
  122CHL1   C1115248   3.530   5.242   5.736 -0.7276 -0.5057  0.1344
  122CHL1  H11A15249   3.542   5.132   5.728  0.1680 -0.5885  2.0274
  122CHL1  H11B15250   3.461   5.270   5.654  1.0883 -1.2007 -1.7262
  122CHL1    C915251   3.670   5.296   5.712  0.3185 -0.4854  0.3254
  122CHL1    H915252   3.662   5.406   5.717 -1.3621 -0.4827 -1.4294
  122CHL1   C1015253   3.737   5.259   5.575 -0.6310  0.2935  0.7472
  122CHL1   C1915254   3.746   5.105   5.560 -0.0076 -0.5546 -0.3569
  122CHL1  H19A15255   3.645   5.059   5.567 -0.1538 -0.0758  0.9985
  122CHL1  H19B15256   3.780   5.075   5.458 -0.1850 -0.0318 -0.5745
  122CHL1  H19C15257   3.818   5.054   5.627  0.1601  0.4249  0.2244
  122CHL1    C115258   3.663   5.327   5.456 -0.0511  0.2651 -0.3371
  122CHL1   H1A15259   3.562   5.283   5.441 -1.6790  2.9553  1.7592
  122CHL1   H1B15260   3.633   5.428   5.491 -1.1463  0.1295 -0.8186
  122CHL1    C215261   3.732   5.334   5.324  0.6686  0.5688  0.3620
  122CHL1   H2A15262   3.682   5.397   5.248  1.5297 -0.2103 -0.8923
  122CHL1   H2B15263   3.748   5.230   5.286 -0.4096 -0.1004  1.6534
  122CHL1   C2015264   3.430   5.205   6.210 -0.2874 -0.6349 -0.2417
  122CHL1   H2015265   3.438   5.094   6.218 -1.6644 -0.8810 -1.7986
  122CHL1   C2115266   3.288   5.215   6.145  0.2654  0.2023  0.0480
  122CHL1  H21A15267   3.297   5.142   6.062  1.6137  0.2038  0.1725
  122CHL1  H21B15268   3.278   5.320   6.111  2.6588  0.5703  0.3559
  122CHL1  H21C15269   3.219   5.185   6.227  0.9126  1.2912  1.0293
  122CHL1   C2215270   3.413   5.256   6.356  0.2253 -0.5541  0.6081
  122CHL1  H22A15271   3.397   5.366   6.367 -0.0172 -0.6189  0.9179
  122CHL1  H22B15272   3.320   5.203   6.387 -0.1488 -0.0359  0.3855
  122CHL1   C2315273   3.514   5.218   6.473  0.8189 -0.4747  0.2029
  122CHL1  H23A15274   3.527   5.108   6.469  1.1152 -0.4547  0.6439
  122CHL1  H23B15275   3.611   5.272   6.467  0.5103  0.1911  1.0396
  122CHL1   C2415276   3.449   5.242   6.612 -0.0339  0.2463  0.2642
  122CHL1  H24A15277   3.469   5.348   6.639 -1.5269  0.2908  1.3194
  122CHL1  H24B15278   3.338   5.228   6.610  0.1723 -1.5790 -0.4028
  122CHL1   C2515279   3.498   5.154   6.721  0.0992  0.5164  0.3797
  122CHL1   H2515280   3.445   5.056   6.712  0.8891 -0.0149  1.2964
  122CHL1   C2615281   3.651   5.126   6.704  0.1830 -0.4141  0.0795
  122CHL1  H26A15282   3.667   5.068   6.611 -1.6374  0.1292 -0.6042
  122CHL1  H26B15283   3.704   5.223   6.718  0.0489 -0.5257  1.5512
  122CHL1  H26C15284   3.677   5.068   6.795 -1.0508  1.8500  1.9949
  122CHL1   C2715285   3.482   5.218   6.859 -0.3097  0.3679 -0.3376
  122CHL1  H27A15286   3.492   5.140   6.937 -0.4623  0.9504  0.2825
  122CHL1  H27B15287   3.556   5.298   6.884  0.3105 -0.3801  0.2629
  122CHL1  H27C15288   3.380   5.262   6.854 -0.6076 -0.2426  0.2130
  123CHL1    C315289   6.202   3.223   4.785  0.5598  0.2068 -0.8609
  123CHL1    H315290   6.305   3.262   4.805  0.3975  0.5698 -0.7324
  123CHL1    O315291   6.179   3.226   4.650 -0.4337  0.0886  0.3997
  123CHL1   H3'15292   6.158   3.316   4.622 -0.1523  0.4505  1.3322
  123CHL1    C415293   6.215   3.078   4.837 -0.4554  1.2528  0.2654
  123CHL1   H4A15294   6.126   3.017   4.808  0.9813 -0.1633 -1.4898
  123CHL1   H4B15295   6.300   3.021   4.792 -1.1488 -2.0695  2.7597
  123CHL1    C515296   6.217   3.074   4.984  0.1117 -0.7405 -0.3142
  123CHL1    C615297   6.320   3.022   5.049 -0.8675 -0.1595  0.9532
  123CHL1    H615298   6.393   2.960   4.994 -0.9872 -1.9118  2.6508
  123CHL1    C715299   6.321   3.003   5.197 -0.2237 -0.0268 -0.2677
  123CHL1   H7A15300   6.371   2.906   5.221 -0.9169 -1.0220 -2.5836
  123CHL1   H7B15301   6.391   3.075   5.245 -2.8003  1.7328  1.0618
  123CHL1    C815302   6.190   3.022   5.272  0.3716  0.3308 -0.4453
  123CHL1    H815303   6.132   2.930   5.249  2.0543 -1.3056  1.3672
  123CHL1   C1415304   6.205   3.048   5.425 -1.1340 -0.0758 -1.0102
  123CHL1   H1415305   6.267   3.140   5.431 -0.9409 -0.3209  1.8507
  123CHL1   C1515306   6.282   2.940   5.500 -0.8365 -0.0028 -0.5748
  123CHL1  H15A15307   6.239   2.841   5.471 -1.6613 -0.7450  2.7399
  123CHL1  H15B15308   6.391   2.928   5.483 -0.8121 -1.9000  0.5610
  123CHL1   C1615309   6.253   2.973   5.651 -0.2751 -0.1154 -0.1078
  123CHL1  H16A15310   6.222   2.875   5.695  0.2739  0.0722  0.7337
  123CHL1  H16B15311   6.344   3.012   5.702 -0.9180  1.1376  0.1153
  123CHL1   C1715312   6.141   3.085   5.646  0.5106  0.3811  0.9191
  123CHL1   H1715313   6.202   3.178   5.650 -1.0932  1.4895  0.5077
  123CHL1   C1315314   6.084   3.078   5.505 -1.1606  0.6350  0.0734
  123CHL1   C1815315   5.992   2.962   5.492  0.1020  0.1801 -0.0589
  123CHL1  H18A15316   6.032   2.872   5.544  0.7582 -0.0740 -0.9823
  123CHL1  H18B15317   5.891   2.981   5.535 -0.0060  1.2746 -0.7712
  123CHL1  H18C15318   5.969   2.927   5.389 -1.7386 -3.8973  1.4802
  123CHL1   C1215319   6.019   3.200   5.441 -0.0811  0.1151  0.0968
  123CHL1  H12A15320   5.927   3.226   5.498  0.2293  0.0373  0.6469
  123CHL1  H12B15321   6.087   3.287   5.455 -0.8372  0.8784 -0.8449
  123CHL1   C1115322   5.996   3.201   5.294 -0.1469 -0.5645 -0.0426
  123CHL1  H11A15323   5.906   3.140   5.271  0.0440 -0.4444 -1.1628
  123CHL1  H11B15324   5.975   3.304   5.258  0.7827 -0.0430  0.8352
  123CHL1    C915325   6.117   3.148   5.212 -0.4445 -0.0698  0.3212
  123CHL1    H915326   6.190   3.227   5.241  1.1307 -1.1181 -0.6553
  123CHL1   C1015327   6.098   3.152   5.057 -0.7476  0.6322  0.4703
  123CHL1   C1915328   5.965   3.083   5.029  0.3000  0.3208 -0.1123
  123CHL1  H19A15329   5.945   3.052   4.924 -0.4821  2.9891 -0.8376
  123CHL1  H19B15330   5.957   2.986   5.081 -0.7857  0.9553  0.9602
  123CHL1  H19C15331   5.882   3.152   5.055 -0.8552 -0.4851 -1.5030
  123CHL1    C115332   6.095   3.295   4.999 -0.3577  0.9884 -0.9608
  123CHL1   H1A15333   6.012   3.352   5.046 -0.6016 -0.6143  0.6276
  123CHL1   H1B15334   6.185   3.355   5.026  0.0326 -0.1785  0.4176
  123CHL1    C215335   6.089   3.302   4.853 -0.1152 -0.1269  0.2983
  123CHL1   H2A15336   6.095   3.410   4.826  0.9931 -0.3201 -0.2410
  123CHL1   H2B15337   5.996   3.249   4.823 -2.9361  1.1147  5.5568
  123CHL1   C2015338   6.041   3.082   5.764 -0.2056 -0.6187 -0.6917
  123CHL1   H2015339   5.987   2.985   5.764 -0.9794 -0.1953 -1.0595
  123CHL1   C2115340   5.942   3.201   5.754  0.8679  0.0270 -0.7108
  123CHL1  H21A15341   5.866   3.161   5.683 -0.5131 -0.7798  1.1413
  123CHL1  H21B15342   5.992   3.294   5.719 -1.9095  3.0581  2.5574
  123CHL1  H21C15343   5.882   3.225   5.844 -0.4201  1.6551 -1.9313
  123CHL1   C2215344   6.118   3.081   5.897  0.6410 -0.1299  0.9600
  123CHL1  H22A15345   6.202   3.009   5.901  1.6743  0.9119 -0.8328
  123CHL1  H22B15346   6.167   3.179   5.912  0.4239  0.1994 -0.3961
  123CHL1   C2315347   6.027   3.047   6.015 -0.4648  0.4196 -0.3790
  123CHL1  H23A15348   6.068   3.092   6.108  0.8575  0.8357 -1.1438
  123CHL1  H23B15349   5.920   3.076   6.003 -1.0050 -0.9046  0.9256
  123CHL1   C2415350   6.009   2.888   6.029  0.0575 -0.8625  0.0509
  123CHL1  H24A15351   5.921   2.868   6.093  0.9920  0.5037  1.8753
  123CHL1  H24B15352   5.988   2.853   5.925  0.0657 -0.9098  0.0655
  123CHL1   C2515353   6.128   2.812   6.091  0.3858  0.2837 -0.1672
  123CHL1   H2515354   6.221   2.847   6.042  0.2802 -0.4848 -0.9558
  123CHL1   C2615355   6.136   2.849   6.242 -0.6741 -0.3137 -0.0274
  123CHL1  H26A15356   6.040   2.810   6.282  0.8400 -1.1691  3.0874
  123CHL1  H26B15357   6.226   2.812   6.296  2.5219  2.4904 -2.9293
  123CHL1  H26C15358   6.148   2.960   6.242  2.2806 -0.5543 -0.5177
  123CHL1   C2715359   6.118   2.662   6.064 -0.0739  0.0398 -0.5401
  123CHL1  H27A15360   6.026   2.614   6.103  1.3858 -2.7832 -0.2606
  123CHL1  H27B15361   6.120   2.630   5.958 -1.7342 -0.4093 -0.4624
  123CHL1  H27C15362   6.201   2.609   6.116  1.1652  0.9982 -1.4658
  124CHL1    C315363   4.168   5.914   5.207  0.1790  0.0075  0.1508
  124CHL1    H315364   4.184   6.016   5.249  0.7050  0.9683 -2.2135
  124CHL1    O315365   4.166   5.913   5.067  0.1391 -0.0533  0.2753
  124CHL1   H3'15366   4.102   5.982   5.047 -0.6178 -0.9767 -0.6568
  124CHL1    C415367   4.285   5.828   5.261  0.5124 -0.7772 -0.5184
  124CHL1   H4A15368   4.284   5.724   5.223 -1.0279 -0.1088 -2.4323
  124CHL1   H4B15369   4.383   5.868   5.227  0.4920  1.7053  1.9198
  124CHL1    C515370   4.284   5.829   5.414  0.4010  0.9100 -0.3135
  124CHL1    C615371   4.394   5.867   5.479 -0.6498  0.2573 -0.8957
  124CHL1    H615372   4.489   5.884   5.426  0.6541 -0.7871  1.0002
  124CHL1    C715373   4.406   5.870   5.631  0.1558 -0.5130 -0.6099
  124CHL1   H7A15374   4.507   5.836   5.659  1.3210  2.0914 -1.3510
  124CHL1   H7B15375   4.397   5.978   5.657  1.8569 -0.5921  0.4046
  124CHL1    C815376   4.288   5.798   5.709  0.2483 -0.5621  0.7627
  124CHL1    H815377   4.301   5.688   5.700 -0.9269 -0.6880  0.4407
  124CHL1   C1415378   4.276   5.838   5.852  0.2187  0.2691 -0.3580
  124CHL1   H1415379   4.252   5.946   5.852 -1.9744 -0.1106  2.3761
  124CHL1   C1515380   4.403   5.820   5.937  0.6613 -0.1205  0.1993
  124CHL1  H15A15381   4.434   5.715   5.920 -1.0989 -0.2397 -2.8612
  124CHL1  H15B15382   4.484   5.881   5.893  2.4226 -2.1133  0.5043
  124CHL1   C1615383   4.361   5.840   6.078 -0.0273  0.1754 -0.5373
  124CHL1  H16A15384   4.400   5.753   6.135  0.0183 -1.7318 -3.3320
  124CHL1  H16B15385   4.375   5.936   6.132  2.3777  0.2768 -1.2311
  124CHL1   C1715386   4.207   5.823   6.069 -0.1603  0.5216  0.2218
  124CHL1   H1715387   4.180   5.930   6.058 -0.4573  0.4185 -0.0790
  124CHL1   C1315388   4.170   5.765   5.931  0.5504 -0.9100 -0.3459
  124CHL1   C1815389   4.181   5.608   5.936  0.2984  0.3004 -0.8345
  124CHL1  H18A15390   4.105   5.567   6.006  0.1594 -0.3911 -1.3744
  124CHL1  H18B15391   4.162   5.560   5.837 -1.5908 -0.4941 -0.1232
  124CHL1  H18C15392   4.283   5.578   5.970  0.2268 -0.9646 -1.6423
  124CHL1   C1215393   4.035   5.815   5.876 -0.2262  0.2823  0.5334
  124CHL1  H12A15394   3.946   5.755   5.905 -1.8374  3.2659  2.3398
  124CHL1  H12B15395   4.022   5.919   5.913  0.6969  0.3944  0.5681
  124CHL1   C1115396   4.030   5.800   5.719 -0.3134 -0.5395  0.5292
  124CHL1  H11A15397   4.017   5.691   5.703 -1.7666 -0.2851 -0.1913
  124CHL1  H11B15398   3.945   5.850   5.668  0.7053  1.7314  0.9263
  124CHL1    C915399   4.152   5.839   5.638 -0.2933 -1.0771  0.7097
  124CHL1    H915400   4.149   5.950   5.640 -2.5760 -1.0980  2.6853
  124CHL1   C1015401   4.154   5.804   5.481  0.2599  0.1989 -0.4226
  124CHL1   C1915402   4.132   5.653   5.473  0.6056 -0.3874  0.2547
  124CHL1  H19A15403   4.030   5.635   5.512 -0.1509  2.6128 -0.1443
  124CHL1  H19B15404   4.140   5.615   5.369 -1.4243  2.4221 -1.0366
  124CHL1  H19C15405   4.203   5.593   5.534  0.4736 -0.1265  0.6649
  124CHL1    C115406   4.042   5.898   5.414 -0.1539 -0.0986 -0.7244
  124CHL1   H1A15407   3.940   5.874   5.452 -0.3628 -1.0806 -1.8332
  124CHL1   H1B15408   4.066   6.004   5.436  3.2031 -0.8517 -0.3096
  124CHL1    C215409   4.036   5.872   5.264  0.5736  0.3822 -0.8358
  124CHL1   H2A15410   3.962   5.945   5.225  1.2571  1.1250 -0.7693
  124CHL1   H2B15411   4.010   5.768   5.234 -0.9436  1.0488 -1.9392
  124CHL1   C2015412   4.122   5.773   6.183  0.7707  0.5316 -0.3883
  124CHL1   H2015413   4.022   5.755   6.139 -0.9145  1.5911  2.7499
  124CHL1   C2115414   4.098   5.890   6.281 -0.1171  0.3740  0.3267
  124CHL1  H21A15415   4.055   5.969   6.215  0.3324 -0.2602 -0.7539
  124CHL1  H21B15416   4.198   5.927   6.314  0.0232  1.5424 -1.2724
  124CHL1  H21C15417   4.018   5.878   6.356  1.2726  0.1574  1.8367
  124CHL1   C2215418   4.168   5.647   6.268  0.3977  1.0264  0.3785
  124CHL1  H22A15419   4.207   5.570   6.198  1.6967  0.5726  1.5592
  124CHL1  H22B15420   4.247   5.668   6.343  0.1686  2.5031  0.2252
  124CHL1   C2315421   4.052   5.587   6.351 -0.1932  0.2202  0.0478
  124CHL1  H23A15422   4.004   5.668   6.411  0.4723 -0.2415  1.2357
  124CHL1  H23B15423   3.979   5.535   6.284  0.1305  1.0118 -0.9371
  124CHL1   C2415424   4.104   5.487   6.452  0.2624  0.0009  0.4643
  124CHL1  H24A15425   4.119   5.399   6.386 -0.8507 -1.0997  1.6036
  124CHL1  H24B15426   4.195   5.507   6.512  0.3512 -1.2513  0.7835
  124CHL1   C2515427   3.990   5.451   6.554 -0.5649 -0.3824  0.1808
  124CHL1   H2515428   3.956   5.545   6.602 -0.0728  0.2399 -0.6787
  124CHL1   C2615429   3.867   5.389   6.491  0.2298  0.3177 -0.0160
  124CHL1  H26A15430   3.823   5.453   6.411 -2.0773 -0.0012  0.9367
  124CHL1  H26B15431   3.888   5.294   6.436 -3.4072 -0.3353 -0.5229
  124CHL1  H26C15432   3.792   5.387   6.572 -0.5718 -1.7777 -0.7347
  124CHL1   C2715433   4.051   5.370   6.671  0.4325  0.7892 -0.3024
  124CHL1  H27A15434   4.063   5.263   6.645 -0.2927 -0.6630  4.4676
  124CHL1  H27B15435   4.149   5.407   6.709 -0.7533  2.0957  1.6590
  124CHL1  H27C15436   3.981   5.378   6.756 -0.6174 -1.3536 -0.9028
  125CHL1    C315437   4.845   5.230   4.939 -0.3060 -0.9757 -0.7551
  125CHL1    H315438   4.747   5.281   4.951  1.4505  2.2269  1.0890
  125CHL1    O315439   4.899   5.282   4.821  0.3165 -0.0572  0.2234
  125CHL1   H3'15440   4.864   5.234   4.746  0.8867 -0.0658 -0.0437
  125CHL1    C415441   4.936   5.264   5.060 -0.4932  0.1362  0.7362
  125CHL1   H4A15442   5.031   5.213   5.036 -0.2267  1.4708 -1.3632
  125CHL1   H4B15443   4.959   5.373   5.068  0.9735 -0.2409  2.2591
  125CHL1    C515444   4.886   5.204   5.182 -0.2058  0.6689 -0.4028
  125CHL1    C615445   4.863   5.275   5.290  0.1043 -0.8342 -0.0594
  125CHL1    H615446   4.876   5.384   5.296 -0.2865 -0.8576  2.4450
  125CHL1    C715447   4.816   5.227   5.420 -0.3747 -0.0729  0.1049
  125CHL1   H7A15448   4.846   5.284   5.511 -1.5579  1.1990 -0.2745
  125CHL1   H7B15449   4.707   5.247   5.416 -0.1569  1.8235  1.7545
  125CHL1    C815450   4.822   5.075   5.436 -0.4501 -0.3021 -0.0527
  125CHL1    H815451   4.927   5.048   5.459 -0.4908 -3.4935 -2.8253
  125CHL1   C1415452   4.730   5.021   5.547  0.3995 -0.0866  0.5855
  125CHL1   H1415453   4.629   5.039   5.504  1.7933  2.5507 -1.8449
  125CHL1   C1515454   4.733   5.085   5.686 -0.0083 -0.0101 -0.2616
  125CHL1  H15A15455   4.840   5.104   5.710  0.8375 -0.8318 -2.9617
  125CHL1  H15B15456   4.669   5.174   5.703 -0.1259  0.1308 -1.3352
  125CHL1   C1615457   4.671   4.980   5.787 -0.6079  1.1652  0.3383
  125CHL1  H16A15458   4.734   4.948   5.873  0.3302  1.0793 -0.3527
  125CHL1  H16B15459   4.578   5.020   5.832 -1.0997 -0.4134  0.7903
  125CHL1   C1715460   4.636   4.855   5.701 -0.5000 -0.1269 -0.2325
  125CHL1   H1715461   4.533   4.872   5.663 -0.4488  0.4213 -0.1354
  125CHL1   C1315462   4.729   4.866   5.567  0.4012 -0.5196  0.3486
  125CHL1   C1815463   4.871   4.817   5.603  0.2951 -0.0015 -0.1340
  125CHL1  H18A15464   4.903   4.865   5.699 -2.6699  0.5480  0.6655
  125CHL1  H18B15465   4.858   4.709   5.625 -0.8158  0.2677  0.5797
  125CHL1  H18C15466   4.944   4.847   5.524 -1.7084  0.9112 -1.7197
  125CHL1   C1215467   4.677   4.801   5.433 -0.3720 -0.0897 -0.2320
  125CHL1  H12A15468   4.677   4.691   5.446 -0.8029 -0.1551 -0.7448
  125CHL1  H12B15469   4.573   4.835   5.412 -0.5712 -1.2372 -1.1707
  125CHL1   C1115470   4.773   4.847   5.318  0.1303 -0.7088  0.9578
  125CHL1  H11A15471   4.871   4.795   5.326  0.8738  0.5412  0.3076
  125CHL1  H11B15472   4.721   4.807   5.228 -0.4100  1.1541  0.3966
  125CHL1    C915473   4.777   4.999   5.304 -0.0056 -0.1057  0.3992
  125CHL1    H915474   4.674   5.039   5.288 -0.5495 -1.1446  1.1713
  125CHL1   C1015475   4.857   5.052   5.179  0.1132  0.2116  0.5523
  125CHL1   C1915476   4.993   4.981   5.179 -0.4747  0.4932 -0.0677
  125CHL1  H19A15477   4.985   4.871   5.172  1.9897  0.2809 -0.1999
  125CHL1  H19B15478   5.054   5.003   5.089  3.3518 -1.0618  1.9274
  125CHL1  H19C15479   5.060   4.992   5.267  2.2621 -0.4124 -1.9105
  125CHL1    C115480   4.779   5.012   5.046  0.1822  0.0619 -0.4552
  125CHL1   H1A15481   4.785   4.901   5.040 -1.7471 -0.0686 -0.6280
  125CHL1   H1B15482   4.675   5.049   5.053  1.0476  2.6634  0.0552
  125CHL1    C215483   4.834   5.081   4.919  0.2812 -0.0750 -0.0588
  125CHL1   H2A15484   4.768   5.059   4.833  0.7659 -0.4996 -0.3259
  125CHL1   H2B15485   4.929   5.030   4.894 -0.2718 -2.4898  2.2659
  125CHL1   C2015486   4.631   4.722   5.773 -0.4955 -1.0898  0.0613
  125CHL1   H2015487   4.735   4.692   5.801 -0.5979 -0.7610  0.8112
  125CHL1   C2115488   4.591   4.612   5.684 -0.2233  0.3752 -0.3837
  125CHL1  H21A15489   4.667   4.587   5.607  0.9703  0.4092  0.7551
  125CHL1  H21B15490   4.503   4.633   5.620 -0.0885  1.6354 -0.1870
  125CHL1  H21C15491   4.569   4.515   5.733 -1.2047  0.7520 -0.0555
  125CHL1   C2215492   4.547   4.717   5.905  0.0916 -0.7360  0.1681
  125CHL1  H22A15493   4.532   4.821   5.942  2.1322 -0.5286  0.5349
  125CHL1  H22B15494   4.443   4.686   5.880  0.0982 -0.3548 -0.3536
  125CHL1   C2315495   4.605   4.630   6.014  0.5828 -0.1492  0.1756
  125CHL1  H23A15496   4.617   4.526   5.976 -2.7572 -1.5657  2.5565
  125CHL1  H23B15497   4.704   4.672   6.043  0.4761 -0.8118  1.5588
  125CHL1   C2415498   4.514   4.611   6.131 -0.2703 -0.9047  0.4527
  125CHL1  H24A15499   4.483   4.708   6.176  2.5003 -0.5818  1.8925
  125CHL1  H24B15500   4.420   4.563   6.098 -1.5163  1.9525 -0.3962
  125CHL1   C2515501   4.568   4.533   6.258 -0.3719 -0.2523 -0.8820
  125CHL1   H2515502   4.653   4.593   6.296 -0.5782 -0.0460 -0.7410
  125CHL1   C2615503   4.464   4.520   6.362  0.6698  0.2083 -0.1548
  125CHL1  H26A15504   4.375   4.468   6.321 -0.4803  0.8786  1.3711
  125CHL1  H26B15505   4.491   4.463   6.453  1.7176  0.4775 -0.2867
  125CHL1  H26C15506   4.412   4.614   6.393 -0.8320 -0.3355 -0.9218
  125CHL1   C2715507   4.616   4.396   6.210  0.2015 -0.3940 -0.0708
  125CHL1  H27A15508   4.638   4.335   6.300  1.4185  0.0617 -0.0413
  125CHL1  H27B15509   4.536   4.342   6.156 -1.3008  1.2074  0.4554
  125CHL1  H27C15510   4.704   4.409   6.143 -0.9839  1.9434 -1.3060
  126CHL1    C315511   3.711   6.338   5.459 -0.0380  0.0593  1.0484
  126CHL1    H315512   3.814   6.361   5.491  0.6982 -1.3553 -0.1653
  126CHL1    O315513   3.710   6.357   5.318  0.0526 -0.0898  0.2783
  126CHL1   H3'15514   3.618   6.345   5.293  0.0466 -1.4048  0.8319
  126CHL1    C415515   3.688   6.195   5.507  0.0174 -0.0275  0.1101
  126CHL1   H4A15516   3.587   6.170   5.468  0.3356 -1.7769  0.3358
  126CHL1   H4B15517   3.775   6.141   5.464  1.1736  1.2598  0.7326
  126CHL1    C515518   3.686   6.195   5.659  0.1322  0.5444 -0.1909
  126CHL1    C615519   3.779   6.120   5.723 -0.1486 -0.4702 -0.3562
  126CHL1    H615520   3.848   6.065   5.656 -0.7617  0.0427 -1.4226
  126CHL1    C715521   3.786   6.110   5.874  0.1935 -0.0147  0.2816
  126CHL1   H7A15522   3.800   6.003   5.900 -1.4234 -0.9456 -2.2431
  126CHL1   H7B15523   3.875   6.163   5.913  0.4996 -0.1223 -0.2570
  126CHL1    C815524   3.653   6.168   5.947 -0.3276  0.1605 -0.3063
  126CHL1    H815525   3.570   6.097   5.926 -1.5260  1.3734  0.1722
  126CHL1   C1415526   3.682   6.203   6.092  0.1315 -0.4079 -0.3684
  126CHL1   H1415527   3.757   6.285   6.093 -0.5007  0.1862 -0.7561
  126CHL1   C1515528   3.732   6.086   6.184  1.0225  0.3752 -1.1048
  126CHL1  H15A15529   3.660   6.005   6.161  0.2979  0.9994 -1.0684
  126CHL1  H15B15530   3.835   6.057   6.151  0.8168  0.7018 -2.0465
  126CHL1   C1615531   3.718   6.136   6.329  0.0890 -0.1012 -0.1388
  126CHL1  H16A15532   3.663   6.061   6.391 -1.2940 -1.1329 -2.5043
  126CHL1  H16B15533   3.815   6.173   6.368  0.6970  1.5426 -2.9557
  126CHL1   C1715534   3.626   6.264   6.312  0.7711  0.6451 -0.0754
  126CHL1   H1715535   3.692   6.354   6.310  0.7029  0.6882 -1.6842
  126CHL1   C1315536   3.556   6.255   6.172  0.0515 -0.5990 -0.2863
  126CHL1   C1815537   3.439   6.151   6.171 -0.1348 -0.7045  0.2662
  126CHL1  H18A15538   3.464   6.060   6.230  0.8654 -0.5006  0.1573
  126CHL1  H18B15539   3.345   6.192   6.214  0.7977  1.3999  0.3816
  126CHL1  H18C15540   3.406   6.119   6.069 -1.7779  0.6640  0.3308
  126CHL1   C1215541   3.520   6.387   6.111 -0.4429 -0.4059  0.3990
  126CHL1  H12A15542   3.441   6.439   6.169 -1.0657 -0.8672 -0.0215
  126CHL1  H12B15543   3.610   6.450   6.120 -0.0659 -1.0597  1.4340
  126CHL1   C1115544   3.488   6.371   5.967 -0.4887  0.0784 -0.4179
  126CHL1  H11A15545   3.391   6.316   5.967 -0.6198  0.2477  1.1729
  126CHL1  H11B15546   3.463   6.472   5.928 -1.8628 -0.4750 -1.0419
  126CHL1    C915547   3.604   6.302   5.885 -0.2299  0.1925  0.3277
  126CHL1    H915548   3.692   6.369   5.888 -1.5841  2.2037 -1.5229
  126CHL1   C1015549   3.584   6.288   5.733  0.1770 -0.7181 -0.6047
  126CHL1   C1915550   3.447   6.223   5.701 -0.1292 -0.2283  0.2089
  126CHL1  H19A15551   3.444   6.114   5.726 -0.5429 -0.0624  0.8872
  126CHL1  H19B15552   3.365   6.259   5.767 -2.5808 -2.4524 -1.4021
  126CHL1  H19C15553   3.407   6.241   5.598  0.9711  2.8423  0.2433
  126CHL1    C115554   3.594   6.429   5.667  0.1514 -0.4386 -0.0768
  126CHL1   H1A15555   3.503   6.484   5.701 -1.4798 -0.8127 -3.4764
  126CHL1   H1B15556   3.686   6.480   5.703  0.3058 -0.7301 -0.0628
  126CHL1    C215557   3.598   6.437   5.512  0.8787 -0.6370 -0.5343
  126CHL1   H2A15558   3.622   6.539   5.476  1.3222  0.4081  2.4726
  126CHL1   H2B15559   3.494   6.413   5.479 -0.6829 -0.0375  3.4770
  126CHL1   C2015560   3.529   6.276   6.430  0.4742  0.4296  0.3590
  126CHL1   H2015561   3.455   6.194   6.420 -0.2279  1.2044 -1.0092
  126CHL1   C2115562   3.447   6.404   6.430  0.3386  0.3622 -0.4169
  126CHL1  H21A15563   3.515   6.489   6.406  0.7868 -0.1331 -0.9128
  126CHL1  H21B15564   3.420   6.425   6.535  1.4992  0.1859 -0.0643
  126CHL1  H21C15565   3.360   6.399   6.362  0.8787 -2.6119 -1.0180
  126CHL1   C2215566   3.590   6.254   6.579 -0.4635  0.2378  0.1527
  126CHL1  H22A15567   3.517   6.260   6.663 -1.0806 -1.0143 -0.2547
  126CHL1  H22B15568   3.620   6.147   6.592  0.1829  0.6370  2.3919
  126CHL1   C2315569   3.699   6.346   6.625 -0.0393  0.1347 -0.1476
  126CHL1  H23A15570   3.790   6.314   6.569  0.6500  0.0126  0.9927
  126CHL1  H23B15571   3.675   6.453   6.611  0.7885  0.3000 -0.3393
  126CHL1   C2415572   3.742   6.328   6.774 -0.2570  0.0500 -0.7470
  126CHL1  H24A15573   3.653   6.355   6.835  1.4000  2.7522  0.6362
  126CHL1  H24B15574   3.778   6.226   6.801  2.6662  1.3439  0.6797
  126CHL1   C2515575   3.855   6.432   6.824 -0.3976  0.2471 -0.0650
  126CHL1   H2515576   3.807   6.531   6.841  0.1154  0.2447  1.5450
  126CHL1   C2615577   3.898   6.387   6.967 -0.1436  0.1476 -0.7190
  126CHL1  H26A15578   3.811   6.401   7.036  0.5746  0.7170  0.0930
  126CHL1  H26B15579   3.917   6.278   6.973 -1.1409  0.0346  1.6615
  126CHL1  H26C15580   3.981   6.442   7.017 -1.0059  1.2483 -0.4504
  126CHL1   C2715581   3.979   6.449   6.733  0.1758 -0.0924 -0.3405
  126CHL1  H27A15582   4.050   6.369   6.764 -0.0693 -0.2070 -0.0623
  126CHL1  H27B15583   3.958   6.427   6.626  1.8656 -0.3348 -0.6425
  126CHL1  H27C15584   4.025   6.548   6.755  0.6402 -0.4833  0.4917
  127CHL1    C315585   5.022   6.649   5.550 -0.3995  0.0255  0.1623
  127CHL1    H315586   4.948   6.665   5.631  0.7853  0.2937  1.2268
  127CHL1    O315587   4.965   6.673   5.425 -0.2990  0.5269  0.2412
  127CHL1   H3'15588   5.018   6.746   5.391 -0.0949  0.6676  0.8603
  127CHL1    C415589   5.140   6.737   5.561 -0.2008 -0.6586  0.1694
  127CHL1   H4A15590   5.211   6.714   5.478  2.6010 -0.3794  2.3467
  127CHL1   H4B15591   5.109   6.843   5.546 -2.4619 -1.4370 -1.0740
  127CHL1    C515592   5.211   6.720   5.696 -0.1184 -0.2623 -0.4177
  127CHL1    C615593   5.223   6.816   5.783 -0.1023  0.0110 -0.1812
  127CHL1    H615594   5.188   6.916   5.751  0.2664  0.7555  1.6117
  127CHL1    C715595   5.275   6.801   5.926  0.3752 -0.0150 -0.1383
  127CHL1   H7A15596   5.336   6.888   5.958 -1.1153  0.5293  1.3475
  127CHL1   H7B15597   5.193   6.786   6.000  0.4151  1.3366  0.1996
  127CHL1    C815598   5.357   6.672   5.953 -0.4917  0.1258 -0.3993
  127CHL1    H815599   5.459   6.690   5.912  0.4247 -3.2545  0.1316
  127CHL1   C1415600   5.362   6.643   6.109 -0.0347 -0.2562  0.0058
  127CHL1   H1415601   5.268   6.591   6.137  0.3699 -0.4429  1.0671
  127CHL1   C1515602   5.392   6.754   6.201 -0.5809  0.2266  0.1566
  127CHL1  H15A15603   5.473   6.812   6.152  1.7978 -3.9096 -1.4063
  127CHL1  H15B15604   5.301   6.814   6.219 -0.6523 -0.3481  1.8832
  127CHL1   C1615605   5.437   6.693   6.336  0.2678  0.8637  0.3172
  127CHL1  H16A15606   5.530   6.748   6.361  0.7504 -0.0429  0.5449
  127CHL1  H16B15607   5.362   6.712   6.416 -0.6720  0.6788 -0.4950
  127CHL1   C1715608   5.446   6.537   6.306  0.0323  0.4243  0.2046
  127CHL1   H1715609   5.346   6.496   6.334  0.0806  0.5141  0.5148
  127CHL1   C1315610   5.453   6.525   6.147  0.5050 -0.8778  0.5618
  127CHL1   C1815611   5.598   6.556   6.101  0.2578 -0.5525  0.1759
  127CHL1  H18A15612   5.619   6.662   6.129 -0.1321 -0.1848 -0.8795
  127CHL1  H18B15613   5.672   6.501   6.163  1.1531  0.7030  0.2585
  127CHL1  H18C15614   5.623   6.536   5.995 -0.2227 -2.5470  0.4027
  127CHL1   C1215615   5.403   6.397   6.079 -0.6116 -0.1609  0.3209
  127CHL1  H12A15616   5.468   6.307   6.090 -0.6385 -0.3939 -1.1691
  127CHL1  H12B15617   5.309   6.376   6.135  0.4504 -0.8703  1.9045
  127CHL1   C1115618   5.376   6.424   5.923  0.2461  0.1503  0.0689
  127CHL1  H11A15619   5.476   6.436   5.875 -0.0204 -0.3594 -0.6208
  127CHL1  H11B15620   5.318   6.337   5.887  1.7527 -0.3142 -1.3655
  127CHL1    C915621   5.289   6.549   5.885  0.0185 -0.4228  0.3106
  127CHL1    H915622   5.188   6.543   5.930 -0.2245 -1.3218 -0.3284
  127CHL1   C1015623   5.250   6.571   5.730  0.1731 -0.6643  0.0993
  127CHL1   C1915624   5.371   6.529   5.645  0.2318 -0.3973  0.1083
  127CHL1  H19A15625   5.350   6.568   5.542 -1.0075  0.4331  0.6451
  127CHL1  H19B15626   5.463   6.566   5.694  0.4894 -1.8222  0.7474
  127CHL1  H19C15627   5.376   6.418   5.642 -0.0021 -0.3949 -0.8323
  127CHL1    C115628   5.127   6.479   5.699  0.3538  0.5180 -0.0244
  127CHL1   H1A15629   5.159   6.374   5.714  0.3140  0.6653  1.1815
  127CHL1   H1B15630   5.046   6.507   5.769  0.1332  0.3894 -0.2254
  127CHL1    C215631   5.069   6.509   5.555  0.3797 -0.0115 -0.9262
  127CHL1   H2A15632   4.984   6.441   5.534  0.1023  0.0776 -0.1315
  127CHL1   H2B15633   5.150   6.485   5.483  1.1399 -0.9418  0.1960
  127CHL1   C2015634   5.552   6.473   6.395 -0.0337 -0.9167 -0.0637
  127CHL1   H2015635   5.652   6.506   6.360 -0.4609  2.8725  1.8018
  127CHL1   C2115636   5.545   6.319   6.380 -0.3581  1.1084  0.2011
  127CHL1  H21A15637   5.440   6.296   6.406 -0.9983  1.7354 -1.6650
  127CHL1  H21B15638   5.619   6.276   6.451  0.9138 -0.4416 -1.9540
  127CHL1  H21C15639   5.569   6.273   6.282 -1.7441 -2.0522  1.2210
  127CHL1   C2215640   5.556   6.512   6.546 -0.1741 -0.3071  0.0585
  127CHL1  H22A15641   5.646   6.477   6.602 -0.8948  0.0822  1.5209
  127CHL1  H22B15642   5.554   6.623   6.546 -1.5832 -0.3030 -1.3546
  127CHL1   C2315643   5.434   6.462   6.623  0.0918 -0.3480 -0.0114
  127CHL1  H23A15644   5.340   6.486   6.571 -0.4430 -0.2793  0.9541
  127CHL1  H23B15645   5.430   6.351   6.618 -0.8441 -0.2488 -2.7970
  127CHL1   C2415646   5.432   6.510   6.768  0.8057  0.2197 -0.5922
  127CHL1  H24A15647   5.523   6.485   6.826 -0.4852  1.9884  2.4335
  127CHL1  H24B15648   5.433   6.621   6.769 -3.5377  0.4548 -1.4264
  127CHL1   C2515649   5.307   6.470   6.856  1.3591 -0.2433  0.1522
  127CHL1   H2515650   5.216   6.492   6.796  0.2268  0.5627  2.0299
  127CHL1   C2615651   5.301   6.327   6.904  0.2750  0.2999  0.0013
  127CHL1  H26A15652   5.388   6.294   6.966  0.0203 -0.9062 -0.2568
  127CHL1  H26B15653   5.202   6.319   6.953 -0.5411  4.0152 -0.7238
  127CHL1  H26C15654   5.311   6.260   6.816 -1.4096 -0.6332  0.4844
  127CHL1   C2715655   5.302   6.564   6.980  0.1762  0.3336  0.3737
  127CHL1  H27A15656   5.393   6.542   7.040  3.2988  6.0187 -1.4766
  127CHL1  H27B15657   5.316   6.670   6.949 -0.6509  0.8026  1.5316
  127CHL1  H27C15658   5.206   6.543   7.031 -0.5797  1.3664 -0.5760
  128CHL1    C315659   3.196   3.089   5.201 -0.0857  0.1962 -0.9949
  128CHL1    H315660   3.269   3.005   5.204  0.0785  0.3495  0.6118
  128CHL1    O315661   3.237   3.186   5.105 -0.0191  0.7318  0.2310
  128CHL1   H3'15662   3.192   3.266   5.132  1.0554  1.4070  0.0579
  128CHL1    C415663   3.056   3.040   5.149 -1.1799 -0.1577 -1.1183
  128CHL1   H4A15664   2.982   3.119   5.122 -1.8971  0.6790  2.6880
  128CHL1   H4B15665   3.084   2.989   5.054  1.1763 -0.4261 -0.3459
  128CHL1    C515666   2.992   2.948   5.249  0.1186 -0.0191 -0.1230
  128CHL1    C615667   2.968   2.818   5.214  0.4955  0.2151  0.6205
  128CHL1    H615668   3.002   2.794   5.112  1.1135  1.4689  0.5094
  128CHL1    C715669   2.913   2.717   5.312 -0.4890  0.2035  0.1619
  128CHL1   H7A15670   2.830   2.657   5.268 -0.2085  0.4826 -0.7528
  128CHL1   H7B15671   2.993   2.651   5.350  1.1410  2.2376  0.4424
  128CHL1    C815672   2.845   2.789   5.434  0.4805  0.1968 -0.7806
  128CHL1    H815673   2.748   2.833   5.403  0.1893  1.8030  2.0299
  128CHL1   C1415674   2.813   2.676   5.537  0.6542  0.5134  0.0422
  128CHL1   H1415675   2.912   2.637   5.566  0.7457  0.6258 -0.1147
  128CHL1   C1515676   2.730   2.542   5.512 -0.1485  0.1754  0.4952
  128CHL1  H15A15677   2.643   2.562   5.447  0.7428  2.4487 -0.0761
  128CHL1  H15B15678   2.788   2.476   5.443  1.8647  2.4670 -0.1373
  128CHL1   C1615679   2.692   2.490   5.651  0.4998  0.3059 -0.6173
  128CHL1  H16A15680   2.581   2.482   5.655  0.5880 -0.6424 -0.0516
  128CHL1  H16B15681   2.736   2.394   5.683 -0.5372 -0.1690 -0.5998
  128CHL1   C1715682   2.741   2.598   5.753  0.2063  0.1703 -0.2590
  128CHL1   H1715683   2.845   2.586   5.790  0.6401  0.8302 -1.2474
  128CHL1   C1315684   2.756   2.732   5.674 -0.1480 -0.2899  0.7192
  128CHL1   C1815685   2.615   2.792   5.648 -0.1491 -0.3252 -0.3580
  128CHL1  H18A15686   2.572   2.854   5.730 -0.3295  0.5454 -1.0973
  128CHL1  H18B15687   2.622   2.859   5.559 -1.0368 -0.6036 -0.6367
  128CHL1  H18C15688   2.536   2.717   5.631  0.5581 -1.1763 -0.0030
  128CHL1   C1215689   2.864   2.824   5.736 -0.0390 -0.2017  0.0489
  128CHL1  H12A15690   2.819   2.851   5.834 -1.5164 -1.2019 -0.3188
  128CHL1  H12B15691   2.958   2.772   5.763  0.0630 -0.4892 -0.8214
  128CHL1   C1115692   2.896   2.945   5.641 -0.5656  0.2909  0.9907
  128CHL1  H11A15693   2.807   3.012   5.644 -0.3834  0.5035  2.4679
  128CHL1  H11B15694   2.980   3.002   5.685  0.8916 -0.1056 -1.1498
  128CHL1    C915695   2.932   2.895   5.497 -0.0317  0.0846 -0.2982
  128CHL1    H915696   3.022   2.832   5.514 -0.5807 -0.4793  0.6068
  128CHL1   C1015697   2.981   2.999   5.394  0.2292  0.2759 -0.3366
  128CHL1   C1915698   2.881   3.119   5.386  0.3120 -0.0596  0.2575
  128CHL1  H19A15699   2.922   3.204   5.327  0.5143 -1.3619 -1.5667
  128CHL1  H19B15700   2.777   3.094   5.357  0.6093  1.6508 -2.6844
  128CHL1  H19C15701   2.877   3.152   5.492 -0.5491 -1.1672  0.5905
  128CHL1    C115702   3.126   3.045   5.430 -0.1664 -0.1190 -0.7724
  128CHL1   H1A15703   3.120   3.091   5.531  1.0585 -1.0174 -0.2596
  128CHL1   H1B15704   3.208   2.970   5.438  0.1848  0.2793 -0.6026
  128CHL1    C215705   3.177   3.154   5.336 -0.5523 -0.5196 -0.3792
  128CHL1   H2A15706   3.278   3.179   5.374 -1.3004  0.8779  0.8187
  128CHL1   H2B15707   3.116   3.247   5.348  2.1625  1.3894 -0.4057
  128CHL1   C2015708   2.669   2.610   5.889  0.0634 -0.7978 -0.1257
  128CHL1   H2015709   2.677   2.714   5.928 -0.3037 -1.4887  1.9058
  128CHL1   C2115710   2.750   2.527   5.990  0.0201  0.4366 -0.7103
  128CHL1  H21A15711   2.745   2.426   5.944 -2.0899 -0.3402  1.0503
  128CHL1  H21B15712   2.702   2.527   6.090 -0.3332 -0.1634 -0.8776
  128CHL1  H21C15713   2.859   2.542   6.003 -0.1549  1.8083 -0.6591
  128CHL1   C2215714   2.516   2.571   5.890  1.1890  0.3392  0.2346
  128CHL1  H22A15715   2.454   2.591   5.800 -2.8360 -0.8781  2.4395
  128CHL1  H22B15716   2.516   2.460   5.898  0.1230  0.2882 -0.2222
  128CHL1   C2315717   2.433   2.623   6.010 -0.0377 -0.2726  0.4364
  128CHL1  H23A15718   2.475   2.588   6.106 -1.7486 -0.7952  1.0399
  128CHL1  H23B15719   2.426   2.734   6.008  0.5740 -0.2319  0.4356
  128CHL1   C2415720   2.290   2.567   6.019  0.0554 -1.0989  0.6561
  128CHL1  H24A15721   2.265   2.539   5.914  1.3317 -1.4226  0.4193
  128CHL1  H24B15722   2.291   2.482   6.090  0.4984 -0.3920  1.5096
  128CHL1   C2515723   2.181   2.664   6.049  0.4150 -0.0906  0.0570
  128CHL1   H2515724   2.194   2.713   6.148 -1.2045 -0.3009  0.4008
  128CHL1   C2615725   2.166   2.771   5.934 -0.6490  0.3186  0.1634
  128CHL1  H26A15726   2.263   2.820   5.909 -0.0418 -0.5892  0.6504
  128CHL1  H26B15727   2.146   2.708   5.844 -1.8215 -1.0848  1.3552
  128CHL1  H26C15728   2.072   2.828   5.944 -1.7517 -1.0903 -1.5388
  128CHL1   C2715729   2.048   2.593   6.068  0.2705  0.1007  0.0370
  128CHL1  H27A15730   2.027   2.497   6.016 -1.7071 -0.1484  1.1673
  128CHL1  H27B15731   2.057   2.566   6.176 -1.2448  2.7099  0.9087
  128CHL1  H27C15732   1.969   2.663   6.035 -1.4229 -1.4757  0.5188
  129CHL1    C315733   5.908   6.685   5.504 -0.4589 -0.1923 -0.0450
  129CHL1    H315734   5.816   6.700   5.565  0.2436 -0.5167  1.1309
  129CHL1    O315735   5.873   6.671   5.366 -0.1090 -0.0981  0.2084
  129CHL1   H3'15736   5.956   6.679   5.321 -0.3408 -0.1953 -0.2402
  129CHL1    C415737   6.010   6.795   5.526  0.2873  0.0893 -0.3958
  129CHL1   H4A15738   6.093   6.757   5.464  0.7171  0.8647 -0.3128
  129CHL1   H4B15739   5.963   6.879   5.470  0.1605 -0.4110 -1.0475
  129CHL1    C515740   6.065   6.825   5.661  0.2762  0.1786  1.1440
  129CHL1    C615741   6.064   6.944   5.716 -0.0998  0.0891  0.5640
  129CHL1    H615742   6.019   7.031   5.666 -0.3851 -0.0144  0.6360
  129CHL1    C715743   6.121   6.973   5.851 -0.7811 -0.3188 -0.4082
  129CHL1   H7A15744   6.200   7.051   5.844 -0.2266 -0.6478  1.4503
  129CHL1   H7B15745   6.040   6.998   5.923  1.6402  0.6347  2.1828
  129CHL1    C815746   6.197   6.843   5.910 -0.7647  0.0609  0.3628
  129CHL1    H815747   6.298   6.845   5.864 -1.2149  0.6130 -0.6398
  129CHL1   C1415748   6.211   6.861   6.066 -0.2564  0.0496 -0.0728
  129CHL1   H1415749   6.107   6.870   6.103 -0.3624 -0.0865 -0.3412
  129CHL1   C1515750   6.278   6.989   6.114 -0.0654 -0.5644  0.8841
  129CHL1  H15A15751   6.375   7.010   6.064  0.0219 -1.0262  0.8513
  129CHL1  H15B15752   6.208   7.075   6.117 -0.9831 -1.1070 -2.0562
  129CHL1   C1615753   6.311   6.952   6.264  0.5689 -0.4434  0.0350
  129CHL1  H16A15754   6.421   6.964   6.268  0.3688  2.1410 -0.5860
  129CHL1  H16B15755   6.256   7.024   6.328  1.2164  0.9617 -0.9308
  129CHL1   C1715756   6.270   6.798   6.284 -0.2681  0.7536  0.3996
  129CHL1   H1715757   6.165   6.791   6.320 -0.1843 -1.5355  0.3270
  129CHL1   C1315758   6.274   6.744   6.138  0.9732 -0.9805 -0.5168
  129CHL1   C1815759   6.412   6.719   6.091  0.0756  0.7520 -0.3312
  129CHL1  H18A15760   6.451   6.626   6.138 -0.0663 -0.9498 -3.3154
  129CHL1  H18B15761   6.429   6.704   5.983  0.6390  0.4031 -0.2007
  129CHL1  H18C15762   6.481   6.805   6.104  0.3468  0.5317 -0.2795
  129CHL1   C1215763   6.178   6.623   6.121 -0.0843 -0.4685 -0.1228
  129CHL1  H12A15764   6.223   6.533   6.167  1.0924 -0.7588 -1.7728
  129CHL1  H12B15765   6.075   6.648   6.155 -0.8655 -2.4195 -0.9240
  129CHL1   C1115766   6.162   6.592   5.967 -0.1898 -0.4666  0.8081
  129CHL1  H11A15767   6.261   6.552   5.935  1.0576 -0.6672  4.4588
  129CHL1  H11B15768   6.086   6.514   5.947 -0.5120 -0.0251  0.2807
  129CHL1    C915769   6.115   6.716   5.876  0.6860 -0.3672  0.5848
  129CHL1    H915770   6.011   6.733   5.909 -0.4074 -0.1731 -2.5786
  129CHL1   C1015771   6.116   6.693   5.724  1.0093 -0.2397 -0.7527
  129CHL1   C1915772   6.253   6.657   5.660 -0.0969 -0.3505  0.0536
  129CHL1  H19A15773   6.299   6.566   5.704 -0.6218 -0.4877  0.3329
  129CHL1  H19B15774   6.245   6.652   5.550  0.1213  0.8082 -0.0264
  129CHL1  H19C15775   6.319   6.742   5.689 -1.6554  0.7956  0.4102
  129CHL1    C115776   6.009   6.578   5.697 -0.0779  0.5122 -0.5091
  129CHL1   H1A15777   6.071   6.492   5.733 -0.4281  1.4779  2.7838
  129CHL1   H1B15778   5.919   6.572   5.761  0.6665 -0.2278  0.5221
  129CHL1    C215779   5.959   6.555   5.558  0.5529  0.0882 -0.2449
  129CHL1   H2A15780   5.884   6.473   5.556 -0.0318  0.6255 -1.5179
  129CHL1   H2B15781   6.047   6.521   5.499 -0.1796 -1.9397 -0.2333
  129CHL1   C2015782   6.348   6.724   6.403 -0.0933  1.0741  0.2307
  129CHL1   H2015783   6.448   6.699   6.361 -0.9677 -3.4388  0.3266
  129CHL1   C2115784   6.284   6.585   6.436  0.4806  0.0999  0.2124
  129CHL1  H21A15785   6.309   6.505   6.363  1.0588  0.7294 -0.2886
  129CHL1  H21B15786   6.174   6.595   6.452  0.2411 -1.7982  0.0110
  129CHL1  H21C15787   6.315   6.554   6.538  0.1644 -0.2406  0.2101
  129CHL1   C2215788   6.351   6.803   6.526  0.4852 -0.5943  0.0139
  129CHL1  H22A15789   6.370   6.910   6.503 -1.0158 -0.6296 -1.6278
  129CHL1  H22B15790   6.245   6.798   6.560  0.0108  0.4611 -1.2153
  129CHL1   C2315791   6.440   6.754   6.635  0.4500 -0.0863  0.4965
  129CHL1  H23A15792   6.400   6.657   6.670 -2.0349 -0.0766 -1.9533
  129CHL1  H23B15793   6.536   6.725   6.589  0.1931 -4.6118  2.3075
  129CHL1   C2415794   6.474   6.855   6.746 -0.4893  0.5294 -0.4357
  129CHL1  H24A15795   6.513   6.950   6.704  1.8982 -0.1662  0.0308
  129CHL1  H24B15796   6.387   6.861   6.815  0.6641  0.5127  1.0956
  129CHL1   C2515797   6.595   6.822   6.843 -0.2498  0.3116 -0.3665
  129CHL1   H2515798   6.687   6.814   6.781  1.3352  2.3921  1.5222
  129CHL1   C2615799   6.625   6.945   6.932  0.1727  0.4275 -0.3751
  129CHL1  H26A15800   6.644   7.030   6.862  3.2262 -0.3001 -0.5533
  129CHL1  H26B15801   6.538   6.958   7.000 -2.0430 -1.0690 -2.7010
  129CHL1  H26C15802   6.718   6.927   6.990  0.1243  0.2703 -0.3444
  129CHL1   C2715803   6.584   6.690   6.919 -0.5947 -0.9372  0.5150
  129CHL1  H27A15804   6.555   6.613   6.845 -4.3905  1.3062 -0.6215
  129CHL1  H27B15805   6.681   6.671   6.970 -0.4903  1.0672  1.1703
  129CHL1  H27C15806   6.503   6.684   6.995 -0.7851  0.2402  0.4348
  130CHL1    C315807   2.942   0.206   5.104 -0.2531  0.1732 -0.0404
  130CHL1    H315808   2.929   0.315   5.122 -1.6790  0.2646 -1.3934
  130CHL1    O315809   2.890   0.201   4.973 -0.2294  0.8703  0.1667
  130CHL1   H3'15810   2.915   0.111   4.949 -1.2197  0.0146  2.1221
  130CHL1    C415811   3.098   0.183   5.101  0.1217  0.4725 -0.1595
  130CHL1   H4A15812   3.126   0.096   5.038  0.6775 -1.2745  2.3500
  130CHL1   H4B15813   3.149   0.262   5.042  2.4815 -0.3897  0.5891
  130CHL1    C515814   3.175   0.177   5.232  0.7509  0.0078 -0.1502
  130CHL1    C615815   3.279   0.261   5.248 -0.4011 -0.1790 -1.0464
  130CHL1    H615816   3.322   0.315   5.162  2.5146  0.3887  0.6387
  130CHL1    C715817   3.355   0.257   5.378 -0.2897  0.2585  0.2430
  130CHL1   H7A15818   3.466   0.254   5.375 -0.2765 -3.7891 -1.3818
  130CHL1   H7B15819   3.332   0.351   5.434  2.1753 -0.8438  3.3633
  130CHL1    C815820   3.316   0.143   5.483 -0.0602 -0.0869  0.0159
  130CHL1    H815821   3.364   0.048   5.450 -1.4914 -0.2893 -1.6084
  130CHL1   C1415822   3.359   0.178   5.623  0.8654  0.4868  0.2716
  130CHL1   H1415823   3.297   0.266   5.648 -0.8994 -0.9423  1.1525
  130CHL1   C1515824   3.509   0.216   5.647  0.3758 -0.3381  0.4077
  130CHL1  H15A15825   3.584   0.142   5.612  0.4012  0.6406 -1.7626
  130CHL1  H15B15826   3.543   0.312   5.603 -0.2297 -0.3465 -0.0942
  130CHL1   C1615827   3.516   0.225   5.794  0.4555  0.0219 -0.0994
  130CHL1  H16A15828   3.611   0.184   5.833  1.0361  0.0854 -1.4022
  130CHL1  H16B15829   3.512   0.333   5.823  0.4247  0.7085 -2.4348
  130CHL1   C1715830   3.386   0.150   5.855 -0.0153 -0.7978  0.6742
  130CHL1   H1715831   3.313   0.231   5.875 -0.3975 -0.8383 -0.5283
  130CHL1   C1315832   3.320   0.078   5.738  0.4169  0.7443 -0.9214
  130CHL1   C1815833   3.385  -0.056   5.716  0.0661 -0.5299  0.2315
  130CHL1  H18A15834   3.381  -0.115   5.810  1.3097 -0.2236  0.4990
  130CHL1  H18B15835   3.347  -0.105   5.624 -1.0956 -1.0899  0.9882
  130CHL1  H18C15836   3.493  -0.033   5.701 -0.4913  1.6046 -0.9336
  130CHL1   C1215837   3.164   0.068   5.737 -0.2963 -0.1980 -0.3639
  130CHL1  H12A15838   3.123  -0.000   5.814 -1.7568 -0.1318 -1.0507
  130CHL1  H12B15839   3.118   0.166   5.761 -2.5469 -1.5648  1.3098
  130CHL1   C1115840   3.111   0.035   5.597  0.4336 -0.5177 -0.7612
  130CHL1  H11A15841   3.128  -0.073   5.577 -0.1005 -1.0774  1.5308
  130CHL1  H11B15842   3.000   0.039   5.604  0.4653 -0.8163  0.0670
  130CHL1    C915843   3.164   0.126   5.481 -0.5005 -0.2718  0.9796
  130CHL1    H915844   3.123   0.227   5.499 -0.1541  0.2282 -0.7633
  130CHL1   C1015845   3.110   0.092   5.339 -0.4630 -0.5184  0.7260
  130CHL1   C1915846   3.135  -0.063   5.301 -0.2089 -0.7776 -0.0548
  130CHL1  H19A15847   3.243  -0.087   5.309  0.0574 -0.5468 -2.3623
  130CHL1  H19B15848   3.063  -0.114   5.370 -2.5669  0.0456 -1.7676
  130CHL1  H19C15849   3.113  -0.085   5.195 -0.6788  0.8413 -0.3137
  130CHL1    C115850   2.958   0.115   5.345  0.0449  0.0910  0.0828
  130CHL1   H1A15851   2.903   0.051   5.418 -1.8692  0.6905 -0.7554
  130CHL1   H1B15852   2.932   0.222   5.357 -1.6386  0.1702 -3.1903
  130CHL1    C215853   2.876   0.109   5.205 -0.1138 -0.7362  0.2101
  130CHL1   H2A15854   2.772   0.146   5.220 -0.0348  0.1037 -1.0669
  130CHL1   H2B15855   2.865   0.004   5.171 -0.6580 -0.4429 -0.5640
  130CHL1   C2015856   3.412   0.082   5.987  0.6567  0.6164  0.0529
  130CHL1   H2015857   3.489   0.003   5.974  0.3364 -0.1800  2.4896
  130CHL1   C2115858   3.287   0.008   6.041 -0.1476  0.1185 -0.2296
  130CHL1  H21A15859   3.210   0.084   6.065 -1.5499 -1.1976 -0.4202
  130CHL1  H21B15860   3.313  -0.050   6.131  1.1320 -0.0212 -0.6687
  130CHL1  H21C15861   3.245  -0.066   5.969  1.9549 -1.8531  0.4530
  130CHL1   C2215862   3.473   0.187   6.095  0.5005  0.1141  0.0707
  130CHL1  H22A15863   3.559   0.243   6.052  0.3930  1.0784  1.0435
  130CHL1  H22B15864   3.398   0.269   6.098  0.2842 -0.0826  0.0809
  130CHL1   C2315865   3.511   0.137   6.229 -0.3713  0.3362 -0.1701
  130CHL1  H23A15866   3.427   0.086   6.280  0.2588  0.2103  0.7718
  130CHL1  H23B15867   3.602   0.074   6.224  1.2354  2.4858  0.3322
  130CHL1   C2415868   3.565   0.255   6.331 -0.7318  0.0499  0.6544
  130CHL1  H24A15869   3.635   0.323   6.278 -0.8570 -0.6706 -0.4717
  130CHL1  H24B15870   3.474   0.317   6.351  0.3657  1.5019  1.3278
  130CHL1   C2515871   3.630   0.219   6.461  0.3876 -0.3431  0.1392
  130CHL1   H2515872   3.720   0.158   6.437  2.0184  1.6216  0.9926
  130CHL1   C2615873   3.694   0.345   6.509 -0.2255  0.4585  0.3976
  130CHL1  H26A15874   3.761   0.329   6.596 -0.0350 -2.3102 -0.1616
  130CHL1  H26B15875   3.757   0.388   6.429  1.0942 -1.2929  0.4299
  130CHL1  H26C15876   3.615   0.421   6.528 -1.8805 -0.5150 -2.0388
  130CHL1   C2715877   3.532   0.143   6.547  0.3734  0.2523 -0.3411
  130CHL1  H27A15878   3.449   0.212   6.573  0.1576  0.5164 -1.6317
  130CHL1  H27B15879   3.488   0.055   6.494 -1.1768  0.6266  0.2734
  130CHL1  H27C15880   3.590   0.105   6.633 -0.4332  0.3964  0.2779
  131CHL1    C315881   0.929   6.506   5.315 -0.6487  0.1613  0.5727
  131CHL1    H315882   0.958   6.420   5.379 -1.3574 -0.7805 -0.3240
  131CHL1    O315883   0.857   6.445   5.206 -0.3709 -0.4778 -0.8544
  131CHL1   H3'15884   0.781   6.501   5.191 -0.6653 -0.8824 -0.8787
  131CHL1    C415885   0.847   6.620   5.381 -0.0318  0.1638  0.0795
  131CHL1   H4A15886   0.816   6.702   5.313  0.8082  0.8013  0.4518
  131CHL1   H4B15887   0.752   6.571   5.414  0.2012  0.1464  0.7485
  131CHL1    C515888   0.925   6.685   5.496  0.1483  0.4343  0.6967
  131CHL1    C615889   0.870   6.683   5.615 -0.0924  0.3457 -0.2076
  131CHL1    H615890   0.771   6.639   5.635 -1.2802  3.7875  2.2921
  131CHL1    C715891   0.938   6.730   5.736  0.0442 -0.3313 -0.4465
  131CHL1   H7A15892   0.865   6.781   5.803  0.0988  1.6424 -1.8061
  131CHL1   H7B15893   0.976   6.640   5.790  1.0723 -0.7994 -1.8940
  131CHL1    C815894   1.068   6.818   5.708  0.0910  0.0575 -0.4822
  131CHL1    H815895   1.043   6.917   5.664 -0.2249  0.5955  0.8572
  131CHL1   C1415896   1.148   6.841   5.829 -0.0682 -0.2349 -0.9129
  131CHL1   H1415897   1.184   6.741   5.862 -0.4854 -0.4049 -0.9741
  131CHL1   C1515898   1.076   6.898   5.955  0.1989  0.7817  0.1394
  131CHL1  H15A15899   1.019   6.990   5.929  1.2181  1.6575  0.8821
  131CHL1  H15B15900   1.014   6.812   5.987  1.0812 -0.3770 -1.1382
  131CHL1   C1615901   1.193   6.946   6.045 -0.1632  0.3304 -0.4249
  131CHL1  H16A15902   1.160   7.050   6.064 -0.9373 -0.1371  0.9491
  131CHL1  H16B15903   1.201   6.890   6.141 -2.6744 -0.8113 -0.8154
  131CHL1   C1715904   1.323   6.945   5.959 -0.2493  0.3863  0.2732
  131CHL1   H1715905   1.366   6.845   5.978 -1.2453 -0.2214 -0.5855
  131CHL1   C1315906   1.266   6.941   5.812 -0.0806  0.5077 -0.2990
  131CHL1   C1815907   1.218   7.089   5.779 -0.3682  0.4979  0.1494
  131CHL1  H18A15908   1.148   7.135   5.852 -1.4247 -0.4051 -0.2685
  131CHL1  H18B15909   1.307   7.155   5.781  1.1407 -1.4126 -0.8759
  131CHL1  H18C15910   1.166   7.101   5.681 -0.5671 -0.2481  0.1611
  131CHL1   C1215911   1.366   6.881   5.707  0.2979  0.3992 -0.0331
  131CHL1  H12A15912   1.439   6.957   5.674  0.1398 -0.3754 -2.3105
  131CHL1  H12B15913   1.438   6.808   5.748 -0.7030 -0.4330  0.2867
  131CHL1   C1115914   1.290   6.847   5.574  0.1960 -0.3710 -0.4188
  131CHL1  H11A15915   1.266   6.948   5.534 -1.1624  0.0985  1.4289
  131CHL1  H11B15916   1.369   6.803   5.509  2.8781  2.5532  0.5707
  131CHL1    C915917   1.159   6.758   5.601 -0.0740 -0.0972  0.9022
  131CHL1    H915918   1.197   6.661   5.639  0.0283 -0.2856  0.3280
  131CHL1   C1015919   1.075   6.725   5.475 -0.2980  0.2980  0.5207
  131CHL1   C1915920   1.060   6.854   5.386 -0.8725  0.2681 -0.7128
  131CHL1  H19A15921   1.160   6.872   5.339  0.3339 -1.5771  0.9652
  131CHL1  H19B15922   0.977   6.861   5.313  0.4424 -0.6289 -2.3649
  131CHL1  H19C15923   1.061   6.941   5.455 -0.1472  0.7370 -1.2893
  131CHL1    C115924   1.147   6.614   5.388  0.3841  0.7562  0.0507
  131CHL1   H1A15925   1.247   6.651   5.359  0.6380  0.9518  1.1673
  131CHL1   H1B15926   1.173   6.527   5.451  1.8786  1.1566  0.0204
  131CHL1    C215927   1.065   6.565   5.263 -0.5718  0.2989 -0.6162
  131CHL1   H2A15928   1.107   6.480   5.205 -1.3009  0.2168 -1.0317
  131CHL1   H2B15929   1.041   6.644   5.190 -1.7156 -0.0365 -0.6259
  131CHL1   C2015930   1.419   7.054   6.000 -0.1373 -0.3178  0.2385
  131CHL1   H2015931   1.370   7.153   5.993  0.5735 -0.0592 -1.7212
  131CHL1   C2115932   1.554   7.046   5.921 -0.0114 -0.1647  0.5741
  131CHL1  H21A15933   1.528   7.081   5.819 -1.0182  1.3359  1.3104
  131CHL1  H21B15934   1.595   6.945   5.902  3.1499  1.1383 -0.0960
  131CHL1  H21C15935   1.642   7.103   5.958  2.3511 -2.2544 -1.4416
  131CHL1   C2215936   1.469   7.033   6.146 -0.0809 -0.3614 -0.2777
  131CHL1  H22A15937   1.386   7.015   6.218  0.3887 -0.5849  0.2095
  131CHL1  H22B15938   1.530   6.941   6.143  0.8525  0.1964  0.7473
  131CHL1   C2315939   1.538   7.144   6.222  0.2052 -0.6111 -0.3398
  131CHL1  H23A15940   1.621   7.187   6.162  1.2093  0.1282  1.4997
  131CHL1  H23B15941   1.459   7.221   6.238  0.4528 -0.8507  2.4703
  131CHL1   C2415942   1.581   7.117   6.364  0.1523  0.1791  0.4789
  131CHL1  H24A15943   1.491   7.111   6.429  0.0552  4.0998  0.9087
  131CHL1  H24B15944   1.631   7.018   6.348  0.3093  0.4814 -1.0665
  131CHL1   C2515945   1.681   7.214   6.432  0.3904  0.2708  0.2731
  131CHL1   H2515946   1.781   7.192   6.390 -0.9311 -0.6308 -2.6530
  131CHL1   C2615947   1.650   7.359   6.415  0.4644  0.0033  0.3318
  131CHL1  H26A15948   1.552   7.372   6.466 -0.7467 -0.0777 -1.8397
  131CHL1  H26B15949   1.726   7.428   6.458 -0.5996  1.3199  0.1597
  131CHL1  H26C15950   1.644   7.387   6.308  2.0806  2.0087  0.7035
  131CHL1   C2715951   1.689   7.179   6.581  0.7477  0.1640  0.4756
  131CHL1  H27A15952   1.775   7.236   6.622  0.9348  1.0621 -1.0824
  131CHL1  H27B15953   1.590   7.214   6.617 -0.6090  1.6423 -3.9958
  131CHL1  H27C15954   1.704   7.070   6.592 -0.0876 -0.0224 -0.1623
  132CHL1    C315955   5.380   7.450   5.505 -0.0633  0.1072 -0.0186
  132CHL1    H315956   5.437   7.539   5.541  1.9086 -1.0159 -0.2216
  132CHL1    O315957   5.409   7.437   5.367 -0.3625 -0.0488  0.1361
  132CHL1   H3'15958   5.409   7.342   5.351  2.2122  0.0219 -0.7068
  132CHL1    C415959   5.444   7.335   5.578  0.3744  0.2001  0.0691
  132CHL1   H4A15960   5.404   7.239   5.540  1.5076 -0.5746  0.7765
  132CHL1   H4B15961   5.552   7.339   5.553  0.0529 -0.2129 -1.4576
  132CHL1    C515962   5.415   7.336   5.725 -0.9668  0.1794  0.2617
  132CHL1    C615963   5.511   7.351   5.815  0.5860 -0.4654 -0.3157
  132CHL1    H615964   5.618   7.350   5.786  0.8142  0.2769  0.4460
  132CHL1    C715965   5.496   7.339   5.962  0.2360  0.0754  0.3099
  132CHL1   H7A15966   5.585   7.288   6.004 -0.7583 -1.8191  0.2463
  132CHL1   H7B15967   5.492   7.438   6.013  1.9252  0.9952 -1.1888
  132CHL1    C815968   5.360   7.273   6.001 -0.8668  0.8855 -0.1168
  132CHL1    H815969   5.368   7.163   5.983  0.4032  0.8807  0.3581
  132CHL1   C1415970   5.340   7.298   6.149  0.9323  0.0963  0.3701
  132CHL1   H1415971   5.328   7.407   6.167 -0.2015 -0.1279  1.0758
  132CHL1   C1515972   5.451   7.263   6.247  0.2565 -0.0079  0.2398
  132CHL1  H15A15973   5.476   7.164   6.202 -0.2617 -0.1241  0.2014
  132CHL1  H15B15974   5.547   7.318   6.244 -0.8506  2.0015 -0.5010
  132CHL1   C1615975   5.382   7.250   6.381  0.1648  0.4504 -0.3485
  132CHL1  H16A15976   5.400   7.153   6.431 -0.3086  0.7454  0.4019
  132CHL1  H16B15977   5.416   7.336   6.443  0.2434  0.4358 -0.3711
  132CHL1   C1715978   5.223   7.271   6.359 -0.2281 -0.5218 -0.2178
  132CHL1   H1715979   5.219   7.382   6.361 -1.2986 -0.3662 -3.6956
  132CHL1   C1315980   5.212   7.243   6.205  0.9923 -0.1384 -0.4149
  132CHL1   C1815981   5.216   7.095   6.185  0.3837  0.0818 -0.3146
  132CHL1  H18A15982   5.115   7.063   6.217  0.6356 -0.5969 -0.1669
  132CHL1  H18B15983   5.228   7.062   6.080  1.5501 -1.7778  0.3507
  132CHL1  H18C15984   5.293   7.039   6.244  0.1254 -0.7659 -0.7757
  132CHL1   C1215985   5.097   7.317   6.137 -0.0272  0.0793 -0.3427
  132CHL1  H12A15986   4.993   7.281   6.153 -1.0060  2.4952 -0.7095
  132CHL1  H12B15987   5.107   7.427   6.154  1.6666 -0.0181 -0.5234
  132CHL1   C1115988   5.105   7.304   5.982  0.7186  0.0200  0.5362
  132CHL1  H11A15989   5.076   7.198   5.971 -0.2720  0.3022  0.3182
  132CHL1  H11B15990   5.031   7.372   5.934  1.5742  2.4417  2.4241
  132CHL1    C915991   5.248   7.339   5.921 -0.2633 -0.1440  0.1569
  132CHL1    H915992   5.265   7.446   5.944 -0.0135  0.2103 -1.5447
  132CHL1   C1015993   5.268   7.328   5.765 -0.0598  0.2217 -0.7207
  132CHL1   C1915994   5.199   7.192   5.720 -0.1780 -0.1220 -0.2703
  132CHL1  H19A15995   5.226   7.166   5.615  0.1963  0.1962 -0.2562
  132CHL1  H19B15996   5.225   7.113   5.793  1.2573 -0.3869 -1.0072
  132CHL1  H19C15997   5.088   7.192   5.724 -0.2306 -2.7844 -0.1520
  132CHL1    C115998   5.200   7.442   5.685  0.1664 -0.1182 -0.8648
  132CHL1   H1A15999   5.092   7.426   5.703  0.5818 -1.7423  0.4802
  132CHL1   H1B16000   5.228   7.538   5.733  2.3011 -0.3613 -1.5126
  132CHL1    C216001   5.233   7.455   5.540  0.2654 -0.4359  0.3575
  132CHL1   H2A16002   5.189   7.552   5.509  0.9663 -0.5261 -1.0070
  132CHL1   H2B16003   5.178   7.388   5.470  0.5575  0.1898 -0.4972
  132CHL1   C2016004   5.137   7.206   6.460  0.3995  0.0666 -0.1870
  132CHL1   H2016005   5.157   7.096   6.465  0.7762  0.1504  0.2595
  132CHL1   C2116006   4.984   7.223   6.426 -0.7175  0.0257 -1.1036
  132CHL1  H21A16007   4.960   7.156   6.341  0.6311 -1.5544 -0.2987
  132CHL1  H21B16008   4.955   7.328   6.405  1.0655  0.6262 -0.7361
  132CHL1  H21C16009   4.923   7.187   6.512  1.8864 -0.6285  0.5759
  132CHL1   C2216010   5.169   7.253   6.599  0.7379  0.0586  0.0212
  132CHL1  H22A16011   5.108   7.189   6.666  0.6881  1.3053  1.2223
  132CHL1  H22B16012   5.273   7.239   6.635  1.3783 -1.1933 -2.1766
  132CHL1   C2316013   5.119   7.397   6.631  0.2644  0.6393 -0.5720
  132CHL1  H23A16014   5.174   7.471   6.569  2.8034 -1.2373 -0.7235
  132CHL1  H23B16015   5.014   7.407   6.597  1.1313  0.5506 -3.5750
  132CHL1   C2416016   5.143   7.434   6.780  0.3870  0.3856 -0.5375
  132CHL1  H24A16017   5.078   7.374   6.846  3.3084 -0.8359  1.4460
  132CHL1  H24B16018   5.249   7.424   6.813 -0.1206  0.6174  1.2639
  132CHL1   C2516019   5.109   7.582   6.808  0.2347 -0.0231  0.2332
  132CHL1   H2516020   5.178   7.645   6.748 -2.2625  2.0107 -0.6672
  132CHL1   C2616021   4.985   7.639   6.747 -0.1428  0.2790  0.4034
  132CHL1  H26A16022   4.891   7.598   6.790 -0.0861 -0.9511 -0.5859
  132CHL1  H26B16023   4.981   7.748   6.768 -1.7409  0.5203 -0.8968
  132CHL1  H26C16024   4.983   7.635   6.636  1.1227  0.6357  0.3452
  132CHL1   C2716025   5.126   7.612   6.958 -0.2276 -0.5202  0.1035
  132CHL1  H27A16026   5.233   7.628   6.982 -0.4894  0.4433  0.6401
  132CHL1  H27B16027   5.074   7.708   6.978  2.0299  1.0013 -0.8614
  132CHL1  H27C16028   5.086   7.531   7.022 -2.3791  0.7445  0.4551
  133CHL1    C316029   1.808   3.687   5.226 -0.0021  0.5563  0.5429
  133CHL1    H316030   1.715   3.631   5.201 -0.3775  2.0548 -1.7789
  133CHL1    O316031   1.894   3.705   5.115  0.1480  0.6061  0.8692
  133CHL1   H3'16032   1.932   3.619   5.100 -1.6449 -0.4689  2.0382
  133CHL1    C416033   1.768   3.827   5.279  0.4887  0.7007 -0.0048
  133CHL1   H4A16034   1.853   3.897   5.294 -0.4510  1.6631  1.0544
  133CHL1   H4B16035   1.726   3.870   5.186  0.3561 -1.7711 -1.1649
  133CHL1    C516036   1.679   3.822   5.398  0.3997 -0.6498  0.3481
  133CHL1    C616037   1.556   3.883   5.401 -0.8338  0.3393 -0.2077
  133CHL1    H616038   1.535   3.951   5.318  2.3022 -0.3214 -1.6903
  133CHL1    C716039   1.475   3.897   5.531  0.0063  0.0230  0.9032
  133CHL1   H7A16040   1.441   4.000   5.555  0.1574 -0.1140  1.7219
  133CHL1   H7B16041   1.398   3.819   5.514 -1.0047  0.9394  1.1161
  133CHL1    C816042   1.557   3.858   5.653 -0.2216 -0.3951  0.1104
  133CHL1    H816043   1.628   3.940   5.676  1.6761 -2.4228  2.0002
  133CHL1   C1416044   1.466   3.838   5.775 -0.4987 -0.1114  0.4706
  133CHL1   H1416045   1.407   3.747   5.750  1.2490 -1.0143 -0.5197
  133CHL1   C1516046   1.352   3.948   5.797 -0.1642  0.0031  0.0121
  133CHL1  H15A16047   1.409   4.043   5.810 -0.7750  0.1018  2.6754
  133CHL1  H15B16048   1.274   3.940   5.718  0.0741  0.1834 -0.2397
  133CHL1   C1616049   1.308   3.923   5.942 -0.5818  0.0954 -0.1325
  133CHL1  H16A16050   1.325   4.011   6.007 -0.1379 -1.7274  2.3490
  133CHL1  H16B16051   1.201   3.895   5.945 -0.5839  0.1522  0.5833
  133CHL1   C1716052   1.394   3.810   6.003 -0.5154 -0.4413  0.4385
  133CHL1   H1716053   1.346   3.712   5.982  3.0514 -2.3180  0.2072
  133CHL1   C1316054   1.524   3.804   5.914 -0.4952 -0.4893 -1.2152
  133CHL1   C1816055   1.618   3.923   5.962 -0.4984  0.2307 -0.4443
  133CHL1  H18A16056   1.562   4.012   5.996  0.1475  0.9306 -1.1672
  133CHL1  H18B16057   1.679   3.904   6.053 -2.8618  0.9673  1.3857
  133CHL1  H18C16058   1.673   3.956   5.871 -1.3732 -0.2935 -1.1897
  133CHL1   C1216059   1.596   3.674   5.892  1.2116 -0.1277  0.0147
  133CHL1  H12A16060   1.658   3.644   5.979 -0.2963 -1.9503  0.5256
  133CHL1  H12B16061   1.529   3.587   5.880  2.0304 -0.7242 -0.2903
  133CHL1   C1116062   1.687   3.678   5.768  0.2204 -0.3333 -0.5481
  133CHL1  H11A16063   1.773   3.742   5.800  0.2872 -0.2329 -0.9208
  133CHL1  H11B16064   1.734   3.577   5.768  0.7097 -0.1252 -1.5980
  133CHL1    C916065   1.632   3.728   5.634 -0.4972 -0.4622 -0.7573
  133CHL1    H916066   1.562   3.646   5.604 -0.7834 -1.6048  2.6303
  133CHL1   C1016067   1.732   3.747   5.522 -0.2671 -0.5587  0.6756
  133CHL1   C1916068   1.861   3.835   5.565 -0.3647  0.2787 -0.2136
  133CHL1  H19A16069   1.820   3.935   5.590 -2.7256 -0.7490  0.3292
  133CHL1  H19B16070   1.914   3.797   5.655  2.3258  0.9741 -1.4368
  133CHL1  H19C16071   1.940   3.831   5.487 -1.7438  0.7443 -1.6965
  133CHL1    C116072   1.787   3.609   5.473 -0.0242  0.3937  0.0719
  133CHL1   H1A16073   1.819   3.541   5.555 -1.7221  0.0034  0.4522
  133CHL1   H1B16074   1.698   3.551   5.441 -0.7945  1.6421 -0.1274
  133CHL1    C216075   1.872   3.615   5.344 -0.0971 -0.5052 -0.5048
  133CHL1   H2A16076   1.900   3.509   5.328  0.9032 -0.4759  0.9590
  133CHL1   H2B16077   1.969   3.659   5.373 -0.8448  1.1435 -0.3776
  133CHL1   C2016078   1.411   3.808   6.160  0.2047 -0.2128 -0.2202
  133CHL1   H2016079   1.493   3.881   6.179  2.1525 -2.2362 -0.4171
  133CHL1   C2116080   1.471   3.671   6.191 -0.5441 -0.1703 -0.0275
  133CHL1  H21A16081   1.575   3.655   6.156 -0.1727 -1.3621  1.5191
  133CHL1  H21B16082   1.407   3.595   6.142 -0.0234  0.6131 -2.0241
  133CHL1  H21C16083   1.478   3.652   6.300  3.9093 -2.1349 -0.4447
  133CHL1   C2216084   1.284   3.846   6.231  0.1351 -0.1983 -0.1081
  133CHL1  H22A16085   1.241   3.932   6.175  3.5160  1.3351 -0.5431
  133CHL1  H22B16086   1.213   3.761   6.245  0.3498 -0.1847  1.1937
  133CHL1   C2316087   1.310   3.886   6.374 -0.4271  0.4129 -0.5130
  133CHL1  H23A16088   1.348   3.802   6.435 -0.9539  0.6279  0.1327
  133CHL1  H23B16089   1.391   3.962   6.383  0.2362 -0.5200  2.7299
  133CHL1   C2416090   1.182   3.926   6.452 -0.2324  0.2819  0.1464
  133CHL1  H24A16091   1.135   4.003   6.386  1.6281  0.9645 -0.4487
  133CHL1  H24B16092   1.122   3.833   6.442 -2.9833  1.9657 -0.1743
  133CHL1   C2516093   1.206   3.967   6.598 -0.2693  0.7604 -0.3694
  133CHL1   H2516094   1.279   3.889   6.630 -0.2738  0.5672 -0.8164
  133CHL1   C2616095   1.263   4.110   6.600 -0.0610 -0.2968 -0.3766
  133CHL1  H26A16096   1.369   4.108   6.565 -0.3354  0.9752 -1.3756
  133CHL1  H26B16097   1.215   4.168   6.518  1.1366  1.7478  0.2957
  133CHL1  H26C16098   1.246   4.163   6.696 -1.6178 -0.6023 -0.4630
  133CHL1   C2716099   1.077   3.952   6.677 -0.1132 -0.5564 -0.1292
  133CHL1  H27A16100   1.086   3.988   6.782  0.9238 -0.3567 -0.2755
  133CHL1  H27B16101   1.007   4.014   6.617  1.7801 -1.9691 -4.1387
  133CHL1  H27C16102   1.044   3.846   6.675  1.4301 -1.0693 -2.1921
  134CHL1    C316103   0.060   3.625   5.171  0.8527  0.0872 -0.6442
  134CHL1    H316104   0.149   3.558   5.169 -0.5699 -2.1309  2.3115
  134CHL1    O316105   0.010   3.670   5.049  0.1004 -0.2004  0.6013
  134CHL1   H3'16106  -0.054   3.739   5.067  0.8178  0.7742 -0.4738
  134CHL1    C416107  -0.044   3.554   5.261 -0.2423  0.7073  0.5492
  134CHL1   H4A16108  -0.139   3.611   5.261 -1.0198 -0.5259  1.2611
  134CHL1   H4B16109  -0.074   3.460   5.208  3.1951 -0.3038  0.1868
  134CHL1    C516110  -0.011   3.530   5.408 -0.0536 -0.3292 -0.1184
  134CHL1    C616111  -0.027   3.409   5.463 -0.7276  0.3583 -0.5671
  134CHL1    H616112  -0.076   3.323   5.416 -0.9369  0.2698 -0.1899
  134CHL1    C716113   0.005   3.384   5.605 -0.7454 -0.6725 -0.2249
  134CHL1   H7A16114  -0.087   3.338   5.648 -2.3621  2.4138 -0.0694
  134CHL1   H7B16115   0.091   3.314   5.603 -1.2102 -1.2356 -1.8678
  134CHL1    C816116   0.042   3.511   5.691 -0.3731  0.6557 -0.8260
  134CHL1    H816117  -0.055   3.561   5.711 -1.3651 -0.7128 -2.0259
  134CHL1   C1416118   0.111   3.479   5.824  0.2939  0.0117  0.0071
  134CHL1   H1416119   0.208   3.432   5.796 -0.5141 -2.4062  1.0464
  134CHL1   C1516120   0.035   3.392   5.924 -0.7141 -0.1436  0.5282
  134CHL1  H15A16121  -0.065   3.439   5.930  0.4373  2.3661  1.3237
  134CHL1  H15B16122   0.029   3.291   5.877  1.1526  0.2628 -0.7257
  134CHL1   C1616123   0.121   3.402   6.057 -0.0758 -0.3773  0.1660
  134CHL1  H16A16124   0.053   3.409   6.145 -1.4683 -0.4775 -0.8782
  134CHL1  H16B16125   0.183   3.311   6.070 -0.7285 -0.8779 -0.1662
  134CHL1   C1716126   0.202   3.534   6.039 -0.4505  0.7795 -0.4233
  134CHL1   H1716127   0.305   3.505   6.009 -0.6391 -0.7409  0.2952
  134CHL1   C1316128   0.148   3.601   5.909 -0.5022 -0.6387  0.6681
  134CHL1   C1816129   0.026   3.694   5.943 -0.1765  0.0165 -0.6745
  134CHL1  H18A16130  -0.015   3.754   5.860 -1.0472 -0.2952 -0.4736
  134CHL1  H18B16131  -0.057   3.641   5.994 -0.8275  0.7609 -0.9381
  134CHL1  H18C16132   0.067   3.768   6.016  3.0317 -1.5834 -0.6490
  134CHL1   C1216133   0.253   3.679   5.824  0.0918 -0.2825  0.0416
  134CHL1  H12A16134   0.306   3.769   5.862  0.0966 -0.1199 -0.3387
  134CHL1  H12B16135   0.340   3.613   5.803  0.6368  0.1070  1.0237
  134CHL1   C1116136   0.189   3.723   5.689  0.5887 -0.0918  0.4054
  134CHL1  H11A16137   0.116   3.806   5.704  0.8655 -0.1735  2.3781
  134CHL1  H11B16138   0.274   3.759   5.628  0.3329  1.3683  0.8903
  134CHL1    C916139   0.128   3.605   5.608  0.3894 -0.3017 -0.1449
  134CHL1    H916140   0.217   3.544   5.580 -0.0894 -0.8043 -0.6049
  134CHL1   C1016141   0.053   3.652   5.485  0.5249 -0.3202 -0.1952
  134CHL1   C1916142  -0.059   3.755   5.523  0.5671  0.1300  0.3743
  134CHL1  H19A16143  -0.023   3.851   5.564 -1.4281  0.4807  1.3988
  134CHL1  H19B16144  -0.115   3.781   5.431  2.0844 -0.1300 -0.6479
  134CHL1  H19C16145  -0.134   3.709   5.592 -0.3904 -2.3795 -2.1258
  134CHL1    C116146   0.156   3.715   5.389  0.3014 -0.7557  0.3214
  134CHL1   H1A16147   0.207   3.807   5.423  1.2040 -1.1155 -0.0117
  134CHL1   H1B16148   0.237   3.641   5.373 -0.2975 -1.0122 -1.8861
  134CHL1    C216149   0.112   3.755   5.247  0.0410 -0.5416  0.2874
  134CHL1   H2A16150   0.193   3.804   5.189 -1.2717  1.3838  0.0012
  134CHL1   H2B16151   0.024   3.821   5.258  1.4259  1.5410 -0.5302
  134CHL1   C2016152   0.225   3.612   6.171 -0.8091  0.3690  0.3038
  134CHL1   H2016153   0.127   3.654   6.202 -0.6264  0.9779  0.0910
  134CHL1   C2116154   0.316   3.729   6.154  0.4253 -0.6352  0.6286
  134CHL1  H21A16155   0.406   3.696   6.099  0.2618 -0.4871  0.2678
  134CHL1  H21B16156   0.351   3.781   6.246  0.2260  1.8538 -0.5968
  134CHL1  H21C16157   0.266   3.802   6.087  1.5739 -0.5680 -0.1672
  134CHL1   C2216158   0.277   3.513   6.280  0.0262  0.6124  0.2768
  134CHL1  H22A16159   0.200   3.434   6.294 -0.3933  1.0901  0.7170
  134CHL1  H22B16160   0.373   3.481   6.234 -0.8022  0.3094 -1.3093
  134CHL1   C2316161   0.302   3.574   6.417 -0.3440  0.0031 -0.4263
  134CHL1  H23A16162   0.340   3.496   6.487 -0.3672  2.1996  2.1849
  134CHL1  H23B16163   0.377   3.655   6.406 -1.2391  0.7891 -0.9468
  134CHL1   C2416164   0.183   3.656   6.484 -0.6037  0.1010  0.1943
  134CHL1  H24A16165   0.233   3.710   6.568  0.5720  0.8687 -0.9638
  134CHL1  H24B16166   0.146   3.729   6.409 -0.7375  0.6075  0.7391
  134CHL1   C2516167   0.074   3.567   6.544 -0.2731 -0.1480  0.4530
  134CHL1   H2516168   0.060   3.486   6.469 -0.9452  0.1944  0.2053
  134CHL1   C2616169   0.111   3.510   6.676 -0.5410 -0.0618  0.4170
  134CHL1  H26A16170   0.138   3.586   6.753 -1.1595 -0.3520  0.9348
  134CHL1  H26B16171   0.029   3.446   6.716 -0.5845 -1.4217 -1.7234
  134CHL1  H26C16172   0.199   3.443   6.672 -1.1092 -0.7401 -1.1292
  134CHL1   C2716173  -0.065   3.643   6.538  0.2053  0.4860 -0.1549
  134CHL1  H27A16174  -0.070   3.740   6.592 -0.4913  2.3199 -3.2741
  134CHL1  H27B16175  -0.099   3.663   6.434  0.5415  0.8093 -0.2057
  134CHL1  H27C16176  -0.133   3.573   6.591  1.1017 -0.2883  0.0229
  135CHL1    C316177   7.077   3.129   5.080 -0.3299 -0.2259  0.0839
  135CHL1    H316178   7.099   3.236   5.103 -1.3572 -0.2544  1.3028
  135CHL1    O316179   7.057   3.114   4.939 -0.0014  0.9094  0.3223
  135CHL1   H3'16180   7.052   3.024   4.905 -0.6676  1.1616 -0.2650
  135CHL1    C416181   7.203   3.053   5.136 -0.0711  0.2125  0.0003
  135CHL1   H4A16182   7.196   2.945   5.112  0.4944  0.3241 -0.6781
  135CHL1   H4B16183   7.282   3.092   5.069 -0.5792 -1.0982 -1.4063
  135CHL1    C516184   7.230   3.071   5.283 -0.2207 -0.1384  1.2100
  135CHL1    C616185   7.346   3.111   5.330  0.0942  0.3711 -0.2955
  135CHL1    H616186   7.434   3.125   5.266  1.9357 -2.1563  1.5222
  135CHL1    C716187   7.385   3.130   5.472  0.4171 -0.6996  0.4085
  135CHL1   H7A16188   7.479   3.077   5.497  0.5490 -1.0486 -0.7824
  135CHL1   H7B16189   7.389   3.239   5.494 -0.2019 -0.9277  1.7436
  135CHL1    C816190   7.270   3.071   5.569 -0.3210  0.2548 -0.1256
  135CHL1    H816191   7.282   2.961   5.581 -0.8337  0.2844  0.7552
  135CHL1   C1416192   7.285   3.134   5.711  0.3886  0.0760  0.4911
  135CHL1   H1416193   7.282   3.245   5.703  0.7065  0.0160 -0.7093
  135CHL1   C1516194   7.421   3.118   5.784 -0.8050  0.3969 -0.2419
  135CHL1  H15A16195   7.445   3.010   5.783  1.2728  0.8239 -0.1286
  135CHL1  H15B16196   7.508   3.172   5.742  0.3466  0.3140  1.8656
  135CHL1   C1616197   7.380   3.157   5.932  0.3233 -0.2954 -0.3703
  135CHL1  H16A16198   7.412   3.069   5.991  2.2109 -0.0838 -0.9975
  135CHL1  H16B16199   7.425   3.256   5.958 -0.6839  0.2743 -0.7555
  135CHL1   C1716200   7.224   3.176   5.932 -0.9360 -0.1156  0.2122
  135CHL1   H1716201   7.215   3.284   5.906 -1.3998 -0.3717 -0.7475
  135CHL1   C1316202   7.171   3.100   5.805 -0.0529 -0.6330  0.5699
  135CHL1   C1816203   7.176   2.950   5.842 -0.9551 -0.3967  0.1192
  135CHL1  H18A16204   7.091   2.921   5.907 -0.8056  0.2065  0.5950
  135CHL1  H18B16205   7.180   2.885   5.752  1.8311 -0.2720  0.0789
  135CHL1  H18C16206   7.258   2.923   5.911 -2.2034  2.4725  2.9895
  135CHL1   C1216207   7.035   3.149   5.747  0.0084  0.2399 -0.2311
  135CHL1  H12A16208   6.948   3.128   5.813 -1.1461  1.1382 -1.4456
  135CHL1  H12B16209   7.028   3.259   5.737 -1.2171  0.1776 -0.2468
  135CHL1   C1116210   7.017   3.076   5.613  0.4279  0.0810 -0.0976
  135CHL1  H11A16211   7.026   2.966   5.627 -0.3323  0.1241  0.8242
  135CHL1  H11B16212   6.922   3.103   5.563  0.1457 -1.3674 -0.4116
  135CHL1    C916213   7.128   3.103   5.512 -0.2854  0.0915  0.1160
  135CHL1    H916214   7.125   3.212   5.491 -0.2375 -0.0519 -0.6792
  135CHL1   C1016215   7.110   3.042   5.373 -0.2145 -0.9794 -0.7018
  135CHL1   C1916216   7.083   2.889   5.393 -0.4680 -0.3363 -0.5857
  135CHL1  H19A16217   7.157   2.839   5.459  0.7629 -0.8541 -2.2582
  135CHL1  H19B16218   6.990   2.884   5.453  0.1141  2.2034  0.6451
  135CHL1  H19C16219   7.074   2.835   5.296 -1.4945 -0.4180 -0.4464
  135CHL1    C116220   6.985   3.100   5.312 -0.1788 -0.4470  0.1738
  135CHL1   H1A16221   6.899   3.056   5.366  1.0814 -2.1873  0.8421
  135CHL1   H1B16222   6.977   3.209   5.332  0.6923 -0.2486 -0.4888
  135CHL1    C216223   6.958   3.082   5.158  0.1560  1.1938 -0.6712
  135CHL1   H2A16224   6.871   3.144   5.129  0.9990  2.8579  0.2119
  135CHL1   H2B16225   6.942   2.975   5.134 -1.0109  1.6768 -2.1619
  135CHL1   C2016226   7.172   3.157   6.075  0.5998 -0.3646 -0.1235
  135CHL1   H2016227   7.161   3.046   6.083  0.9204 -0.3261  1.0792
  135CHL1   C2116228   7.026   3.212   6.078 -0.1432 -0.1027  0.0278
  135CHL1  H21A16229   6.987   3.200   6.181  1.7865  0.6422  0.8923
  135CHL1  H21B16230   6.971   3.151   6.003 -1.0733  1.0957 -0.3067
  135CHL1  H21C16231   7.029   3.318   6.044  0.6092  0.2400  1.1371
  135CHL1   C2216232   7.255   3.207   6.197  0.4784 -0.0612 -0.6138
  135CHL1  H22A16233   7.201   3.173   6.288  0.7801 -1.7647 -1.0302
  135CHL1  H22B16234   7.352   3.153   6.196 -0.3316 -1.5636 -0.9115
  135CHL1   C2316235   7.266   3.355   6.218 -1.0502  0.4349  0.4825
  135CHL1  H23A16236   7.353   3.389   6.157  1.0319 -0.2911  2.8793
  135CHL1  H23B16237   7.176   3.414   6.188 -0.7498  0.9272  0.5347
  135CHL1   C2416238   7.318   3.383   6.359  0.2366 -0.4408  0.8377
  135CHL1  H24A16239   7.389   3.300   6.376 -0.6857 -0.8932  2.7490
  135CHL1  H24B16240   7.370   3.481   6.355 -1.2816  0.3656 -2.0410
  135CHL1   C2516241   7.214   3.374   6.469  0.0515  0.1886 -0.2151
  135CHL1   H2516242   7.159   3.278   6.459 -0.2277  0.2702  0.4486
  135CHL1   C2616243   7.269   3.383   6.613 -0.6194  0.2942 -0.2752
  135CHL1  H26A16244   7.327   3.476   6.632 -0.7810  0.1287  1.1200
  135CHL1  H26B16245   7.181   3.384   6.681  1.0338 -0.6340  2.0099
  135CHL1  H26C16246   7.327   3.290   6.630  1.8758  1.4298 -1.8782
  135CHL1   C2716247   7.113   3.488   6.455  0.0485  0.3703 -0.5121
  135CHL1  H27A16248   7.077   3.500   6.351  2.2381  3.7340 -1.0348
  135CHL1  H27B16249   7.028   3.480   6.526  0.6693  0.1475  0.2232
  135CHL1  H27C16250   7.154   3.589   6.479 -2.0593  1.1038  0.2527
  136CHL1    C316251   6.040   1.517   5.044 -0.1559 -0.2182 -0.0931
  136CHL1    H316252   6.131   1.480   4.993 -0.0836  0.0111 -0.1303
  136CHL1    O316253   5.965   1.600   4.963 -0.0178 -0.2219 -0.1433
  136CHL1   H3'16254   5.918   1.655   5.025  2.8549 -1.2467  3.2868
  136CHL1    C416255   5.944   1.395   5.071 -0.4040 -0.2140  0.3904
  136CHL1   H4A16256   5.840   1.435   5.075 -0.5447 -0.4391 -0.7130
  136CHL1   H4B16257   5.944   1.336   4.977  0.0362 -1.2816  1.0507
  136CHL1    C516258   5.976   1.309   5.191 -0.3460 -0.7508  0.0893
  136CHL1    C616259   5.980   1.170   5.174  0.3364  0.0176 -0.6967
  136CHL1    H616260   5.954   1.120   5.079 -0.7623  0.5641 -0.7047
  136CHL1    C716261   6.023   1.086   5.295  0.3867 -0.4874  0.4508
  136CHL1   H7A16262   5.962   0.993   5.289  0.7892 -0.6828 -1.5891
  136CHL1   H7B16263   6.119   1.032   5.277  0.1645  0.0535 -3.2592
  136CHL1    C816264   6.003   1.153   5.429 -0.3850 -0.4272 -0.1407
  136CHL1    H816265   5.894   1.160   5.448  0.1310  3.3634  2.4549
  136CHL1   C1416266   6.063   1.065   5.539  0.3568  0.3961  0.1267
  136CHL1   H1416267   6.171   1.050   5.518  0.4760 -2.9989  2.3769
  136CHL1   C1516268   6.019   0.912   5.543  0.8227 -0.0864 -0.1497
  136CHL1  H15A16269   5.913   0.888   5.516  0.5824 -0.5625  1.1619
  136CHL1  H15B16270   6.087   0.853   5.478  1.0086 -0.6391  0.5450
  136CHL1   C1616271   6.037   0.871   5.688  0.4596 -1.1803 -0.1300
  136CHL1  H16A16272   5.941   0.847   5.739  0.2888 -0.9829 -0.3580
  136CHL1  H16B16273   6.095   0.777   5.699  3.0548  0.2889 -0.4401
  136CHL1   C1716274   6.100   0.990   5.766 -0.1248 -0.4015  0.4275
  136CHL1   H1716275   6.208   0.980   5.744 -0.1921 -1.4115  0.5357
  136CHL1   C1316276   6.061   1.119   5.677  0.5484  0.5845  1.0704
  136CHL1   C1816277   5.907   1.150   5.723  0.1168  0.2180 -0.1263
  136CHL1  H18A16278   5.918   1.198   5.823 -0.8352 -0.0935  0.1390
  136CHL1  H18B16279   5.867   1.215   5.643 -0.7413 -0.4860 -0.2904
  136CHL1  H18C16280   5.847   1.056   5.721  1.8260 -0.9009 -1.8469
  136CHL1   C1216281   6.153   1.246   5.674 -0.1298  0.6540  1.1127
  136CHL1  H12A16282   6.156   1.288   5.777  0.6459 -1.7870  2.1768
  136CHL1  H12B16283   6.257   1.213   5.655  0.1541  0.2694  3.0867
  136CHL1   C1116284   6.091   1.346   5.571  0.0858 -0.0415 -0.0111
  136CHL1  H11A16285   5.994   1.384   5.609 -0.1143  0.1023 -0.6507
  136CHL1  H11B16286   6.162   1.431   5.569  1.4036 -1.0914 -0.1204
  136CHL1    C916287   6.073   1.288   5.423  0.0833  0.1470  0.0813
  136CHL1    H916288   6.174   1.258   5.389 -0.3385  1.6788 -2.8122
  136CHL1   C1016289   6.020   1.388   5.316 -0.1438  0.2638 -0.3055
  136CHL1   C1916290   5.896   1.459   5.371 -0.1252  0.2931 -0.2422
  136CHL1  H19A16291   5.850   1.534   5.302  0.3135 -0.1277 -0.9991
  136CHL1  H19B16292   5.813   1.392   5.400  0.1570  0.1568  0.2418
  136CHL1  H19C16293   5.917   1.506   5.469  0.9608 -0.0978 -0.2792
  136CHL1    C116294   6.129   1.490   5.276 -0.5604  0.0008  0.2069
  136CHL1   H1A16295   6.159   1.543   5.369 -1.5215 -0.2047  0.6528
  136CHL1   H1B16296   6.209   1.439   5.220 -1.8043 -1.6000 -0.1744
  136CHL1    C216297   6.081   1.590   5.169 -0.1007 -0.4261 -0.1730
  136CHL1   H2A16298   6.168   1.656   5.151  0.4614 -1.1893 -0.2904
  136CHL1   H2B16299   6.010   1.661   5.217 -0.3345 -0.5742 -0.2936
  136CHL1   C2016300   6.074   0.981   5.914  0.1403 -0.4688 -0.4944
  136CHL1   H2016301   5.966   0.998   5.933  0.4323  0.7226  0.1818
  136CHL1   C2116302   6.147   1.097   5.987  0.0017  0.1418  0.6416
  136CHL1  H21A16303   6.116   1.096   6.094 -1.0415  1.8185  0.4019
  136CHL1  H21B16304   6.110   1.195   5.949  2.4907  0.5813 -0.8856
  136CHL1  H21C16305   6.255   1.077   5.970 -0.6640 -1.6321 -2.1512
  136CHL1   C2216306   6.123   0.843   5.973  0.2064  0.1552  0.4797
  136CHL1  H22A16307   6.062   0.760   5.932  0.1784 -0.0576  0.9501
  136CHL1  H22B16308   6.231   0.833   5.949  0.1945 -0.8316  0.7861
  136CHL1   C2316309   6.117   0.825   6.123  0.0941 -0.4648 -0.0544
  136CHL1  H23A16310   6.180   0.900   6.177 -0.6177  1.4026 -1.6872
  136CHL1  H23B16311   6.010   0.838   6.153  0.3139 -0.4335  0.7536
  136CHL1   C2416312   6.168   0.694   6.187  0.6166  0.3366  0.1919
  136CHL1  H24A16313   6.104   0.611   6.149  0.3556  0.9979 -0.8699
  136CHL1  H24B16314   6.275   0.681   6.161  0.4526  1.4828 -1.1454
  136CHL1   C2516315   6.164   0.692   6.342  0.3013 -0.1328 -0.0704
  136CHL1   H2516316   6.231   0.774   6.374  0.5988 -0.8578  1.2203
  136CHL1   C2616317   6.019   0.716   6.401 -0.6165  0.1678  0.3581
  136CHL1  H26A16318   6.013   0.656   6.494 -0.4411 -1.0529 -0.4024
  136CHL1  H26B16319   6.007   0.825   6.422  1.0314  0.4839 -0.1860
  136CHL1  H26C16320   5.945   0.674   6.329 -1.1629 -1.1300  1.6475
  136CHL1   C2716321   6.217   0.559   6.399 -0.0105  0.2768 -0.0264
  136CHL1  H27A16322   6.300   0.525   6.333 -0.4943 -1.3092  0.1457
  136CHL1  H27B16323   6.259   0.582   6.499  0.9546 -0.5654 -0.2253
  136CHL1  H27C16324   6.149   0.472   6.411  0.8218 -0.0179  3.7984
  137CHL1    C316325   1.632   2.556   5.477  0.1573  0.1935  0.1248
  137CHL1    H316326   1.651   2.461   5.531  0.0076 -0.5238 -1.0360
  137CHL1    O316327   1.698   2.563   5.353  0.2884  0.2548 -0.1197
  137CHL1   H3'16328   1.731   2.652   5.361 -1.0943  0.6605  1.8163
  137CHL1    C416329   1.483   2.586   5.461 -0.0229  0.0920 -0.1880
  137CHL1   H4A16330   1.467   2.669   5.388  0.8527 -2.3609 -3.4307
  137CHL1   H4B16331   1.440   2.501   5.404  1.5123  0.4010 -1.9344
  137CHL1    C516332   1.424   2.607   5.601  0.0802 -0.0966 -0.4569
  137CHL1    C616333   1.326   2.524   5.645 -0.2365  0.2266  0.4072
  137CHL1    H616334   1.295   2.445   5.576  3.9923 -0.6513 -0.7801
  137CHL1    C716335   1.262   2.543   5.789 -0.4385  0.7779  0.6308
  137CHL1   H7A16336   1.153   2.526   5.775 -0.1410 -1.8511  1.1098
  137CHL1   H7B16337   1.304   2.479   5.868  0.5073  0.1743 -0.3334
  137CHL1    C816338   1.284   2.683   5.844  0.4765  0.0462 -0.0508
  137CHL1    H816339   1.212   2.751   5.794 -0.5745 -1.5516 -0.7699
  137CHL1   C1416340   1.235   2.692   5.995  0.3266  0.0858 -0.4404
  137CHL1   H1416341   1.289   2.622   6.063 -0.7474  0.9398  1.3759
  137CHL1   C1516342   1.087   2.659   6.013 -0.1650  0.5264 -0.4134
  137CHL1  H15A16343   1.027   2.695   5.927  0.2920 -1.2732 -1.5465
  137CHL1  H15B16344   1.070   2.550   6.029  1.3245  0.1826 -0.9643
  137CHL1   C1616345   1.056   2.721   6.150  0.6901  0.1511 -0.4184
  137CHL1  H16A16346   0.960   2.773   6.131  0.9768 -0.2898 -3.6283
  137CHL1  H16B16347   1.058   2.646   6.231  0.9666  0.9649  0.3451
  137CHL1   C1716348   1.178   2.822   6.181  0.2083 -0.6023 -0.3905
  137CHL1   H1716349   1.254   2.772   6.245 -0.1908 -1.6164 -0.6937
  137CHL1   C1316350   1.246   2.837   6.042  0.6424  0.4611  0.0361
  137CHL1   C1816351   1.157   2.940   5.969  0.3838 -0.5936 -0.0180
  137CHL1  H18A16352   1.051   2.924   5.997  0.3225  0.0653  0.1216
  137CHL1  H18B16353   1.196   3.041   5.992  1.4772 -1.2240  1.0328
  137CHL1  H18C16354   1.172   2.926   5.859  0.9427  1.8521 -0.2953
  137CHL1   C1216355   1.398   2.870   6.037 -0.3697 -0.4632  0.0489
  137CHL1  H12A16356   1.420   2.973   6.072 -0.2236  0.8481 -3.4895
  137CHL1  H12B16357   1.455   2.795   6.096  0.3369 -0.5968 -0.7916
  137CHL1   C1116358   1.443   2.875   5.890  0.3481 -1.1334 -0.2664
  137CHL1  H11A16359   1.381   2.947   5.832  0.3631  0.0019  1.0720
  137CHL1  H11B16360   1.549   2.907   5.898  0.5440 -1.6990 -0.5659
  137CHL1    C916361   1.423   2.734   5.823  0.1333 -0.0613 -0.1320
  137CHL1    H916362   1.493   2.669   5.881 -0.6694 -1.1472 -0.3536
  137CHL1   C1016363   1.480   2.727   5.679 -0.6251 -0.2446  0.1838
  137CHL1   C1916364   1.446   2.854   5.598  0.1670 -0.6296  0.3004
  137CHL1  H19A16365   1.507   2.942   5.629  0.6594 -1.1435  0.8237
  137CHL1  H19B16366   1.451   2.832   5.489 -3.5676  0.0788 -0.1369
  137CHL1  H19C16367   1.339   2.875   5.615  0.2527 -0.7551  1.0338
  137CHL1    C116368   1.630   2.704   5.689  0.4630 -0.3296 -0.9124
  137CHL1   H1A16369   1.680   2.780   5.753 -2.3199  0.9464 -0.1336
  137CHL1   H1B16370   1.646   2.611   5.749 -3.1480 -0.7453 -0.4166
  137CHL1    C216371   1.698   2.678   5.557  0.2235 -0.5187 -0.0406
  137CHL1   H2A16372   1.802   2.651   5.584 -0.2233 -0.2025  2.1897
  137CHL1   H2B16373   1.699   2.775   5.502  0.3124 -1.0211 -0.9487
  137CHL1   C2016374   1.131   2.942   6.258  0.1069 -0.3359 -0.2677
  137CHL1   H2016375   1.059   3.006   6.202  1.4916  1.1927 -0.3516
  137CHL1   C2116376   1.252   3.028   6.305  0.7804  0.2377  0.0517
  137CHL1  H21A16377   1.333   2.960   6.337 -1.1707 -1.8652  0.7898
  137CHL1  H21B16378   1.216   3.097   6.385  2.1810  0.0474  0.8737
  137CHL1  H21C16379   1.288   3.091   6.221  1.2814  1.2768  1.0062
  137CHL1   C2216380   1.049   2.898   6.386  0.6417 -0.6946 -0.2725
  137CHL1  H22A16381   0.995   2.987   6.425  1.9660  0.8827 -1.8206
  137CHL1  H22B16382   0.965   2.828   6.367 -1.0683  0.7669  1.4808
  137CHL1   C2316383   1.131   2.834   6.504 -0.1773 -0.7139 -0.4029
  137CHL1  H23A16384   1.194   2.749   6.469  2.3107  0.4249  1.0927
  137CHL1  H23B16385   1.209   2.899   6.549  0.6955 -1.2831 -1.0496
  137CHL1   C2416386   1.030   2.789   6.612  0.1193 -0.1447  0.1313
  137CHL1  H24A16387   0.956   2.858   6.656 -2.1429 -0.8966 -2.2267
  137CHL1  H24B16388   0.969   2.708   6.567  0.8017 -0.9266  0.5962
  137CHL1   C2516389   1.093   2.711   6.729 -0.4664  0.2178 -0.0875
  137CHL1   H2516390   1.168   2.776   6.777  3.2141 -2.2290 -2.0252
  137CHL1   C2616391   0.994   2.688   6.841  0.2702  0.2325  0.0543
  137CHL1  H26A16392   0.911   2.618   6.816  0.0050  1.2121 -2.0088
  137CHL1  H26B16393   1.051   2.629   6.916  0.8071  1.1438  0.3740
  137CHL1  H26C16394   0.948   2.778   6.887  0.4908  0.9252 -1.0311
  137CHL1   C2716395   1.163   2.582   6.673  0.1668 -0.9302 -0.0569
  137CHL1  H27A16396   1.254   2.613   6.617 -0.8070  3.1486  0.2949
  137CHL1  H27B16397   1.191   2.523   6.763 -1.8370  0.5272  1.6341
  137CHL1  H27C16398   1.095   2.519   6.612  1.7681 -1.4618 -1.3631
  138CHL1    C316399   7.025   1.165   4.659  0.2522  0.0122 -0.1503
  138CHL1    H316400   6.959   1.076   4.667 -0.0571  0.3999  2.9310
  138CHL1    O316401   7.039   1.178   4.518  0.5702  0.0618 -0.1783
  138CHL1   H3'16402   7.122   1.226   4.506  1.2534  0.0558  3.3733
  138CHL1    C416403   6.952   1.286   4.709 -0.4864  0.2651 -0.4354
  138CHL1   H4A16404   7.012   1.372   4.673 -0.9996  0.8226  0.0169
  138CHL1   H4B16405   6.852   1.283   4.660  0.8313 -0.2288 -3.2853
  138CHL1    C516406   6.938   1.296   4.864  0.2869  0.2442 -0.0348
  138CHL1    C616407   6.818   1.310   4.928  0.2013  0.5949  0.0125
  138CHL1    H616408   6.727   1.327   4.869  0.5184  1.2865 -0.2872
  138CHL1    C716409   6.802   1.310   5.077 -0.1371 -0.2076  0.9496
  138CHL1   H7A16410   6.734   1.390   5.113  1.3255  0.9693  1.1910
  138CHL1   H7B16411   6.764   1.210   5.108  2.4708 -1.9744 -1.0978
  138CHL1    C816412   6.940   1.322   5.146  0.6239 -0.5439 -0.1422
  138CHL1    H816413   6.979   1.426   5.146  0.3349 -0.4294  0.6312
  138CHL1   C1416414   6.923   1.280   5.293 -0.3038 -0.5595 -0.0953
  138CHL1   H1416415   6.895   1.172   5.290  0.8296 -0.8580 -0.1339
  138CHL1   C1516416   6.812   1.350   5.368  0.4345  0.4298 -0.2456
  138CHL1  H15A16417   6.813   1.461   5.363  0.5605  0.4488  0.1649
  138CHL1  H15B16418   6.716   1.311   5.328  0.0674  1.4587 -0.3968
  138CHL1   C1616419   6.832   1.305   5.519 -0.2891  0.0576  0.2490
  138CHL1  H16A16420   6.830   1.393   5.587 -0.1319  1.0869 -1.0375
  138CHL1  H16B16421   6.747   1.237   5.542  0.8096 -1.1723  0.7867
  138CHL1   C1716422   6.968   1.226   5.513 -0.0723 -0.3473 -0.6291
  138CHL1   H1716423   6.925   1.126   5.494 -5.6208  1.9964 -2.3907
  138CHL1   C1316424   7.042   1.279   5.384  0.5896 -0.1774  0.5130
  138CHL1   C1816425   7.089   1.426   5.409  0.0377 -0.2843  0.4739
  138CHL1  H18A16426   7.012   1.489   5.459 -1.6152 -2.8806  1.3831
  138CHL1  H18B16427   7.185   1.428   5.465  0.2467  1.4520  0.1181
  138CHL1  H18C16428   7.114   1.475   5.313  0.2714 -0.6541  0.3432
  138CHL1   C1216429   7.150   1.194   5.318 -0.3146  0.1213  0.1738
  138CHL1  H12A16430   7.247   1.196   5.371 -1.1256 -1.2476  1.8449
  138CHL1  H12B16431   7.104   1.093   5.308 -1.1996  0.7203 -2.6692
  138CHL1   C1116432   7.180   1.242   5.173 -0.4130  0.5056  0.5348
  138CHL1  H11A16433   7.215   1.347   5.189 -0.9295  0.9328 -1.0197
  138CHL1  H11B16434   7.263   1.180   5.134 -0.7469  0.6608 -0.4271
  138CHL1    C916435   7.052   1.241   5.084  0.3425 -0.0887 -0.4183
  138CHL1    H916436   7.013   1.138   5.095 -0.0066  0.0262 -0.5711
  138CHL1   C1016437   7.065   1.269   4.943  0.0749 -0.0754  0.6029
  138CHL1   C1916438   7.155   1.398   4.926  0.5548  0.4271  0.5497
  138CHL1  H19A16439   7.114   1.473   4.997 -2.0606 -2.2719  2.0998
  138CHL1  H19B16440   7.261   1.379   4.954  0.5320 -0.7156 -0.0749
  138CHL1  H19C16441   7.161   1.436   4.822  2.3037  1.6822  1.0568
  138CHL1    C116442   7.136   1.137   4.878  0.0579 -0.4552  0.5747
  138CHL1   H1A16443   7.232   1.130   4.934  0.5955 -0.5903 -0.3378
  138CHL1   H1B16444   7.071   1.048   4.888  0.4560 -0.8957 -0.6129
  138CHL1    C216445   7.163   1.155   4.724 -0.9269 -0.1043 -0.0107
  138CHL1   H2A16446   7.221   1.071   4.682 -1.5961  0.0827 -1.3704
  138CHL1   H2B16447   7.226   1.245   4.707 -0.9577  0.3759  2.1244
  138CHL1   C2016448   7.049   1.241   5.641  0.3131 -0.3806  0.2640
  138CHL1   H2016449   7.078   1.348   5.649 -1.7537  0.3586 -1.0909
  138CHL1   C2116450   7.177   1.169   5.630 -0.2976  0.7682 -0.4415
  138CHL1  H21A16451   7.219   1.141   5.729 -0.9134 -0.9005 -0.6231
  138CHL1  H21B16452   7.261   1.231   5.592  0.4364  0.1044  0.0793
  138CHL1  H21C16453   7.168   1.080   5.564  0.1175  1.2334 -1.1375
  138CHL1   C2216454   6.974   1.189   5.768 -0.1377  0.0079 -0.6615
  138CHL1  H22A16455   7.048   1.196   5.852 -0.9792  0.7740  0.0285
  138CHL1  H22B16456   6.886   1.254   5.782  0.8331  0.9615  1.6401
  138CHL1   C2316457   6.940   1.038   5.770  0.3105 -0.1779 -0.2291
  138CHL1  H23A16458   6.837   1.018   5.735 -0.4723 -3.4701  3.2469
  138CHL1  H23B16459   7.010   0.976   5.708  0.1014 -0.6369 -0.0128
  138CHL1   C2416460   6.937   0.965   5.908 -0.5678 -0.4119  0.3015
  138CHL1  H24A16461   6.861   1.021   5.968  0.0725 -0.7928  1.5028
  138CHL1  H24B16462   6.901   0.860   5.899 -0.8283 -0.3414  0.4999
  138CHL1   C2516463   7.062   0.955   5.993 -0.1954 -0.1711 -0.8609
  138CHL1   H2516464   7.097   1.057   6.016  0.0526 -0.0189 -1.8651
  138CHL1   C2616465   7.028   0.876   6.124  0.4425 -0.9641  0.0895
  138CHL1  H26A16466   7.110   0.867   6.198 -1.1814  2.9810  2.7137
  138CHL1  H26B16467   6.951   0.939   6.172 -0.4473 -0.7842 -1.4882
  138CHL1  H26C16468   6.986   0.777   6.093  1.8005 -1.3818 -0.4938
  138CHL1   C2716469   7.171   0.863   5.927 -0.0044 -0.0715 -0.4368
  138CHL1  H27A16470   7.209   0.925   5.843 -0.8392 -0.7737 -1.3558
  138CHL1  H27B16471   7.256   0.842   5.995 -0.4538  0.7465  0.4030
  138CHL1  H27C16472   7.133   0.770   5.880  1.1829 -1.0304  0.4287
  139CHL1    C316473   0.255   7.560   5.221 -0.1413  1.5411  0.0325
  139CHL1    H316474   0.186   7.645   5.204 -2.3322 -0.2207 -0.3451
  139CHL1    O316475   0.300   7.519   5.092  0.1046  0.2313 -0.1235
  139CHL1   H3'16476   0.385   7.479   5.112  0.1865  0.6508  0.4057
  139CHL1    C416477   0.381   7.609   5.298  0.7796  0.0075 -0.6762
  139CHL1   H4A16478   0.459   7.532   5.307 -0.7529 -1.4372  1.0042
  139CHL1   H4B16479   0.415   7.700   5.243  0.4421 -0.2648 -1.3507
  139CHL1    C516480   0.343   7.650   5.442 -0.0177 -0.2596  0.1750
  139CHL1    C616481   0.377   7.772   5.500  0.1284  0.6274 -0.2165
  139CHL1    H616482   0.418   7.847   5.432  1.3052 -0.6895 -0.9991
  139CHL1    C716483   0.346   7.809   5.637 -0.1089  0.2760  0.3697
  139CHL1   H7A16484   0.429   7.862   5.688  1.1508 -0.8633 -0.4651
  139CHL1   H7B16485   0.256   7.874   5.647 -1.5103 -1.8794  3.9160
  139CHL1    C816486   0.299   7.691   5.722 -0.9507  0.3235  0.5824
  139CHL1    H816487   0.394   7.643   5.754 -0.8500  1.4063  1.9755
  139CHL1   C1416488   0.236   7.738   5.852 -0.5704  0.2771  0.5313
  139CHL1   H1416489   0.141   7.791   5.825  0.3869  2.8039  1.8134
  139CHL1   C1516490   0.310   7.851   5.932  0.2843  0.0792  0.5168
  139CHL1  H15A16491   0.415   7.813   5.932  0.5491  0.7199 -1.6495
  139CHL1  H15B16492   0.298   7.947   5.879 -0.1459 -0.5865 -0.6230
  139CHL1   C1616493   0.231   7.843   6.065 -0.8514 -0.5859 -0.6528
  139CHL1  H16A16494   0.314   7.837   6.139 -0.0382 -0.5450 -1.5441
  139CHL1  H16B16495   0.170   7.933   6.088 -0.4381 -0.3482 -0.4756
  139CHL1   C1716496   0.149   7.712   6.059  0.0479  0.1237  0.1378
  139CHL1   H1716497   0.052   7.748   6.019 -0.7818 -1.7614  0.3483
  139CHL1   C1316498   0.209   7.628   5.952 -0.4522 -0.3153  0.4396
  139CHL1   C1816499   0.342   7.560   6.002 -0.0251  0.0878  0.3228
  139CHL1  H18A16500   0.308   7.467   6.052  0.1976  0.5009  1.2743
  139CHL1  H18B16501   0.401   7.528   5.915 -0.6665 -1.1712  0.3342
  139CHL1  H18C16502   0.407   7.620   6.070  0.1609  0.0696  0.1595
  139CHL1   C1216503   0.113   7.532   5.880  1.0041  0.4127 -0.4057
  139CHL1  H12A16504   0.081   7.448   5.943 -1.0488  0.9594 -0.6604
  139CHL1  H12B16505   0.017   7.576   5.844  0.0808  0.5720  2.1021
  139CHL1   C1116506   0.174   7.469   5.754  0.1669 -0.5528 -0.0661
  139CHL1  H11A16507   0.264   7.413   5.788  1.0616  0.6226 -0.4413
  139CHL1  H11B16508   0.102   7.399   5.707 -0.6593 -0.0225  0.3768
  139CHL1    C916509   0.213   7.582   5.656  0.0170 -0.4241  0.3910
  139CHL1    H916510   0.119   7.638   5.634 -0.2932 -1.1052 -0.0574
  139CHL1   C1016511   0.269   7.533   5.521  0.3029  0.0134  0.1568
  139CHL1   C1916512   0.376   7.422   5.556  0.0064  0.1156 -0.3462
  139CHL1  H19A16513   0.319   7.335   5.594  1.7399 -1.3666 -1.0450
  139CHL1  H19B16514   0.422   7.398   5.458 -0.3434 -0.9569 -0.2553
  139CHL1  H19C16515   0.452   7.459   5.627  1.9925 -1.0530 -1.7822
  139CHL1    C116516   0.151   7.482   5.439 -0.2899  0.3116  0.1181
  139CHL1   H1A16517   0.109   7.389   5.483 -3.7732  2.2790  1.2852
  139CHL1   H1B16518   0.075   7.563   5.437 -1.0666 -0.2618  2.9659
  139CHL1    C216519   0.181   7.447   5.287  0.3750  0.3748 -0.1918
  139CHL1   H2A16520   0.083   7.436   5.235  0.0564 -0.2170  0.5283
  139CHL1   H2B16521   0.240   7.353   5.291 -0.7612 -0.3733 -0.3794
  139CHL1   C2016522   0.132   7.666   6.204 -0.6664 -0.0904  0.2674
  139CHL1   H2016523   0.231   7.642   6.248 -0.6653  1.2320  1.0157
  139CHL1   C2116524   0.042   7.544   6.209  0.1526  0.3842  0.3011
  139CHL1  H21A16525   0.104   7.460   6.171  0.2076  0.6479 -0.1900
  139CHL1  H21B16526  -0.059   7.552   6.162 -1.2705 -2.8193  2.4017
  139CHL1  H21C16527   0.024   7.519   6.316 -1.1606  1.5921  0.4000
  139CHL1   C2216528   0.058   7.776   6.292  0.0439  0.5289  0.2612
  139CHL1  H22A16529   0.045   7.876   6.246 -0.6335 -0.2350 -1.2933
  139CHL1  H22B16530  -0.049   7.746   6.299  0.9593 -3.5174 -0.1332
  139CHL1   C2316531   0.113   7.788   6.439  0.1937  0.1957  0.5935
  139CHL1  H23A16532   0.114   7.689   6.489 -1.6351  0.2490  0.8287
  139CHL1  H23B16533   0.217   7.827   6.434 -0.5917  2.4449  0.2481
  139CHL1   C2416534   0.042   7.894   6.524 -0.2156 -0.0527  0.1642
  139CHL1  H24A16535   0.047   7.995   6.477 -0.6352  1.1850  2.6270
  139CHL1  H24B16536  -0.062   7.859   6.541 -0.1370 -0.1700  0.3946
  139CHL1   C2516537   0.087   7.914   6.675 -0.2489 -0.8280  0.0684
  139CHL1   H2516538   0.070   7.818   6.727 -1.8915 -1.1982 -1.0859
  139CHL1   C2616539   0.235   7.968   6.687  0.5120  0.1877 -0.4073
  139CHL1  H26A16540   0.265   7.956   6.794  0.0109 -1.4697 -0.4199
  139CHL1  H26B16541   0.302   7.905   6.625 -0.6833 -0.3543 -1.1680
  139CHL1  H26C16542   0.248   8.075   6.660  0.1448 -0.2248 -2.3235
  139CHL1   C2716543  -0.007   8.018   6.747 -0.5665 -0.1021  0.1763
  139CHL1  H27A16544   0.017   8.017   6.856  0.0231 -0.8824  0.0481
  139CHL1  H27B16545   0.017   8.121   6.712  0.2387 -0.2835  0.1797
  139CHL1  H27C16546  -0.109   7.986   6.718 -0.5111 -1.3747  1.2893
  140CHL1    C316547   7.385   7.509   5.468  0.8706  0.3484 -0.3135
  140CHL1    H316548   7.308   7.429   5.479 -1.0771  2.2756  0.6847
  140CHL1    O316549   7.436   7.496   5.336  0.2133  0.2325 -0.2932
  140CHL1   H3'16550   7.468   7.585   5.318 -1.7712  1.4095  1.5401
  140CHL1    C416551   7.324   7.648   5.476 -0.9424 -0.3841 -0.1695
  140CHL1   H4A16552   7.404   7.718   5.446  1.2320 -2.0250  1.4272
  140CHL1   H4B16553   7.242   7.655   5.402 -0.0171 -1.2272 -1.2994
  140CHL1    C516554   7.277   7.683   5.616  0.3378 -0.3664  0.3169
  140CHL1    C616555   7.156   7.735   5.642  0.2478  0.8284  0.7751
  140CHL1    H616556   7.091   7.752   5.555 -0.7570  0.4397  1.4312
  140CHL1    C716557   7.116   7.781   5.778 -0.1420 -0.0934 -0.6966
  140CHL1   H7A16558   7.084   7.888   5.778  0.2210  0.0294  0.2687
  140CHL1   H7B16559   7.032   7.718   5.815 -0.6928  1.4802  0.8807
  140CHL1    C816560   7.225   7.784   5.888 -0.0589 -0.1475 -0.1205
  140CHL1    H816561   7.276   7.882   5.880 -1.1603  0.3573 -1.4297
  140CHL1   C1416562   7.168   7.794   6.034  0.8857  0.8402  0.1237
  140CHL1   H1416563   7.098   7.709   6.045  0.8262  0.7446 -0.8945
  140CHL1   C1516564   7.073   7.914   6.054  0.0437  0.1875  0.0223
  140CHL1  H15A16565   7.122   8.006   6.014  3.1051 -0.5861  1.6819
  140CHL1  H15B16566   6.971   7.897   6.013  0.8817 -4.0791 -0.8217
  140CHL1   C1616567   7.067   7.917   6.210 -0.1470 -1.2302  0.1350
  140CHL1  H16A16568   7.096   8.023   6.227  2.0440 -1.7764  0.1606
  140CHL1  H16B16569   6.973   7.901   6.267 -0.2962 -1.1555 -0.0890
  140CHL1   C1716570   7.176   7.815   6.264 -0.5223 -0.3336 -0.1754
  140CHL1   H1716571   7.128   7.716   6.281 -0.2790 -0.4242 -0.0220
  140CHL1   C1316572   7.273   7.797   6.138  0.0280  0.4656 -0.0555
  140CHL1   C1816573   7.363   7.919   6.115  0.2997 -0.1423 -0.4260
  140CHL1  H18A16574   7.425   7.944   6.204 -1.4472 -1.0783  1.1097
  140CHL1  H18B16575   7.426   7.909   6.024  1.5738 -0.4802  0.4658
  140CHL1  H18C16576   7.302   8.011   6.105  0.3610 -0.2935 -2.5529
  140CHL1   C1216577   7.348   7.665   6.129  0.0168 -0.3656  0.0084
  140CHL1  H12A16578   7.432   7.667   6.201 -0.2487  0.0058  0.3171
  140CHL1  H12B16579   7.270   7.588   6.149 -0.5996 -0.4101 -2.2780
  140CHL1   C1116580   7.411   7.657   5.991 -0.1189  0.2860  0.0467
  140CHL1  H11A16581   7.491   7.734   5.989  0.2034 -0.0158 -2.4050
  140CHL1  H11B16582   7.472   7.564   5.995 -1.0861 -0.3310  1.9109
  140CHL1    C916583   7.315   7.667   5.870 -0.6365 -0.1849 -0.1001
  140CHL1    H916584   7.242   7.583   5.880 -0.8177  0.0879  1.0698
  140CHL1   C1016585   7.376   7.654   5.730 -0.2969  0.0464  0.2660
  140CHL1   C1916586   7.485   7.764   5.713 -0.2654 -0.2149 -0.0166
  140CHL1  H19A16587   7.567   7.727   5.779  0.7341  0.9634 -0.5568
  140CHL1  H19B16588   7.518   7.770   5.607 -0.4711 -2.8862 -0.3104
  140CHL1  H19C16589   7.443   7.864   5.738 -1.4317 -1.0323  1.4629
  140CHL1    C116590   7.431   7.509   5.713  0.6368 -0.3075  0.1176
  140CHL1   H1A16591   7.506   7.491   5.794  1.6975  1.2388 -0.4827
  140CHL1   H1B16592   7.348   7.437   5.729 -0.7145  1.3423  0.8212
  140CHL1    C216593   7.496   7.476   5.574  0.3758 -0.1036 -0.2112
  140CHL1   H2A16594   7.534   7.372   5.562  0.3371 -0.4849  2.4427
  140CHL1   H2B16595   7.584   7.540   5.552  0.9919 -0.4282  1.2309
  140CHL1   C2016596   7.231   7.847   6.399  0.5569 -0.4115  0.3667
  140CHL1   H2016597   7.141   7.831   6.462 -1.7102 -1.7056 -2.9569
  140CHL1   C2116598   7.253   7.995   6.434  0.7269 -0.3459  0.3392
  140CHL1  H21A16599   7.271   8.009   6.543 -0.7196 -0.0090  0.5669
  140CHL1  H21B16600   7.168   8.064   6.415  0.4318 -0.7438  0.2055
  140CHL1  H21C16601   7.340   8.037   6.380  0.4951 -3.0899 -2.4135
  140CHL1   C2216602   7.341   7.758   6.446 -0.3708 -0.4831 -0.1934
  140CHL1  H22A16603   7.319   7.655   6.412 -0.8054 -0.0689 -1.2097
  140CHL1  H22B16604   7.440   7.777   6.400 -0.5691  1.7105  0.1459
  140CHL1   C2316605   7.359   7.751   6.602  0.1144  0.2704 -0.0935
  140CHL1  H23A16606   7.414   7.833   6.654 -1.5445 -0.7986  3.6932
  140CHL1  H23B16607   7.260   7.746   6.653  0.8667 -0.4977  1.3217
  140CHL1   C2416608   7.442   7.628   6.627  0.7655  0.1761  0.5459
  140CHL1  H24A16609   7.392   7.539   6.583 -0.8235  1.5254 -0.4641
  140CHL1  H24B16610   7.539   7.650   6.578  0.0577  1.5202 -0.2883
  140CHL1   C2516611   7.466   7.593   6.783 -0.3820 -0.2916  0.0549
  140CHL1   H2516612   7.508   7.681   6.836 -1.0454  0.4108 -0.5670
  140CHL1   C2616613   7.562   7.482   6.798 -0.2398  0.4071  0.2862
  140CHL1  H26A16614   7.648   7.498   6.730  0.9398 -0.8192  1.4225
  140CHL1  H26B16615   7.603   7.473   6.901 -0.0746 -0.4701  0.1468
  140CHL1  H26C16616   7.533   7.379   6.769 -0.9702 -0.3860  3.4268
  140CHL1   C2716617   7.343   7.551   6.857  0.7592  0.0640 -0.2576
  140CHL1  H27A16618   7.358   7.541   6.966  1.6892 -2.9480 -0.5632
  140CHL1  H27B16619   7.254   7.611   6.828 -0.9048 -1.6186  1.1511
  140CHL1  H27C16620   7.320   7.451   6.813  2.1763 -0.2703 -0.2787
  141DOPC     N16621   3.129   3.771   8.498  0.6363 -0.6886  1.0266
  141DOPC   C1216622   3.152   3.728   8.360  0.3532 -0.3739  0.2558
  141DOPC  H12A16623   3.143   3.813   8.294  4.2287 -1.5420 -2.1157
  141DOPC  H12B16624   3.067   3.666   8.336  1.0779 -1.0898 -0.5361
  141DOPC   C1316625   2.984   3.794   8.543 -0.4745 -0.3332 -0.4658
  141DOPC  H13A16626   2.945   3.694   8.554  2.2042 -1.3219  1.2829
  141DOPC  H13B16627   2.973   3.843   8.638 -1.6403  1.6071 -1.5484
  141DOPC  H13C16628   2.927   3.852   8.472 -1.5619 -1.4135 -0.5067
  141DOPC   C1416629   3.199   3.901   8.520 -0.0079  0.3240 -0.0707
  141DOPC  H14A16630   3.305   3.888   8.504 -0.2500 -0.5613 -1.0372
  141DOPC  H14B16631   3.152   3.977   8.458 -3.0815 -0.5806  0.9771
  141DOPC  H14C16632   3.183   3.931   8.623  2.2190  0.5144  0.2594
  141DOPC   C1516633   3.188   3.666   8.589  0.0784  0.0166 -0.3075
  141DOPC  H15A16634   3.134   3.573   8.583 -0.3036  0.2819 -1.1932
  141DOPC  H15B16635   3.173   3.703   8.690  0.3065 -3.8183  1.3067
  141DOPC  H15C16636   3.290   3.637   8.568  0.1307 -0.0209 -0.0046
  141DOPC   C1116637   3.278   3.650   8.315 -0.3437  0.1212  0.0396
  141DOPC  H11A16638   3.268   3.551   8.366 -0.1546  0.9178  1.7111
  141DOPC  H11B16639   3.281   3.628   8.206  1.3293 -0.8826  0.2413
  141DOPC     P16640   3.515   3.646   8.407 -0.3477  0.0241 -0.4099
  141DOPC   O1316641   3.484   3.574   8.526  0.6492 -0.3515 -0.6190
  141DOPC   O1416642   3.618   3.755   8.415  0.1811  0.9539 -0.8455
  141DOPC   O1216643   3.387   3.722   8.357 -0.1710  0.5590  0.0956
  141DOPC   O1116644   3.551   3.545   8.286  0.1853  0.4193  0.2800
  141DOPC    C116645   3.591   3.607   8.163  0.1243 -0.2516  0.2278
  141DOPC    HA16646   3.692   3.654   8.171  0.4549 -1.1734  2.0919
  141DOPC    HB16647   3.513   3.677   8.125  0.3047  0.6718  1.4738
  141DOPC    C216648   3.599   3.499   8.051  0.8200 -0.0042 -0.9265
  141DOPC    HS16649   3.682   3.429   8.076 -1.4523 -2.2159  0.9064
  141DOPC   O2116650   3.602   3.560   7.926  0.1058 -0.0203 -0.9218
  141DOPC   C2116651   3.718   3.619   7.892 -0.5120  0.0097 -1.2870
  141DOPC   O2216652   3.820   3.624   7.958  0.2700  0.4772  0.0405
  141DOPC   C2216653   3.708   3.674   7.749  0.1949  0.3119  0.2406
  141DOPC   H2R16654   3.707   3.785   7.748 -1.9789  0.3289 -0.3900
  141DOPC   H2S16655   3.613   3.646   7.698  0.4321  1.4581 -0.8745
  141DOPC    C316656   3.463   3.425   8.049 -0.0377 -0.5341  0.5560
  141DOPC    HX16657   3.383   3.497   8.023 -1.4626 -1.4197  2.2709
  141DOPC    HY16658   3.423   3.390   8.146 -0.2729  2.4643  1.6393
  141DOPC   O3116659   3.454   3.317   7.950 -0.1135  0.4300 -0.2173
  141DOPC   C3116660   3.516   3.204   7.987  0.7271 -0.0444 -0.2059
  141DOPC   O3216661   3.597   3.197   8.083  0.1530  0.7013  0.4570
  141DOPC   C3216662   3.502   3.096   7.881 -0.1894  0.3382 -0.2687
  141DOPC   H2X16663   3.485   3.000   7.933 -3.8546  1.4466  0.9311
  141DOPC   H2Y16664   3.414   3.120   7.817 -0.0971 -1.0842 -0.9474
  141DOPC   C2316665   3.833   3.625   7.673 -0.1382  0.0592 -0.5165
  141DOPC   H3R16666   3.846   3.515   7.679  1.5375  0.2733  0.8343
  141DOPC   H3S16667   3.924   3.677   7.713  0.4919 -1.0001 -0.5419
  141DOPC   C2416668   3.826   3.667   7.528  0.5095  0.1822 -0.0063
  141DOPC   H4R16669   3.737   3.606   7.502  0.6169 -1.1292  2.4491
  141DOPC   H4S16670   3.912   3.634   7.465  0.1177  1.2345 -1.1184
  141DOPC   C2516671   3.795   3.813   7.499 -0.1252  0.8432 -0.4669
  141DOPC   H5R16672   3.861   3.884   7.553  1.4973 -1.5624  0.8829
  141DOPC   H5S16673   3.689   3.826   7.529  0.2001  2.2164  0.1859
  141DOPC   C2616674   3.804   3.849   7.354  0.2120  0.0151  0.5688
  141DOPC   H6R16675   3.765   3.769   7.288  0.4357  0.5488 -0.2196
  141DOPC   H6S16676   3.905   3.855   7.308  0.2526  0.4480  0.7096
  141DOPC   C2716677   3.718   3.981   7.317 -0.2344  0.8907  0.6227
  141DOPC   H7R16678   3.611   3.951   7.316  0.7242 -3.2585 -0.6740
  141DOPC   H7S16679   3.737   4.020   7.215  0.0635  0.9902  0.7136
  141DOPC   C2816680   3.748   4.104   7.409 -0.0489  0.2459 -0.0133
  141DOPC   H8R16681   3.856   4.119   7.428 -0.2591  2.0469  0.0028
  141DOPC   H8S16682   3.701   4.083   7.508  1.1739 -2.4875  0.0653
  141DOPC   C2916683   3.683   4.230   7.363 -0.0141  0.3581 -0.7278
  141DOPC   H9R16684   3.580   4.250   7.397  0.3507 -1.4000  1.7342
  141DOPC  C21016685   3.745   4.311   7.273  0.4483  0.0642 -0.1381
  141DOPC  H10R16686   3.694   4.404   7.246  0.3715 -0.0657 -0.4504
  141DOPC  C21116687   3.876   4.293   7.203  0.5540  0.2484 -0.1360
  141DOPC  H11R16688   3.909   4.188   7.187 -0.9891  0.0501 -2.5818
  141DOPC  H11S16689   3.951   4.353   7.259  0.5274  2.7965 -2.5892
  141DOPC  C21216690   3.880   4.350   7.065 -0.6640  0.5915  0.1054
  141DOPC  H12R16691   3.984   4.366   7.032 -0.2743 -1.6128  0.1125
  141DOPC  H12S16692   3.822   4.445   7.059 -0.5943  0.7371  1.3866
  141DOPC  C21316693   3.816   4.256   6.954 -0.6668  0.4412  0.3121
  141DOPC  H13R16694   3.728   4.206   7.001 -0.9109 -0.3118 -0.8875
  141DOPC  H13S16695   3.892   4.176   6.938 -0.5439  0.3911  1.1083
  141DOPC  C21416696   3.781   4.348   6.833 -0.6822 -0.4713  0.4770
  141DOPC  H14R16697   3.868   4.417   6.835 -1.1092  0.0739  2.5467
  141DOPC  H14S16698   3.687   4.403   6.854 -0.6324 -0.4423  0.6281
  141DOPC  C21516699   3.782   4.264   6.703  0.7842 -0.5398  0.1159
  141DOPC  H15R16700   3.708   4.184   6.724 -0.0317  0.3783  0.8608
  141DOPC  H15S16701   3.881   4.215   6.694  0.8452 -0.8547  2.0398
  141DOPC  C21616702   3.745   4.328   6.571 -0.0378  0.1350  0.6061
  141DOPC  H16R16703   3.784   4.432   6.558  1.6850 -0.8015 -2.6255
  141DOPC  H16S16704   3.635   4.337   6.570 -0.0714 -0.3547 -0.5917
  141DOPC  C21716705   3.784   4.247   6.452 -0.3226  0.9047  0.0712
  141DOPC  H17R16706   3.733   4.149   6.454 -0.4099  0.9487  1.9073
  141DOPC  H17S16707   3.891   4.218   6.458 -0.7084 -0.4117  1.0349
  141DOPC  C21816708   3.755   4.317   6.322 -0.3481  0.7859  0.3255
  141DOPC  H18R16709   3.795   4.254   6.240  1.9346 -0.3561  2.1898
  141DOPC  H18S16710   3.801   4.418   6.322 -1.0676  1.1377 -1.3607
  141DOPC  H18T16711   3.645   4.318   6.306 -0.0404 -0.9716 -2.6298
  141DOPC   C3316712   3.638   3.089   7.802  1.0467 -0.5446 -0.0012
  141DOPC   H3X16713   3.646   2.994   7.744 -1.8955 -0.4669 -0.6852
  141DOPC   H3Y16714   3.712   3.086   7.885 -0.1393 -0.3436  1.0926
  141DOPC   C3416715   3.667   3.200   7.699  0.6225 -0.7244 -0.2633
  141DOPC   H4X16716   3.775   3.196   7.675  0.2596 -1.4610 -1.8367
  141DOPC   H4Y16717   3.643   3.301   7.740  1.0492  0.4237 -2.6608
  141DOPC   C3516718   3.579   3.181   7.572 -0.1878 -0.3818 -0.1959
  141DOPC   H5X16719   3.470   3.184   7.592 -0.2901  4.4550 -0.1109
  141DOPC   H5Y16720   3.610   3.085   7.525 -0.2630 -1.2028  1.3801
  141DOPC   C3616721   3.598   3.300   7.469 -0.2925 -0.0928  0.4701
  141DOPC   H6X16722   3.595   3.391   7.532 -0.2119 -0.3283  0.8184
  141DOPC   H6Y16723   3.700   3.297   7.423  0.4749  3.1000  1.7311
  141DOPC   C3716724   3.487   3.295   7.366  0.1888 -0.3068 -0.3828
  141DOPC   H7X16725   3.506   3.207   7.300 -0.4039 -0.7598  0.0449
  141DOPC   H7Y16726   3.384   3.290   7.408 -0.0484 -1.0742 -1.0168
  141DOPC   C3816727   3.481   3.426   7.282 -0.0231  0.1725  0.0049
  141DOPC   H8X16728   3.489   3.517   7.345 -0.2729  1.6291 -1.9602
  141DOPC   H8Y16729   3.374   3.435   7.252  0.5774  2.9432 -1.6733
  141DOPC   C3916730   3.569   3.447   7.165 -0.2843  0.2410 -0.5976
  141DOPC   H9X16731   3.670   3.488   7.179  0.2972 -1.3437  0.1180
  141DOPC  C31016732   3.545   3.410   7.038 -0.0379 -0.0484 -0.5974
  141DOPC  H10X16733   3.625   3.422   6.963  0.6955  0.9033  0.2998
  141DOPC  C31116734   3.422   3.346   6.982 -0.1106  0.1910  0.4892
  141DOPC  H11X16735   3.379   3.280   7.060  0.6271  1.0556  1.6545
  141DOPC  H11Y16736   3.456   3.280   6.899 -0.7711 -1.7195  1.6783
  141DOPC  C31216737   3.313   3.432   6.922  0.7419 -0.5354  0.2045
  141DOPC  H12X16738   3.357   3.511   6.858 -2.6957  2.4472  1.1655
  141DOPC  H12Y16739   3.261   3.476   7.010 -2.3711 -1.6872 -0.9336
  141DOPC  C31316740   3.207   3.358   6.828 -0.5551 -0.7707 -0.6644
  141DOPC  H13X16741   3.162   3.443   6.772  2.3099  1.7495  0.5467
  141DOPC  H13Y16742   3.266   3.296   6.758  0.7686 -1.7099  1.2167
  141DOPC  C31416743   3.099   3.281   6.902 -0.1647 -0.0250 -0.0904
  141DOPC  H14X16744   3.140   3.183   6.936  0.8253  1.5661  3.7208
  141DOPC  H14Y16745   3.076   3.339   6.993  2.2853  0.2798  0.3986
  141DOPC  C31516746   2.968   3.250   6.824 -0.1401  1.1013  0.1680
  141DOPC  H15X16747   2.924   3.350   6.800  0.3050  0.8373 -2.0248
  141DOPC  H15Y16748   2.891   3.198   6.884 -1.8657  2.9565 -0.2992
  141DOPC  C31616749   2.996   3.176   6.690  0.4846  0.1631 -0.3309
  141DOPC  H16X16750   3.064   3.237   6.628  0.9116 -0.4453 -0.4769
  141DOPC  H16Y16751   3.049   3.080   6.711 -1.6538 -1.4190 -1.8231
  141DOPC  C31716752   2.866   3.134   6.617  0.1290  0.7614  0.5385
  141DOPC  H17X16753   2.823   3.063   6.690 -2.5748  0.5693 -1.1392
  141DOPC  H17Y16754   2.797   3.220   6.607 -0.9570 -0.1929 -0.2741
  141DOPC  C31816755   2.878   3.068   6.483 -0.8642  0.3138  0.1295
  141DOPC  H18X16756   2.939   3.125   6.409  1.0047 -3.9944 -2.0171
  141DOPC  H18Y16757   2.940   2.976   6.487  2.2167  2.2050 -0.6576
  141DOPC  H18Z16758   2.784   3.049   6.427 -0.3604  1.0827 -1.0199
  142DOPC     N16759   4.193   4.319   8.605 -0.0140  0.4310  0.3320
  142DOPC   C1216760   4.308   4.337   8.505  0.5839 -0.2555  0.5332
  142DOPC  H12A16761   4.390   4.387   8.556  0.5269  0.8497 -0.4092
  142DOPC  H12B16762   4.285   4.411   8.430 -0.3140  0.7954  1.7974
  142DOPC   C1316763   4.084   4.241   8.538 -0.4987 -0.2225 -0.3004
  142DOPC  H13A16764   4.001   4.237   8.607  1.4339 -0.1682  2.1796
  142DOPC  H13B16765   4.054   4.299   8.452 -2.3806 -0.2926  0.2473
  142DOPC  H13C16766   4.121   4.143   8.513  0.6712  0.2218 -0.3532
  142DOPC   C1416767   4.143   4.443   8.653 -0.2177 -0.3706 -0.2121
  142DOPC  H14A16768   4.078   4.443   8.740 -0.8880 -0.3141 -0.7055
  142DOPC  H14B16769   4.226   4.507   8.680 -0.3418  0.1154 -0.9539
  142DOPC  H14C16770   4.085   4.494   8.578  0.4734 -1.9860 -1.9009
  142DOPC   C1516771   4.242   4.237   8.717 -0.2524  0.9003 -0.4156
  142DOPC  H15A16772   4.269   4.136   8.690  2.3239  1.4503 -0.1593
  142DOPC  H15B16773   4.166   4.218   8.791  0.9041  0.1108  0.6303
  142DOPC  H15C16774   4.331   4.277   8.764 -0.1322 -0.1644  0.3129
  142DOPC   C1116775   4.364   4.211   8.430  0.2145 -0.6311  0.3665
  142DOPC  H11A16776   4.279   4.167   8.373 -0.4112 -0.3395  1.0506
  142DOPC  H11B16777   4.437   4.244   8.354 -1.5896 -0.6349 -1.4497
  142DOPC     P16778   4.568   4.122   8.565 -0.1562  0.1865  0.4449
  142DOPC   O1316779   4.593   4.006   8.653 -0.1566  0.3310  0.7270
  142DOPC   O1416780   4.603   4.254   8.616  0.6765 -0.0081  0.6355
  142DOPC   O1216781   4.416   4.119   8.523 -0.2130  0.4977  0.0425
  142DOPC   O1116782   4.635   4.091   8.429 -0.0327 -0.4028 -0.3351
  142DOPC    C116783   4.575   3.979   8.351  0.1625 -0.3732 -0.1645
  142DOPC    HA16784   4.465   3.990   8.341  0.1805  0.9671  0.8851
  142DOPC    HB16785   4.601   3.884   8.404 -0.3473 -0.0158  0.7422
  142DOPC    C216786   4.624   3.964   8.197 -0.0014  0.0518  0.0208
  142DOPC    HS16787   4.572   3.883   8.141  1.2600 -0.7996  0.0282
  142DOPC   O2116788   4.764   3.944   8.192 -0.2748 -0.1069  0.4390
  142DOPC   C2116789   4.818   3.895   8.083 -0.4755 -0.1472 -0.6082
  142DOPC   O2216790   4.758   3.850   7.987  0.4452 -0.4890 -0.4357
  142DOPC   C2216791   4.973   3.912   8.087 -0.1150 -0.6153 -0.0691
  142DOPC   H2R16792   5.016   3.857   8.173 -1.6098 -1.0827  0.4100
  142DOPC   H2S16793   4.984   4.020   8.109 -0.5437 -0.2219 -1.6357
  142DOPC    C316794   4.609   4.108   8.137 -0.4236  0.7091 -0.4478
  142DOPC    HX16795   4.672   4.177   8.196 -1.6390  0.5959  1.0246
  142DOPC    HY16796   4.507   4.139   8.170  0.2499  1.6485  0.8164
  142DOPC   O3116797   4.651   4.120   8.000  0.1610 -0.2035  0.1127
  142DOPC   C3116798   4.551   4.121   7.911 -0.3635  0.0495 -0.6977
  142DOPC   O3216799   4.434   4.125   7.935  0.2945  0.4201  0.1187
  142DOPC   C3216800   4.595   4.083   7.772 -0.1458  0.2500 -0.2201
  142DOPC   H2X16801   4.687   4.138   7.742  1.3499 -0.2874  2.9843
  142DOPC   H2Y16802   4.611   3.973   7.770 -1.7793 -0.0478 -3.1497
  142DOPC   C2316803   5.046   3.901   7.951 -0.1787  0.1194 -0.1579
  142DOPC   H3R16804   5.150   3.937   7.967  0.1555  0.7945 -3.1396
  142DOPC   H3S16805   5.003   3.975   7.879  0.4813  0.4907 -0.1902
  142DOPC   C2416806   5.047   3.766   7.874  0.2133  0.0597 -0.3885
  142DOPC   H4R16807   4.970   3.701   7.921 -0.4369  1.6093  0.7617
  142DOPC   H4S16808   5.145   3.714   7.878  0.1097 -0.2254 -1.2820
  142DOPC   C2516809   5.005   3.784   7.720 -0.0017 -0.5636  0.1197
  142DOPC   H5R16810   4.907   3.836   7.723  0.8473  1.0507  1.2170
  142DOPC   H5S16811   4.981   3.687   7.672 -1.1389 -1.5627  2.5459
  142DOPC   C2616812   5.103   3.878   7.636  0.1912 -0.1972 -0.4161
  142DOPC   H6R16813   5.207   3.838   7.631  0.6124  0.6143  0.9980
  142DOPC   H6S16814   5.104   3.971   7.697 -1.3864  2.6871 -4.4226
  142DOPC   C2716815   5.067   3.913   7.496 -0.9935  0.2876 -0.3953
  142DOPC   H7R16816   4.974   3.974   7.506 -1.7406 -1.1843  2.8437
  142DOPC   H7S16817   5.053   3.820   7.437  1.4172 -0.1909 -0.2949
  142DOPC   C2816818   5.177   3.990   7.417 -0.1087 -0.6365 -0.1408
  142DOPC   H8R16819   5.270   3.933   7.393  1.9409  1.3036  2.5343
  142DOPC   H8S16820   5.213   4.084   7.465 -0.6040 -0.1532 -0.7050
  142DOPC   C2916821   5.120   4.040   7.288  1.0502 -0.3089 -0.1794
  142DOPC   H9R16822   5.026   4.098   7.292  0.5269 -1.0822 -1.0029
  142DOPC  C21016823   5.149   4.006   7.161  0.1040  0.5715  0.2036
  142DOPC  H10R16824   5.098   4.063   7.082 -1.6684 -1.7892 -0.4824
  142DOPC  C21116825   5.256   3.908   7.110  0.3386 -0.0591 -0.8414
  142DOPC  H11R16826   5.227   3.805   7.141  0.8962 -0.6719 -2.2897
  142DOPC  H11S16827   5.356   3.928   7.155  0.4398  3.2577 -2.2572
  142DOPC  C21216828   5.286   3.904   6.957 -1.0313 -0.7924  0.1233
  142DOPC  H12R16829   5.217   3.832   6.907 -1.1442 -0.6987  0.1433
  142DOPC  H12S16830   5.375   3.839   6.945 -1.8651 -1.9018 -0.2917
  142DOPC  C21316831   5.307   4.038   6.886  0.1186 -0.3964 -0.7705
  142DOPC  H13R16832   5.358   4.114   6.949  1.3886  0.0007 -2.2274
  142DOPC  H13S16833   5.207   4.081   6.860 -0.1317  1.5030  2.7095
  142DOPC  C21416834   5.381   4.017   6.754 -0.9274 -0.7309 -0.1768
  142DOPC  H14R16835   5.327   3.939   6.696 -1.1119  0.3794 -1.5614
  142DOPC  H14S16836   5.482   3.977   6.775 -0.7929  0.3186  1.3301
  142DOPC  C21516837   5.393   4.150   6.672  0.4069 -0.1751  0.8599
  142DOPC  H15R16838   5.454   4.223   6.728  0.3270  0.4869  0.0953
  142DOPC  H15S16839   5.289   4.188   6.668  0.4764  0.0131  0.8323
  142DOPC  C21616840   5.454   4.137   6.533 -0.4666 -0.4130 -0.1938
  142DOPC  H16R16841   5.374   4.082   6.479  0.3874 -1.2194 -0.6910
  142DOPC  H16S16842   5.551   4.083   6.524 -1.4252 -1.9417 -2.4745
  142DOPC  C21716843   5.464   4.280   6.465 -0.2744 -0.1049 -0.3374
  142DOPC  H17R16844   5.542   4.336   6.521  0.1238 -0.6971 -0.2877
  142DOPC  H17S16845   5.367   4.334   6.469 -0.7798 -0.8403 -1.8178
  142DOPC  C21816846   5.515   4.279   6.319 -0.5429 -0.0589  0.3903
  142DOPC  H18R16847   5.581   4.192   6.301  0.2837  0.6204  0.0455
  142DOPC  H18S16848   5.588   4.363   6.314 -3.0892  2.1983 -1.5009
  142DOPC  H18T16849   5.441   4.279   6.236  0.0643 -0.6096 -0.1769
  142DOPC   C3316850   4.483   4.100   7.674  0.3240 -0.3384  0.3897
  142DOPC   H3X16851   4.455   4.207   7.669 -0.1937 -0.5175 -1.4696
  142DOPC   H3Y16852   4.390   4.048   7.706 -0.1646 -1.0193 -1.9318
  142DOPC   C3416853   4.527   4.061   7.535 -0.6951  0.3624  0.1921
  142DOPC   H4X16854   4.430   4.058   7.480 -1.0441  2.0477  0.6600
  142DOPC   H4Y16855   4.567   3.957   7.536 -1.7880 -0.1236 -1.7834
  142DOPC   C3516856   4.635   4.159   7.478  0.2387  0.0524 -0.0314
  142DOPC   H5X16857   4.728   4.144   7.536  0.4690  1.3339 -0.0545
  142DOPC   H5Y16858   4.605   4.264   7.495 -0.1168 -0.0794  0.1656
  142DOPC   C3616859   4.658   4.144   7.325  0.5301  0.0465 -0.7503
  142DOPC   H6X16860   4.571   4.170   7.260  0.1955  0.2107 -0.2502
  142DOPC   H6Y16861   4.735   4.216   7.290 -0.7752  0.8946 -1.9804
  142DOPC   C3716862   4.694   3.998   7.291  0.6545 -0.2855  0.7963
  142DOPC   H7X16863   4.761   3.961   7.371  2.1205  1.3893  0.4047
  142DOPC   H7Y16864   4.607   3.929   7.293  0.4603 -0.1877 -1.4124
  142DOPC   C3816865   4.762   3.985   7.151 -0.1057  0.3846  0.4716
  142DOPC   H8X16866   4.854   4.047   7.145  0.8385 -1.0751 -1.2641
  142DOPC   H8Y16867   4.684   4.027   7.084 -0.9607 -0.7181  0.7430
  142DOPC   C3916868   4.797   3.842   7.127  0.4487  0.5147  0.3633
  142DOPC   H9X16869   4.784   3.765   7.205 -1.2459  1.3547  0.9612
  142DOPC  C31016870   4.833   3.803   7.009  0.7916  0.5817 -0.0045
  142DOPC  H10X16871   4.843   3.695   6.988  0.7456  1.1003 -3.2298
  142DOPC  C31116872   4.842   3.883   6.879  0.1522 -0.1343 -0.3644
  142DOPC  H11X16873   4.949   3.903   6.856  0.7544  0.5291  2.6319
  142DOPC  H11Y16874   4.807   3.987   6.899  2.5611  0.0510  3.8703
  142DOPC  C31216875   4.771   3.820   6.758  0.1940  0.0948 -0.2876
  142DOPC  H12X16876   4.788   3.711   6.766 -2.5213 -0.3256  0.8557
  142DOPC  H12Y16877   4.813   3.868   6.667 -0.7453 -0.8706 -1.2548
  142DOPC  C31316878   4.615   3.845   6.778 -0.2080 -0.4552 -0.1096
  142DOPC  H13X16879   4.608   3.799   6.879  0.8019  0.3135  0.3308
  142DOPC  H13Y16880   4.585   3.952   6.773 -0.1482 -0.3789  0.9152
  142DOPC  C31416881   4.524   3.764   6.686 -0.1414 -1.2710  0.0073
  142DOPC  H14X16882   4.544   3.806   6.585 -2.6304 -0.7687 -0.3560
  142DOPC  H14Y16883   4.548   3.656   6.697  1.0216 -1.0823 -0.5501
  142DOPC  C31516884   4.376   3.796   6.709 -0.0496  0.1660  0.2138
  142DOPC  H15X16885   4.354   3.904   6.697  0.3438  0.5248  2.3302
  142DOPC  H15Y16886   4.343   3.758   6.808 -0.1978 -4.8799 -1.5084
  142DOPC  C31616887   4.284   3.712   6.613 -0.0161  0.1189  0.2990
  142DOPC  H16X16888   4.332   3.706   6.513 -1.2198 -2.3398 -0.1882
  142DOPC  H16Y16889   4.273   3.609   6.652  0.4775  0.5528  1.6568
  142DOPC  C31716890   4.147   3.776   6.599  0.5568  0.1387 -0.0776
  142DOPC  H17X16891   4.097   3.779   6.699  2.8144  0.0364  1.1245
  142DOPC  H17Y16892   4.155   3.880   6.563  0.4799  0.7067  1.4787
  142DOPC  C31816893   4.057   3.707   6.491  0.3110 -0.4462  0.9734
  142DOPC  H18X16894   3.949   3.733   6.488  0.4456  0.0385 -0.4560
  142DOPC  H18Y16895   4.106   3.731   6.395 -1.0615  1.5088  0.6977
  142DOPC  H18Z16896   4.056   3.596   6.502 -5.3940 -0.6924  1.0667
  143DOPC     N16897   3.501   5.038   8.671 -0.5014 -0.3570  0.6275
  143DOPC   C1216898   3.419   4.939   8.754 -0.0099 -0.9309  0.1773
  143DOPC  H12A16899   3.455   4.838   8.754  1.6840 -0.3631 -0.9340
  143DOPC  H12B16900   3.317   4.938   8.719 -0.2618 -1.5371  0.8905
  143DOPC   C1316901   3.472   5.182   8.694  0.0260 -0.1620  0.4466
  143DOPC  H13A16902   3.502   5.217   8.792 -0.5210  1.3620  0.0990
  143DOPC  H13B16903   3.530   5.251   8.633 -0.7079  0.6777  0.6784
  143DOPC  H13C16904   3.371   5.220   8.686  0.3657  0.5141 -1.1278
  143DOPC   C1416905   3.492   5.000   8.528 -0.6379  0.9217 -0.0341
  143DOPC  H14A16906   3.523   5.086   8.469  1.4240 -0.7701 -1.5738
  143DOPC  H14B16907   3.562   4.924   8.497 -0.8681 -0.1877  1.9851
  143DOPC  H14C16908   3.392   4.977   8.493 -0.0391 -1.7317 -0.2001
  143DOPC   C1516909   3.650   5.029   8.698  0.3162 -0.5561 -0.4652
  143DOPC  H15A16910   3.679   4.925   8.688  1.1276 -0.3899  0.0745
  143DOPC  H15B16911   3.678   5.066   8.795  1.5527 -1.1078 -0.5963
  143DOPC  H15C16912   3.691   5.079   8.611 -3.0415  3.2016 -0.1670
  143DOPC   C1116913   3.425   4.977   8.910  0.2616 -0.1163 -0.1235
  143DOPC  H11A16914   3.410   4.885   8.970  0.6002  0.8051  1.4171
  143DOPC  H11B16915   3.528   5.015   8.928  0.6612 -1.0118 -0.4838
  143DOPC     P16916   3.180   5.055   8.949  0.3546 -0.2156  0.0292
  143DOPC   O1316917   3.106   5.182   8.975  0.3809  0.3658 -0.1194
  143DOPC   O1416918   3.161   4.949   9.054 -0.2172 -0.3551 -0.3945
  143DOPC   O1216919   3.335   5.079   8.945  0.5383 -0.4937 -0.4201
  143DOPC   O1116920   3.155   4.997   8.801  0.0971 -0.2397  0.1242
  143DOPC    C116921   3.041   4.918   8.772  0.8301  0.0157 -0.3589
  143DOPC    HA16922   2.948   4.973   8.799  0.4521 -0.4270 -0.7362
  143DOPC    HB16923   3.055   4.814   8.810  0.1196 -0.5189 -1.4925
  143DOPC    C216924   3.035   4.906   8.609 -0.1035 -0.1540 -0.5344
  143DOPC    HS16925   2.937   4.863   8.580 -0.0536  1.0473 -2.7223
  143DOPC   O2116926   3.143   4.820   8.556 -0.8199 -0.0464  0.3865
  143DOPC   C2116927   3.120   4.770   8.440 -0.6588 -0.7681  0.1809
  143DOPC   O2216928   3.016   4.766   8.379  0.4718  0.6759  0.1344
  143DOPC   C2216929   3.243   4.691   8.396 -1.0895 -0.2555  0.1876
  143DOPC   H2R16930   3.256   4.594   8.449 -0.4978 -0.1705  0.2018
  143DOPC   H2S16931   3.333   4.750   8.423  1.1121 -2.9557 -0.7189
  143DOPC    C316932   3.034   5.052   8.548  0.3559  0.5110 -0.5451
  143DOPC    HX16933   3.129   5.098   8.584  1.1179 -0.7164 -0.9123
  143DOPC    HY16934   2.946   5.103   8.592 -0.0907  1.4072 -2.3717
  143DOPC   O3116935   3.028   5.051   8.401 -0.2917 -0.6757 -0.0290
  143DOPC   C3116936   2.903   5.045   8.343  0.1015 -0.2655 -0.5970
  143DOPC   O3216937   2.799   5.037   8.409  0.1200 -0.3360  0.4205
  143DOPC   C3216938   2.915   5.031   8.189  0.5285  0.4110  0.1893
  143DOPC   H2X16939   3.021   5.003   8.172  1.1013 -0.0080  3.6192
  143DOPC   H2Y16940   2.847   4.948   8.160 -0.1691  0.7206  0.8790
  143DOPC   C2316941   3.273   4.687   8.245  0.4986  0.3160  0.0884
  143DOPC   H3R16942   3.176   4.660   8.199 -0.2766  1.1455  1.1864
  143DOPC   H3S16943   3.354   4.615   8.219  0.2407  0.8210 -2.3027
  143DOPC   C2416944   3.309   4.823   8.190  0.8997 -0.5053  0.0307
  143DOPC   H4R16945   3.404   4.864   8.232  1.1012 -1.3474  0.4208
  143DOPC   H4S16946   3.232   4.900   8.213 -0.0733 -1.3777 -0.2567
  143DOPC   C2516947   3.335   4.822   8.031  0.1132 -0.1969 -0.1376
  143DOPC   H5R16948   3.236   4.802   7.982  1.3635  0.0146 -2.9558
  143DOPC   H5S16949   3.410   4.745   8.004 -0.6972 -0.6523 -1.2185
  143DOPC   C2616950   3.385   4.959   7.989 -0.8633 -0.4431  0.2469
  143DOPC   H6R16951   3.464   4.989   8.061  0.7555 -0.6834 -1.3267
  143DOPC   H6S16952   3.303   5.033   7.990 -0.3341  0.1485  0.3693
  143DOPC   C2716953   3.447   4.943   7.844 -0.0258 -0.2009 -0.0582
  143DOPC   H7R16954   3.374   4.892   7.777 -0.0869 -1.4497  0.9239
  143DOPC   H7S16955   3.540   4.883   7.855 -0.7131 -0.9375  2.1498
  143DOPC   C2816956   3.471   5.080   7.783 -0.1775 -0.1342 -0.2059
  143DOPC   H8R16957   3.510   5.139   7.869  1.7794 -1.8361  0.1626
  143DOPC   H8S16958   3.373   5.120   7.748  0.2823  0.5311 -0.7708
  143DOPC   C2916959   3.583   5.075   7.677  0.4477  0.7346 -0.4155
  143DOPC   H9R16960   3.681   5.080   7.727  1.2991 -3.9173 -1.1581
  143DOPC  C21016961   3.568   5.064   7.543  0.7007 -0.1113  0.7149
  143DOPC  H10R16962   3.655   5.077   7.477 -0.2535 -1.3184 -0.8324
  143DOPC  C21116963   3.435   5.065   7.469 -0.6006  0.6733  0.0898
  143DOPC  H11R16964   3.348   5.043   7.534 -1.6168  0.0133 -1.4572
  143DOPC  H11S16965   3.446   4.978   7.401  0.7377 -0.3482  1.5315
  143DOPC  C21216966   3.418   5.198   7.391  0.7130 -0.3980 -0.8910
  143DOPC  H12R16967   3.506   5.228   7.331  1.7078 -0.8187  0.3190
  143DOPC  H12S16968   3.407   5.277   7.468  1.4147 -0.8519 -0.3077
  143DOPC  C21316969   3.296   5.197   7.297 -0.6538  0.3396  0.7338
  143DOPC  H13R16970   3.295   5.295   7.244 -0.2838 -0.1062 -0.1187
  143DOPC  H13S16971   3.209   5.179   7.363 -0.5338 -0.9170  0.5684
  143DOPC  C21416972   3.309   5.094   7.181 -0.0684 -0.0858  0.2406
  143DOPC  H14R16973   3.310   4.990   7.219  1.0385 -0.1187  0.1447
  143DOPC  H14S16974   3.412   5.106   7.141 -0.0495  0.7178  0.5252
  143DOPC  C21516975   3.201   5.104   7.070 -0.7781 -0.1572  0.0349
  143DOPC  H15R16976   3.192   5.207   7.031 -0.5356 -1.0439 -2.5291
  143DOPC  H15S16977   3.102   5.099   7.122 -1.5444 -0.6487 -1.4154
  143DOPC  C21616978   3.215   4.987   6.962 -0.0326 -0.4536 -0.5740
  143DOPC  H16R16979   3.201   4.884   7.001  0.7161 -1.9825 -4.0265
  143DOPC  H16S16980   3.313   4.999   6.910  0.7853 -2.0599  0.5125
  143DOPC  C21716981   3.118   5.011   6.852  1.0424 -0.0100  0.1283
  143DOPC  H17R16982   3.125   4.943   6.765 -3.7288 -0.6528 -0.0416
  143DOPC  H17S16983   3.161   5.108   6.818 -2.1460  1.3171 -0.5136
  143DOPC  C21816984   2.974   5.035   6.889 -0.5852  0.0442 -0.0258
  143DOPC  H18R16985   2.921   5.062   6.795 -3.2015 -1.0546  1.0647
  143DOPC  H18S16986   2.959   5.126   6.951 -0.2246  0.5182 -0.6144
  143DOPC  H18T16987   2.933   4.944   6.936 -0.0430 -0.1367  0.1062
  143DOPC   C3316988   2.872   5.154   8.119  0.8219 -0.4362 -0.5112
  143DOPC   H3X16989   2.926   5.250   8.137 -0.5852  0.6518 -1.8152
  143DOPC   H3Y16990   2.764   5.169   8.139  1.0640  0.5165  0.1617
  143DOPC   C3416991   2.871   5.142   7.967  0.3428 -0.0552  0.0469
  143DOPC   H4X16992   2.815   5.232   7.937  0.7932 -0.0618 -0.8485
  143DOPC   H4Y16993   2.817   5.050   7.938 -0.6838  0.9428 -1.3096
  143DOPC   C3516994   3.016   5.152   7.908 -0.0844  0.4194  0.1882
  143DOPC   H5X16995   3.086   5.071   7.935  1.0634  0.2068 -2.9797
  143DOPC   H5Y16996   3.061   5.251   7.928 -0.0036  0.7898 -1.6058
  143DOPC   C3616997   3.015   5.156   7.751 -0.4694  0.2804 -0.3081
  143DOPC   H6X16998   2.955   5.245   7.723 -1.2183 -0.4036 -0.9269
  143DOPC   H6Y16999   3.121   5.175   7.722  0.0193  0.3879  1.4780
  143DOPC   C3717000   2.972   5.022   7.686 -0.0763 -0.7264  0.1906
  143DOPC   H7X17001   3.004   4.932   7.742  3.9301 -0.2145 -0.9860
  143DOPC   H7Y17002   2.861   5.019   7.685 -0.0631 -3.0115 -1.8369
  143DOPC   C3817003   3.030   4.996   7.544 -0.3592 -0.1807  0.0161
  143DOPC   H8X17004   3.139   4.977   7.554 -0.8104 -2.5259  1.3666
  143DOPC   H8Y17005   3.016   5.083   7.476  0.3339 -0.6427 -0.7371
  143DOPC   C3917006   2.959   4.869   7.495 -0.2346 -0.4501 -0.0658
  143DOPC   H9X17007   2.959   4.787   7.569 -0.7883 -0.3078  0.1012
  143DOPC  C31017008   2.914   4.845   7.369  0.2507  0.0930  0.0633
  143DOPC  H10X17009   2.869   4.746   7.356  1.6805 -0.7337  1.0891
  143DOPC  C31117010   2.919   4.936   7.245  0.5214 -0.3305 -0.0011
  143DOPC  H11X17011   2.982   4.896   7.163  0.3408 -1.4311  0.3794
  143DOPC  H11Y17012   2.966   5.032   7.274  1.3543 -0.8777  0.5134
  143DOPC  C31217013   2.779   4.984   7.200  0.7820  0.0320  0.3440
  143DOPC  H12X17014   2.800   5.075   7.140  1.2569  0.4415  1.1210
  143DOPC  H12Y17015   2.715   5.024   7.283  0.3540 -0.1203  0.0906
  143DOPC  C31317016   2.698   4.883   7.119 -0.1893  0.5794 -0.2905
  143DOPC  H13X17017   2.760   4.842   7.037 -0.7966  1.3022 -1.1209
  143DOPC  H13Y17018   2.662   4.790   7.168 -0.4346  1.7077  1.7921
  143DOPC  C31417019   2.584   4.951   7.051  0.9051 -0.5306  0.5971
  143DOPC  H14X17020   2.503   5.000   7.108  0.9105  0.1876 -0.0088
  143DOPC  H14Y17021   2.616   5.028   6.978 -1.9615  0.1013 -0.1308
  143DOPC  C31517022   2.504   4.846   6.963 -0.2233 -0.0239 -0.1541
  143DOPC  H15X17023   2.451   4.772   7.027 -1.5668  2.7769  2.1874
  143DOPC  H15Y17024   2.578   4.788   6.904 -1.2106  0.3604 -1.8455
  143DOPC  C31617025   2.391   4.908   6.875 -0.3665  0.7761 -0.6721
  143DOPC  H16X17026   2.304   4.948   6.932 -2.0295 -0.3694 -2.2833
  143DOPC  H16Y17027   2.445   4.986   6.818 -1.5083  0.8044 -1.7751
  143DOPC  C31717028   2.326   4.804   6.780 -0.2828 -0.5274 -0.0752
  143DOPC  H17X17029   2.302   4.708   6.831  0.5572 -1.7468 -1.8563
  143DOPC  H17Y17030   2.228   4.846   6.747 -1.0409 -1.9417  0.3084
  143DOPC  C31817031   2.405   4.780   6.654  0.7041  0.7144  0.3748
  143DOPC  H18X17032   2.510   4.753   6.679  0.2897  2.1857  4.5286
  143DOPC  H18Y17033   2.363   4.688   6.609  0.8869 -0.4577  2.4503
  143DOPC  H18Z17034   2.407   4.865   6.582 -0.0068  0.0806 -0.4073
  144DOPC     N17035   2.381   3.729   8.905 -0.4166 -0.7694 -0.1468
  144DOPC   C1217036   2.417   3.685   8.766  0.2299  0.8906 -0.4194
  144DOPC  H12A17037   2.441   3.580   8.777 -1.4298  0.7405  3.3945
  144DOPC  H12B17038   2.510   3.726   8.730  0.5996  0.4700  0.0298
  144DOPC   C1317039   2.410   3.877   8.906  0.8393 -0.2383 -0.8370
  144DOPC  H13A17040   2.359   3.935   8.830  3.8426  2.5456 -0.9490
  144DOPC  H13B17041   2.388   3.909   9.007  0.1156 -2.4846 -0.2353
  144DOPC  H13C17042   2.515   3.898   8.891  0.3799  1.0467 -2.7494
  144DOPC   C1417043   2.483   3.660   8.998  0.4925 -0.8291  0.1892
  144DOPC  H14A17044   2.457   3.555   8.999 -1.0335 -0.4974 -1.1756
  144DOPC  H14B17045   2.585   3.680   8.972  1.8934 -2.2693  3.8444
  144DOPC  H14C17046   2.472   3.705   9.096  0.6398 -0.7807  0.1828
  144DOPC   C1517047   2.243   3.695   8.942 -0.5572  0.2786  0.4230
  144DOPC  H15A17048   2.225   3.708   9.048 -1.7087 -0.8399  0.3804
  144DOPC  H15B17049   2.227   3.590   8.923 -1.4817  0.6328 -0.9389
  144DOPC  H15C17050   2.173   3.752   8.882 -0.3461  0.7787  0.6418
  144DOPC   C1117051   2.315   3.695   8.654  0.3066  0.4244 -0.5530
  144DOPC  H11A17052   2.359   3.637   8.570  0.3032  2.3045 -1.9400
  144DOPC  H11B17053   2.226   3.635   8.682 -0.5817  1.9817  0.0928
  144DOPC     P17054   2.143   3.894   8.609  0.0564  0.2583 -0.2126
  144DOPC   O1317055   2.143   4.012   8.694  0.2375  0.4194 -0.1932
  144DOPC   O1417056   2.049   3.789   8.648  0.3883 -0.8470 -0.1835
  144DOPC   O1217057   2.287   3.829   8.611  0.3645 -0.5120 -0.1645
  144DOPC   O1117058   2.114   3.927   8.460  0.2495  0.0613  0.0001
  144DOPC    C117059   2.212   3.930   8.352 -0.0282 -0.2022  0.4525
  144DOPC    HA17060   2.152   3.919   8.259 -0.0656 -0.0207  0.4553
  144DOPC    HB17061   2.297   3.861   8.370 -1.1467 -1.5739  0.6806
  144DOPC    C217062   2.281   4.073   8.353  0.0968 -0.1717  0.2323
  144DOPC    HS17063   2.316   4.102   8.454  1.2697 -0.5195 -0.0675
  144DOPC   O2117064   2.175   4.169   8.301  0.1952  0.2384  0.0769
  144DOPC   C2117065   2.190   4.294   8.329  0.5902  0.5881 -0.6023
  144DOPC   O2217066   2.285   4.346   8.385  0.1588  0.4969 -0.4417
  144DOPC   C2217067   2.065   4.375   8.289  0.3788 -0.3041 -0.3541
  144DOPC   H2R17068   2.098   4.481   8.285  0.8116 -0.4723 -2.0408
  144DOPC   H2S17069   1.986   4.364   8.366  0.4659  1.0200 -0.0576
  144DOPC    C317070   2.408   4.073   8.253  0.0291  0.3483  0.2525
  144DOPC    HX17071   2.498   4.021   8.293  1.5496 -0.0891 -3.3587
  144DOPC    HY17072   2.440   4.179   8.250 -0.4158  0.5323  1.4870
  144DOPC   O3117073   2.363   4.023   8.124 -0.0599  0.1993 -0.0294
  144DOPC   C3117074   2.462   4.028   8.032 -0.4730 -0.1123  0.3012
  144DOPC   O3217075   2.572   4.070   8.059  0.5584  0.3180 -0.1558
  144DOPC   C3217076   2.422   3.957   7.901  0.2728 -0.8460 -0.2010
  144DOPC   H2X17077   2.408   3.851   7.928 -0.7425 -0.2422  1.7849
  144DOPC   H2Y17078   2.319   3.991   7.878  0.7749 -0.2704 -1.7921
  144DOPC   C2317079   2.012   4.320   8.151 -0.1200  0.0992 -0.1788
  144DOPC   H3R17080   1.917   4.374   8.130  0.1098  0.0009 -1.6175
  144DOPC   H3S17081   1.980   4.214   8.158  0.2951 -0.0593 -0.5808
  144DOPC   C2417082   2.121   4.335   8.046  0.0482  0.2531  0.0228
  144DOPC   H4R17083   2.194   4.255   8.069 -0.4010 -0.5608 -1.2823
  144DOPC   H4S17084   2.178   4.430   8.049  1.3838 -0.4643 -1.3719
  144DOPC   C2517085   2.065   4.302   7.903  0.3958 -0.0875 -0.3590
  144DOPC   H5R17086   1.967   4.354   7.894  0.0793 -0.9710 -2.6075
  144DOPC   H5S17087   2.047   4.193   7.893  1.2751 -0.3281  0.5896
  144DOPC   C2617088   2.156   4.370   7.795  0.9439 -0.1043 -1.0321
  144DOPC   H6R17089   2.259   4.331   7.809  1.7434  1.9660 -0.8725
  144DOPC   H6S17090   2.149   4.478   7.822  1.3362 -0.4303  0.4762
  144DOPC   C2717091   2.120   4.353   7.650 -0.0066 -0.1460 -0.2908
  144DOPC   H7R17092   2.206   4.388   7.588  0.2904  0.6265  0.5342
  144DOPC   H7S17093   2.038   4.421   7.618  1.7621  1.6976 -1.2127
  144DOPC   C2817094   2.065   4.212   7.613 -0.3300  0.1146  0.2052
  144DOPC   H8R17095   2.021   4.221   7.512 -1.2130  0.2543  0.5931
  144DOPC   H8S17096   1.974   4.192   7.673 -1.2501  1.5331 -0.6421
  144DOPC   C2917097   2.181   4.113   7.605 -0.0032  0.3035 -0.3579
  144DOPC   H9R17098   2.247   4.107   7.693  0.7309 -1.7546 -1.0086
  144DOPC  C21017099   2.211   4.037   7.496 -0.1433  0.0890 -0.1989
  144DOPC  H10R17100   2.290   3.962   7.483 -0.6366 -0.6883  1.1003
  144DOPC  C21117101   2.136   4.043   7.362 -0.1354 -0.6822 -0.6850
  144DOPC  H11R17102   2.144   4.143   7.313  0.0474 -1.8428 -3.1679
  144DOPC  H11S17103   2.026   4.031   7.372 -0.5154  2.4414  0.1787
  144DOPC  C21217104   2.189   3.947   7.256  0.5889  0.2640  0.4959
  144DOPC  H12R17105   2.118   3.939   7.172  2.3530 -2.7463 -0.8741
  144DOPC  H12S17106   2.200   3.840   7.282 -0.4192  0.2515  0.9123
  144DOPC  C21317107   2.317   3.991   7.197 -0.1898 -0.5215 -0.1548
  144DOPC  H13R17108   2.388   4.009   7.282 -0.7194 -1.0753  0.4097
  144DOPC  H13S17109   2.299   4.084   7.139 -2.2781 -1.4974 -1.1508
  144DOPC  C21417110   2.381   3.893   7.108 -0.9403 -0.6996  0.2943
  144DOPC  H14R17111   2.308   3.882   7.024 -1.8324 -2.0621  1.2051
  144DOPC  H14S17112   2.399   3.793   7.152 -2.1421 -0.2675  1.8218
  144DOPC  C21517113   2.514   3.948   7.037  0.4326  0.3620  0.0978
  144DOPC  H15R17114   2.593   3.953   7.115  0.9524  1.7035 -0.4869
  144DOPC  H15S17115   2.487   4.049   6.998 -0.2177 -0.4631 -1.6808
  144DOPC  C21617116   2.565   3.860   6.927 -0.1826  0.1922  0.0763
  144DOPC  H16R17117   2.483   3.854   6.853  0.0766  1.2386 -0.3119
  144DOPC  H16S17118   2.584   3.762   6.976  1.8817  1.2151  1.5058
  144DOPC  C21717119   2.686   3.906   6.852 -0.7067 -0.0227 -0.3957
  144DOPC  H17R17120   2.712   3.826   6.779  0.7006 -0.0912  0.1594
  144DOPC  H17S17121   2.765   3.916   6.929 -1.0012  2.3052 -0.3087
  144DOPC  C21817122   2.676   4.043   6.786 -0.4956  0.2813 -0.3066
  144DOPC  H18R17123   2.773   4.076   6.743  1.8131 -3.0752  1.8216
  144DOPC  H18S17124   2.641   4.128   6.848 -1.0842 -0.9311  1.0810
  144DOPC  H18T17125   2.606   4.036   6.700  1.0279  0.9081 -1.6624
  144DOPC   C3317126   2.501   3.980   7.767  0.2628 -0.2766  0.1915
  144DOPC   H3X17127   2.499   4.089   7.746  0.5570 -0.2038  0.5295
  144DOPC   H3Y17128   2.447   3.947   7.676  1.2401  2.8235 -1.6909
  144DOPC   C3417129   2.651   3.940   7.765 -0.0748 -0.2793 -0.4117
  144DOPC   H4X17130   2.676   3.831   7.769  0.2333 -0.1647  1.5270
  144DOPC   H4Y17131   2.703   3.981   7.854 -0.4972  1.7839 -1.0684
  144DOPC   C3517132   2.724   4.011   7.651 -0.2277  0.0310  0.4868
  144DOPC   H5X17133   2.829   4.040   7.676 -0.6107  0.7276  1.3284
  144DOPC   H5Y17134   2.683   4.113   7.636 -1.1198 -0.5628 -1.5410
  144DOPC   C3617135   2.735   3.922   7.534  0.1878  0.5231 -0.4530
  144DOPC   H6X17136   2.786   3.829   7.567  0.2045  0.2652 -1.1891
  144DOPC   H6Y17137   2.634   3.881   7.515  1.2470 -2.5592 -0.1101
  144DOPC   C3717138   2.804   3.995   7.416  0.5229 -0.0558  0.4085
  144DOPC   H7X17139   2.760   4.094   7.393  0.8848 -0.0077 -0.0910
  144DOPC   H7Y17140   2.906   4.029   7.444  1.3414 -1.7373 -0.3731
  144DOPC   C3817141   2.808   3.899   7.294 -0.6296 -0.1975 -0.2427
  144DOPC   H8X17142   2.703   3.880   7.262 -0.0668 -3.1312 -0.6044
  144DOPC   H8Y17143   2.847   3.799   7.321 -0.4235  0.6646  3.0587
  144DOPC   C3917144   2.889   3.962   7.179 -0.4344  0.6678 -0.3357
  144DOPC   H9X17145   2.830   4.025   7.111 -1.3657 -0.1958 -0.3608
  144DOPC  C31017146   3.019   3.944   7.161  0.0879 -0.3830 -0.0781
  144DOPC  H10X17147   3.063   3.982   7.068 -1.5184  0.2519 -0.6077
  144DOPC  C31117148   3.104   3.850   7.246  0.0404  0.8243  0.4003
  144DOPC  H11X17149   3.068   3.750   7.212 -2.0235  1.5617  0.2648
  144DOPC  H11Y17150   3.079   3.860   7.354 -0.3048  1.6872  0.2442
  144DOPC  C31217151   3.253   3.861   7.233  0.2370  0.2162 -0.3398
  144DOPC  H12X17152   3.287   3.879   7.128  4.1949  3.7531  1.2568
  144DOPC  H12Y17153   3.290   3.760   7.263 -3.1309 -2.3581 -3.8561
  144DOPC  C31317154   3.304   3.966   7.324 -0.4291  0.6375  0.5251
  144DOPC  H13X17155   3.400   3.998   7.278 -0.4224 -0.4406 -0.2561
  144DOPC  H13Y17156   3.230   4.049   7.328 -1.8218 -0.5441  0.1572
  144DOPC  C31417157   3.335   3.911   7.466  0.3438  0.0107 -0.5323
  144DOPC  H14X17158   3.243   3.852   7.487  0.3443 -0.8699 -2.7276
  144DOPC  H14Y17159   3.416   3.835   7.466 -0.0332 -0.3990 -0.7012
  144DOPC  C31517160   3.364   4.023   7.572 -0.2987 -0.5670  0.2873
  144DOPC  H15X17161   3.274   4.088   7.581  0.1555  0.4663 -2.0772
  144DOPC  H15Y17162   3.427   4.105   7.531 -0.7163  0.4468  1.5798
  144DOPC  C31617163   3.417   3.970   7.706  0.0169 -0.0767  0.5999
  144DOPC  H16X17164   3.345   3.894   7.743  2.0400 -1.9544  0.8670
  144DOPC  H16Y17165   3.507   3.920   7.665 -2.1436 -0.9953 -3.7295
  144DOPC  C31717166   3.445   4.070   7.817 -0.0555  0.0807 -0.0894
  144DOPC  H17X17167   3.502   4.009   7.890  0.5898  0.5507 -0.1925
  144DOPC  H17Y17168   3.514   4.149   7.780 -0.1337  0.4958  0.6236
  144DOPC  C31817169   3.317   4.124   7.883 -0.3389  0.0379  0.4644
  144DOPC  H18X17170   3.267   4.028   7.909  0.0580 -0.0920  0.7586
  144DOPC  H18Y17171   3.337   4.186   7.973 -1.4182 -0.9319  1.4144
  144DOPC  H18Z17172   3.257   4.183   7.810 -1.9082 -1.6871  0.2726
  145DOPC     N17173   3.099   5.532   9.074  0.0452  0.2496 -0.0339
  145DOPC   C1217174   3.140   5.474   8.944  0.3275  0.6420  0.0540
  145DOPC  H12A17175   3.061   5.489   8.872 -0.6141 -0.7061  0.7675
  145DOPC  H12B17176   3.141   5.368   8.960 -1.0916  0.3149 -1.7105
  145DOPC   C1317177   3.212   5.543   9.175  0.5066  0.6990 -0.9547
  145DOPC  H13A17178   3.292   5.606   9.141  1.1360  0.1567 -0.4983
  145DOPC  H13B17179   3.179   5.580   9.271 -2.6214 -0.2545 -1.5398
  145DOPC  H13C17180   3.257   5.447   9.197 -0.1146  0.2181 -1.6929
  145DOPC   C1417181   3.007   5.440   9.141 -0.6911 -0.3950 -0.0856
  145DOPC  H14A17182   2.932   5.412   9.069 -1.3483 -0.5554  0.6454
  145DOPC  H14B17183   3.063   5.357   9.181 -0.5471 -1.1499 -1.7627
  145DOPC  H14C17184   2.961   5.498   9.220  0.2826 -0.3951  0.4886
  145DOPC   C1517185   3.028   5.660   9.055  0.4157  0.3302 -0.3549
  145DOPC  H15A17186   3.097   5.724   9.002  1.6157 -1.1151 -0.6188
  145DOPC  H15B17187   3.023   5.695   9.157 -0.7649 -0.4718 -0.1205
  145DOPC  H15C17188   2.927   5.663   9.016  0.3923  2.0191 -0.1975
  145DOPC   C1117189   3.275   5.514   8.873 -0.3673  0.2182 -0.1004
  145DOPC  H11A17190   3.345   5.468   8.946 -2.5248 -0.7108  1.4898
  145DOPC  H11B17191   3.292   5.460   8.777 -0.4398 -1.2246  0.6681
  145DOPC     P17192   3.210   5.724   8.759 -0.1976  0.3111  0.0957
  145DOPC   O1317193   3.155   5.844   8.825 -0.4725  0.5387 -0.7710
  145DOPC   O1417194   3.111   5.645   8.686 -0.5494  0.4854 -0.7699
  145DOPC   O1217195   3.295   5.648   8.862 -0.1142 -0.3550  0.4313
  145DOPC   O1117196   3.325   5.763   8.663 -0.0725  0.2494 -0.1692
  145DOPC    C117197   3.454   5.823   8.687  0.2653 -0.3338 -0.3186
  145DOPC    HA17198   3.530   5.777   8.621 -0.4726 -0.4301 -1.1111
  145DOPC    HB17199   3.478   5.815   8.796 -2.4165  2.1273  0.5836
  145DOPC    C217200   3.455   5.967   8.650 -1.0375 -0.5070  0.3892
  145DOPC    HS17201   3.371   6.020   8.700 -0.4033 -0.0448  0.9702
  145DOPC   O2117202   3.451   5.991   8.509  0.0069 -0.2660  0.4716
  145DOPC   C2117203   3.333   6.003   8.451 -0.8878  0.3551 -0.1882
  145DOPC   O2217204   3.225   5.987   8.509  0.0055  0.2694  0.6952
  145DOPC   C2217205   3.360   6.054   8.311 -0.2175 -0.1344 -0.6085
  145DOPC   H2R17206   3.441   5.994   8.265  0.2839 -0.1801  0.3287
  145DOPC   H2S17207   3.383   6.163   8.315 -1.0790  0.1511 -2.3091
  145DOPC    C317208   3.594   6.022   8.701  0.1451 -0.4025  0.0069
  145DOPC    HX17209   3.629   5.980   8.798  0.1915  3.1466  1.6698
  145DOPC    HY17210   3.587   6.130   8.727 -1.1669 -0.4464 -0.0751
  145DOPC   O3117211   3.704   6.003   8.610  0.2306  0.1814 -0.1333
  145DOPC   C3117212   3.727   6.089   8.514  1.2145 -0.3119 -0.5325
  145DOPC   O3217213   3.671   6.194   8.495 -0.1051  0.6227  0.6692
  145DOPC   C3217214   3.848   6.056   8.430 -0.2977 -0.7313 -0.3631
  145DOPC   H2X17215   3.926   6.126   8.466 -0.5569 -0.7338  0.2113
  145DOPC   H2Y17216   3.880   5.950   8.436 -1.2166 -0.9348  1.4909
  145DOPC   C2317217   3.237   6.023   8.207 -0.2184  0.2803  0.1663
  145DOPC   H3R17218   3.155   6.098   8.215 -0.2481  0.1954  0.7075
  145DOPC   H3S17219   3.195   5.924   8.234 -0.4668 -0.2086 -1.8708
  145DOPC   C2417220   3.288   6.014   8.062 -0.3353  0.2125 -0.4635
  145DOPC   H4R17221   3.205   5.982   7.995  0.2836  1.5288 -1.9110
  145DOPC   H4S17222   3.371   5.941   8.055 -0.3717  0.3194 -2.2701
  145DOPC   C2517223   3.343   6.146   8.005  0.2634  0.2402 -0.7787
  145DOPC   H5R17224   3.427   6.173   8.073  0.3817 -2.3353  0.2043
  145DOPC   H5S17225   3.273   6.232   8.002 -1.2663 -0.9541 -0.4662
  145DOPC   C2617226   3.401   6.140   7.860 -1.0188 -0.2654 -0.7310
  145DOPC   H6R17227   3.313   6.160   7.796 -1.2063 -2.5210 -1.2766
  145DOPC   H6S17228   3.445   6.038   7.849  0.7405 -0.0661  2.8383
  145DOPC   C2717229   3.509   6.250   7.832  0.5552  0.4603  0.0897
  145DOPC   H7R17230   3.608   6.227   7.877  0.1090 -1.2509  0.2695
  145DOPC   H7S17231   3.471   6.345   7.876 -0.9141  0.1013 -0.3590
  145DOPC   C2817232   3.519   6.280   7.682  0.5337 -0.2457 -0.4009
  145DOPC   H8R17233   3.579   6.373   7.669 -0.0287  0.4388  1.4852
  145DOPC   H8S17234   3.420   6.314   7.645  1.6847  0.5428 -2.9639
  145DOPC   C2917235   3.569   6.167   7.606 -0.2323  1.2105  0.0372
  145DOPC   H9R17236   3.678   6.151   7.604 -0.6094 -1.9700 -0.4044
  145DOPC  C21017237   3.503   6.068   7.541  0.0204 -0.8600 -0.3280
  145DOPC  H10R17238   3.560   5.999   7.477  0.6045 -1.3781  0.7226
  145DOPC  C21117239   3.358   6.071   7.525  0.0559  0.7506  0.4745
  145DOPC  H11R17240   3.313   6.161   7.572  1.9282  2.2820 -0.5459
  145DOPC  H11S17241   3.304   5.986   7.572 -0.4368  1.3241  0.9586
  145DOPC  C21217242   3.310   6.059   7.380  0.7689  0.0838 -0.0270
  145DOPC  H12R17243   3.353   6.141   7.319  0.0914  0.3945 -0.0982
  145DOPC  H12S17244   3.200   6.075   7.379  0.9389  1.4600  0.9646
  145DOPC  C21317245   3.329   5.921   7.323  0.0507  0.5034 -0.1854
  145DOPC  H13R17246   3.298   5.847   7.399  1.6413  1.5107  1.5173
  145DOPC  H13S17247   3.438   5.897   7.329 -0.0111  0.5679  1.4351
  145DOPC  C21417248   3.268   5.897   7.186  0.7446  0.2111 -0.0818
  145DOPC  H14R17249   3.299   5.954   7.095  0.4100  0.0950 -0.2739
  145DOPC  H14S17250   3.158   5.907   7.199  0.7123 -0.0857 -0.1199
  145DOPC  C21517251   3.296   5.746   7.153  0.3858 -0.2582 -0.4991
  145DOPC  H15R17252   3.268   5.688   7.244  0.8116 -1.3268 -1.0247
  145DOPC  H15S17253   3.405   5.733   7.137  0.3269 -5.1421  1.2494
  145DOPC  C21617254   3.229   5.696   7.030  0.5006  0.6212  0.4882
  145DOPC  H16R17255   3.264   5.756   6.944 -0.2124 -1.0066 -1.0145
  145DOPC  H16S17256   3.118   5.700   7.027  0.3767 -1.8680 -1.2466
  145DOPC  C21717257   3.259   5.552   6.993 -0.2295 -0.5403  0.0202
  145DOPC  H17R17258   3.240   5.492   7.084 -0.0004  0.1130  0.5090
  145DOPC  H17S17259   3.367   5.538   6.967 -0.1248  1.4630 -0.8620
  145DOPC  C21817260   3.170   5.505   6.877  0.6785 -0.2858 -0.6996
  145DOPC  H18R17261   3.182   5.591   6.807  2.1797  0.1066 -0.0107
  145DOPC  H18S17262   3.065   5.504   6.912  0.6730  1.1805 -0.6005
  145DOPC  H18T17263   3.197   5.406   6.835  0.2696 -0.1212 -1.3609
  145DOPC   C3317264   3.834   6.100   8.282  0.2265  0.0554  0.5745
  145DOPC   H3X17265   3.938   6.081   8.246 -0.2046 -3.1193  0.7308
  145DOPC   H3Y17266   3.810   6.208   8.278  0.3135  0.0574 -0.0944
  145DOPC   C3417267   3.740   6.018   8.199  0.6639 -0.1724 -0.1393
  145DOPC   H4X17268   3.643   6.068   8.220  0.1719 -0.1099 -2.3210
  145DOPC   H4Y17269   3.750   5.909   8.217  2.1054  0.0035  0.2347
  145DOPC   C3517270   3.758   6.050   8.048 -0.5220 -0.6433 -0.0868
  145DOPC   H5X17271   3.757   6.161   8.034 -1.2884 -0.5374  0.7438
  145DOPC   H5Y17272   3.666   6.006   8.003 -1.4953 -1.3289  2.4127
  145DOPC   C3617273   3.890   6.000   7.986 -0.1252 -0.1841  0.1716
  145DOPC   H6X17274   3.971   6.045   8.048 -0.2337 -1.5729  1.4016
  145DOPC   H6Y17275   3.902   5.892   8.009  0.1326 -0.1505  0.2062
  145DOPC   C3717276   3.911   6.024   7.845 -0.4459 -0.0568 -0.0258
  145DOPC   H7X17277   3.825   5.991   7.784 -2.4669  0.2558  2.4656
  145DOPC   H7Y17278   3.925   6.134   7.834  2.0559 -0.3907 -0.7893
  145DOPC   C3817279   4.034   5.944   7.789  0.1196  0.1964 -0.2973
  145DOPC   H8X17280   4.025   5.839   7.822  1.4426  0.2404  0.2701
  145DOPC   H8Y17281   4.134   5.981   7.823  2.2226 -3.1338 -2.3232
  145DOPC   C3917282   4.040   5.952   7.637  0.3409 -0.2113  0.3123
  145DOPC   H9X17283   3.978   6.029   7.587 -0.5385 -0.3909  1.1014
  145DOPC  C31017284   4.115   5.866   7.560  0.0727  0.4423  0.2792
  145DOPC  H10X17285   4.115   5.874   7.450  0.6361  0.1621  0.2521
  145DOPC  C31117286   4.198   5.754   7.608 -0.3013 -0.2872 -0.3623
  145DOPC  H11X17287   4.214   5.761   7.718 -0.1579 -2.2906 -0.2233
  145DOPC  H11Y17288   4.299   5.761   7.562 -0.1349 -1.4847 -0.2304
  145DOPC  C31217289   4.137   5.613   7.577  0.2313  0.0504 -0.1395
  145DOPC  H12X17290   4.031   5.618   7.609  0.6251  2.5834  1.0339
  145DOPC  H12Y17291   4.176   5.540   7.651 -0.5329  0.8806  1.1334
  145DOPC  C31317292   4.161   5.573   7.437  0.2080  0.7936 -0.0764
  145DOPC  H13X17293   4.099   5.634   7.368 -0.3727  0.5820  0.2466
  145DOPC  H13Y17294   4.271   5.579   7.421  0.1470 -1.7670 -2.0571
  145DOPC  C31417295   4.111   5.433   7.407 -0.5288 -0.5240  0.1467
  145DOPC  H14X17296   4.200   5.370   7.427 -1.8467 -2.3097  0.6301
  145DOPC  H14Y17297   4.037   5.395   7.480  0.1794 -0.0496  1.1268
  145DOPC  C31517298   4.065   5.423   7.260 -0.3486  0.4032  0.6857
  145DOPC  H15X17299   4.144   5.454   7.189  1.6132 -0.3551  2.4296
  145DOPC  H15Y17300   3.981   5.495   7.249 -0.8971 -0.4722 -1.3489
  145DOPC  C31617301   4.019   5.286   7.213 -0.5633  0.6523 -0.1192
  145DOPC  H16X17302   4.114   5.230   7.204 -0.7870  0.5792 -3.3970
  145DOPC  H16Y17303   3.969   5.234   7.298  0.4231 -0.6118 -0.2891
  145DOPC  C31717304   3.940   5.275   7.091 -0.4435  0.3932  0.8964
  145DOPC  H17X17305   3.836   5.313   7.098 -0.6955 -0.3205  1.1108
  145DOPC  H17Y17306   3.997   5.328   7.011  2.5748 -0.9863  1.9764
  145DOPC  C31817307   3.907   5.128   7.048 -0.8930 -0.9937 -0.3626
  145DOPC  H18X17308   4.006   5.079   7.034 -0.4917 -0.4688  0.5711
  145DOPC  H18Y17309   3.863   5.069   7.132 -0.0407 -3.1721 -1.3588
  145DOPC  H18Z17310   3.843   5.117   6.958 -0.8451 -2.8720 -0.2239
  146DOPC     N17311   4.444   3.586   8.576  0.0329  0.4099 -0.4773
  146DOPC   C1217312   4.377   3.516   8.463  0.8562 -0.1465  0.1623
  146DOPC  H12A17313   4.365   3.583   8.379  0.8328  0.9313  1.0184
  146DOPC  H12B17314   4.279   3.489   8.499 -0.1374  3.2476  0.3150
  146DOPC   C1317315   4.409   3.729   8.596 -0.2951  0.6799 -1.0027
  146DOPC  H13A17316   4.390   3.790   8.509 -1.3721 -0.8078 -1.8585
  146DOPC  H13B17317   4.313   3.739   8.643  0.5939  0.4236  0.9897
  146DOPC  H13C17318   4.494   3.774   8.646  0.4573  0.4538 -2.0456
  146DOPC   C1417319   4.593   3.573   8.547  0.6597  0.6597  0.5477
  146DOPC  H14A17320   4.611   3.468   8.534 -0.0348  0.8291 -2.5365
  146DOPC  H14B17321   4.617   3.624   8.454 -0.7041  1.1324  0.4359
  146DOPC  H14C17322   4.660   3.609   8.624  0.2500 -0.2600  1.3481
  146DOPC   C1517323   4.411   3.519   8.711 -0.4025  0.2896 -0.1953
  146DOPC  H15A17324   4.474   3.550   8.793 -1.3321 -1.1775  1.1245
  146DOPC  H15B17325   4.426   3.415   8.686 -3.1405 -0.2957  0.2823
  146DOPC  H15C17326   4.305   3.531   8.730 -0.6183  1.7595 -1.9283
  146DOPC   C1117327   4.434   3.386   8.417 -0.6094 -0.4711  0.0002
  146DOPC  H11A17328   4.366   3.346   8.338  1.2924 -0.8053 -1.5335
  146DOPC  H11B17329   4.529   3.409   8.364  0.2776 -0.8551  1.3668
  146DOPC     P17330   4.573   3.192   8.505  0.2877  0.1760 -0.1356
  146DOPC   O1317331   4.555   3.070   8.594  0.8722 -0.0229 -0.1733
  146DOPC   O1417332   4.703   3.263   8.517  0.1803  0.0918 -0.4146
  146DOPC   O1217333   4.461   3.293   8.526  0.5011  0.1682  0.2458
  146DOPC   O1117334   4.541   3.155   8.357 -0.0524  0.1197 -0.9390
  146DOPC    C117335   4.645   3.109   8.270  0.1344 -0.4342  0.4361
  146DOPC    HA17336   4.677   3.004   8.287 -0.6843 -0.8250 -0.3983
  146DOPC    HB17337   4.731   3.179   8.284  0.6167 -1.3332  2.3882
  146DOPC    C217338   4.608   3.137   8.121  0.4194  0.1325 -0.3858
  146DOPC    HS17339   4.534   3.061   8.088  1.6675 -1.1979 -0.2378
  146DOPC   O2117340   4.719   3.124   8.027 -0.0068  0.2919  0.0338
  146DOPC   C2117341   4.764   3.002   8.010 -0.1523  0.2037 -0.9431
  146DOPC   O2217342   4.705   2.900   8.041  0.0705 -0.2917  0.1543
  146DOPC   C2217343   4.907   3.014   7.969  0.2588 -0.0562  0.1379
  146DOPC   H2R17344   4.952   2.913   7.964  1.9401  0.5756  1.5366
  146DOPC   H2S17345   4.956   3.076   8.047 -1.6781  1.2546  0.3644
  146DOPC    C317346   4.543   3.279   8.102 -0.0418 -0.5287 -0.1813
  146DOPC    HX17347   4.613   3.357   8.140 -0.0335  0.0764 -1.4155
  146DOPC    HY17348   4.450   3.283   8.163 -0.0450  0.6619 -0.2408
  146DOPC   O3117349   4.508   3.296   7.965  0.3490  0.5055 -0.2189
  146DOPC   C3117350   4.604   3.343   7.892 -0.2357 -0.8928  0.6257
  146DOPC   O3217351   4.710   3.387   7.930 -0.6888  0.1235  0.1855
  146DOPC   C3217352   4.573   3.306   7.743  0.6421 -0.1383 -0.6172
  146DOPC   H2X17353   4.611   3.203   7.728  0.4644 -0.5990  1.6098
  146DOPC   H2Y17354   4.462   3.309   7.737  0.5609  1.2608  0.6479
  146DOPC   C2317355   4.921   3.089   7.833  0.6225 -0.4417 -0.4948
  146DOPC   H3R17356   4.870   3.187   7.843  1.0094 -0.4312  1.9352
  146DOPC   H3S17357   4.874   3.031   7.751 -1.5285 -0.1449  0.4544
  146DOPC   C2417358   5.060   3.136   7.793 -0.1326 -0.0161  0.2901
  146DOPC   H4R17359   5.098   3.192   7.881 -0.4334  1.3708 -0.4365
  146DOPC   H4S17360   5.057   3.210   7.710  0.4345  1.6872  1.7404
  146DOPC   C2517361   5.157   3.021   7.760  0.4491 -0.2729 -0.0707
  146DOPC   H5R17362   5.232   3.056   7.685  0.2699  0.9048  0.2727
  146DOPC   H5S17363   5.106   2.932   7.717  2.3650 -1.1070 -0.7520
  146DOPC   C2617364   5.248   2.977   7.880  0.1482 -0.1061  0.7383
  146DOPC   H6R17365   5.187   2.937   7.964  0.8210 -0.3956  1.0911
  146DOPC   H6S17366   5.320   3.050   7.924 -0.0597 -0.8624  2.4201
  146DOPC   C2717367   5.339   2.856   7.844  0.0114  0.0990  0.2380
  146DOPC   H7R17368   5.407   2.890   7.763  1.0879  2.1625  1.8999
  146DOPC   H7S17369   5.271   2.776   7.808  0.3708  0.5973 -1.6740
  146DOPC   C2817370   5.415   2.805   7.963 -0.5374  0.0522 -0.4115
  146DOPC   H8R17371   5.461   2.706   7.943  1.9875  0.4026  2.7880
  146DOPC   H8S17372   5.337   2.776   8.036 -0.7234  0.2089 -0.5447
  146DOPC   C2917373   5.504   2.909   8.017 -0.0733 -0.3509  0.4179
  146DOPC   H9R17374   5.456   2.972   8.093  1.8497  0.8720  0.6720
  146DOPC  C21017375   5.641   2.909   8.016  0.1037  0.2790  0.8188
  146DOPC  H10R17376   5.704   2.970   8.082  2.6100 -1.0285 -0.2097
  146DOPC  C21117377   5.720   2.809   7.938  0.9262 -0.0008  0.3244
  146DOPC  H11R17378   5.812   2.860   7.902 -0.0575  0.6450 -1.4150
  146DOPC  H11S17379   5.662   2.792   7.845 -1.0308  1.9262  1.1199
  146DOPC  C21217380   5.761   2.679   8.005 -0.2117 -0.7334 -0.8139
  146DOPC  H12R17381   5.671   2.619   8.028  1.0281 -1.4851  2.7348
  146DOPC  H12S17382   5.811   2.705   8.101 -3.1119 -0.2253  0.6507
  146DOPC  C21317383   5.861   2.604   7.919 -0.4472 -0.1587 -0.0889
  146DOPC  H13R17384   5.907   2.525   7.981 -0.3919 -0.5394 -0.6065
  146DOPC  H13S17385   5.939   2.680   7.897 -0.0148 -0.6603 -0.3109
  146DOPC  C21417386   5.806   2.556   7.782 -0.3158 -0.4329 -0.5368
  146DOPC  H14R17387   5.766   2.649   7.736  1.5510  1.4277  1.3332
  146DOPC  H14S17388   5.726   2.479   7.789 -0.0830 -0.5820  0.6829
  146DOPC  C21517389   5.910   2.500   7.687  0.6047  0.2601  0.1821
  146DOPC  H15R17390   5.966   2.414   7.730 -0.0648 -0.5222 -0.4828
  146DOPC  H15S17391   5.989   2.572   7.659 -0.7036  1.7495  0.1943
  146DOPC  C21617392   5.846   2.469   7.552 -0.0844 -0.0534 -0.5282
  146DOPC  H16R17393   5.803   2.564   7.513 -0.7846  0.4817  1.4669
  146DOPC  H16S17394   5.768   2.398   7.588  0.5663  0.8197  2.9689
  146DOPC  C21717395   5.948   2.401   7.461  0.3409  0.5894  0.3927
  146DOPC  H17R17396   5.964   2.297   7.497  1.3359  0.4068 -0.5113
  146DOPC  H17S17397   6.043   2.459   7.471  0.1636  1.4481 -2.1100
  146DOPC  C21817398   5.924   2.383   7.313 -0.0673  0.0073 -0.1609
  146DOPC  H18R17399   5.838   2.315   7.293 -0.7127  0.5461  0.7191
  146DOPC  H18S17400   6.017   2.355   7.260  0.5867  2.5181 -0.4377
  146DOPC  H18T17401   5.891   2.481   7.272  0.8989  0.7382  0.7581
  146DOPC   C3317402   4.620   3.398   7.628  0.4154  0.6384 -0.2092
  146DOPC   H3X17403   4.584   3.502   7.644 -0.6741  0.2004  0.3210
  146DOPC   H3Y17404   4.572   3.367   7.532  2.4629 -1.6667 -0.6071
  146DOPC   C3417405   4.767   3.375   7.596  0.2916  0.1507  0.0583
  146DOPC   H4X17406   4.780   3.266   7.586 -2.2080 -0.0946 -1.3089
  146DOPC   H4Y17407   4.827   3.385   7.689 -0.8424  2.3207  0.6379
  146DOPC   C3517408   4.811   3.463   7.478  0.2153  1.1218 -0.1935
  146DOPC   H5X17409   4.795   3.571   7.501  1.7146  1.0759  1.2853
  146DOPC   H5Y17410   4.741   3.440   7.396 -1.6045 -0.2483  1.6432
  146DOPC   C3617411   4.962   3.453   7.449 -0.7976  0.3092 -0.2168
  146DOPC   H6X17412   5.019   3.471   7.542  1.0501  0.6369 -1.3739
  146DOPC   H6Y17413   4.995   3.354   7.411  0.1059  0.0604  1.1408
  146DOPC   C3717414   4.997   3.557   7.350  0.8492 -0.1397 -0.4742
  146DOPC   H7X17415   4.983   3.511   7.250  2.1733 -0.5391 -0.4906
  146DOPC   H7Y17416   4.935   3.647   7.370 -0.7513 -1.0951 -0.9030
  146DOPC   C3817417   5.149   3.583   7.356  0.6769 -0.2096 -0.2980
  146DOPC   H8X17418   5.186   3.593   7.460 -0.2761 -1.6495  0.2243
  146DOPC   H8Y17419   5.175   3.677   7.303 -0.8929  1.4473  1.6703
  146DOPC   C3917420   5.231   3.465   7.301  0.4690  0.2529 -0.7985
  146DOPC   H9X17421   5.279   3.401   7.377  3.2939  2.2785 -0.7430
  146DOPC  C31017422   5.255   3.433   7.172  0.1285 -0.4556 -0.6421
  146DOPC  H10X17423   5.313   3.342   7.151  1.0059 -0.2599  0.8013
  146DOPC  C31117424   5.213   3.522   7.060  0.3145  0.4214 -0.3518
  146DOPC  H11X17425   5.300   3.576   7.018  1.0773  0.9609  1.7997
  146DOPC  H11Y17426   5.133   3.590   7.097 -0.0419 -1.3142  2.3451
  146DOPC  C31217427   5.151   3.446   6.943 -0.0613 -0.0334  0.0356
  146DOPC  H12X17428   5.085   3.363   6.978 -0.5605  0.1754 -0.3860
  146DOPC  H12Y17429   5.233   3.402   6.883  0.7528 -0.2487  1.2792
  146DOPC  C31317430   5.070   3.528   6.842  0.0781 -0.5049 -0.2072
  146DOPC  H13X17431   4.998   3.590   6.900  2.6767  0.9052  1.7381
  146DOPC  H13Y17432   5.150   3.585   6.791  1.9948 -1.6653  1.3515
  146DOPC  C31417433   5.009   3.435   6.740  0.4544  0.7198 -0.6651
  146DOPC  H14X17434   5.082   3.353   6.723  0.0312  0.2222 -0.1270
  146DOPC  H14Y17435   4.926   3.374   6.782  2.1840 -1.4009 -0.1342
  146DOPC  C31517436   4.980   3.488   6.599 -0.4032  0.3084 -0.6132
  146DOPC  H15X17437   5.068   3.541   6.557 -0.8961  1.3558 -0.3679
  146DOPC  H15Y17438   4.901   3.566   6.610 -2.5168 -1.7191 -0.5153
  146DOPC  C31617439   4.952   3.377   6.495 -0.0108 -0.6354  0.1384
  146DOPC  H16X17440   4.972   3.423   6.395 -0.0896 -1.6418 -0.3488
  146DOPC  H16Y17441   5.031   3.300   6.508 -0.3711 -0.8114  1.3368
  146DOPC  C31717442   4.815   3.315   6.501  0.6656 -0.1101 -0.3315
  146DOPC  H17X17443   4.780   3.298   6.605 -1.4142  1.0681 -0.7777
  146DOPC  H17Y17444   4.737   3.383   6.460 -0.1502 -1.3169 -0.8208
  146DOPC  C31817445   4.818   3.182   6.423 -0.1306 -0.7302  0.0381
  146DOPC  H18X17446   4.716   3.140   6.406 -0.2936 -0.5369  0.5086
  146DOPC  H18Y17447   4.855   3.200   6.320 -0.9166 -0.2861 -0.1736
  146DOPC  H18Z17448   4.885   3.111   6.475 -0.0082 -0.7581 -0.1569
  147DOPC     N17449   0.323   4.901   9.322 -0.0246  0.0985 -0.2812
  147DOPC   C1217450   0.175   4.945   9.342  0.0855  0.4210  0.3077
  147DOPC  H12A17451   0.182   5.053   9.351  1.9953  0.2346  1.5302
  147DOPC  H12B17452   0.135   4.911   9.436  0.4019  0.5354  0.4843
  147DOPC   C1317453   0.321   4.755   9.292  0.8200 -0.3022 -0.3718
  147DOPC  H13A17454   0.231   4.736   9.235 -0.8121  2.5194  1.0503
  147DOPC  H13B17455   0.414   4.731   9.242  2.7965 -1.8592  3.5904
  147DOPC  H13C17456   0.310   4.694   9.380 -3.8064 -0.9552 -1.1553
  147DOPC   C1417457   0.401   4.930   9.446 -0.2096  0.1365 -0.3978
  147DOPC  H14A17458   0.360   4.895   9.539 -1.2300 -1.9611 -1.5786
  147DOPC  H14B17459   0.495   4.878   9.437  0.2691  0.1975  3.0423
  147DOPC  H14C17460   0.411   5.038   9.451  0.4356  0.0894 -0.5203
  147DOPC   C1517461   0.380   4.990   9.215  0.9478  0.0263  0.5144
  147DOPC  H15A17462   0.307   5.001   9.136  0.9933  0.9388  0.5941
  147DOPC  H15B17463   0.477   4.967   9.173  0.1927 -0.1090 -1.2537
  147DOPC  H15C17464   0.391   5.090   9.253  1.8332 -0.3233  1.2124
  147DOPC   C1117465   0.076   4.907   9.226  0.1147 -0.1483 -0.2390
  147DOPC  H11A17466   0.043   4.801   9.222  0.0787 -0.1404 -0.1422
  147DOPC  H11B17467  -0.019   4.960   9.249  0.7679  0.7667  0.3488
  147DOPC     P17468   0.037   5.019   8.987 -0.3307 -0.0409 -0.1535
  147DOPC   O1317469  -0.030   5.138   9.050  0.3153  0.1217 -0.2026
  147DOPC   O1417470  -0.047   4.921   8.917 -0.3837  0.5711  0.4855
  147DOPC   O1217471   0.127   4.944   9.096 -0.1924  0.4550  0.1748
  147DOPC   O1117472   0.155   5.059   8.893 -0.8288  0.2475 -0.8774
  147DOPC    C117473   0.278   4.986   8.865 -0.3226 -1.0730  0.0587
  147DOPC    HA17474   0.295   4.885   8.908  1.4397 -0.7645  0.1723
  147DOPC    HB17475   0.358   5.050   8.908 -0.9380 -0.7962  0.8209
  147DOPC    C217476   0.297   4.967   8.713  0.2138 -0.3956  0.1197
  147DOPC    HS17477   0.401   4.934   8.695  0.5050  1.1540 -1.3130
  147DOPC   O2117478   0.248   5.084   8.638 -0.4382  0.3667 -0.4406
  147DOPC   C2117479   0.336   5.181   8.626 -0.4799 -0.9116  0.0506
  147DOPC   O2217480   0.446   5.179   8.675 -0.1405 -0.6360 -1.3566
  147DOPC   C2217481   0.291   5.292   8.521  0.0497  0.5357  0.5916
  147DOPC   H2R17482   0.385   5.316   8.466 -0.4764 -1.3063 -1.2488
  147DOPC   H2S17483   0.255   5.383   8.573 -0.9484 -0.1009  1.0449
  147DOPC    C317484   0.197   4.853   8.686  0.6738 -0.6736  0.0869
  147DOPC    HX17485   0.098   4.899   8.705  1.3990  1.0207 -0.1381
  147DOPC    HY17486   0.205   4.770   8.760  0.0043  0.6250  1.6556
  147DOPC   O3117487   0.193   4.802   8.543 -0.1829 -0.6403 -0.0775
  147DOPC   C3117488   0.298   4.711   8.524 -0.1006 -0.8519  0.0976
  147DOPC   O3217489   0.375   4.674   8.612  0.0287 -0.3304 -0.4366
  147DOPC   C3217490   0.302   4.668   8.378 -0.2941 -0.1344 -0.0572
  147DOPC   H2X17491   0.336   4.562   8.379  0.9974  0.2493 -0.6764
  147DOPC   H2Y17492   0.197   4.671   8.341 -0.7535 -1.9144  0.9568
  147DOPC   C2317493   0.188   5.243   8.419 -0.7866 -0.2430 -0.5667
  147DOPC   H3R17494   0.157   5.330   8.358  2.9655  0.5599 -1.5604
  147DOPC   H3S17495   0.103   5.193   8.471  0.4194 -1.5311  0.2465
  147DOPC   C2417496   0.242   5.132   8.318 -0.4026  0.3021 -0.3376
  147DOPC   H4R17497   0.146   5.086   8.284 -1.4280  1.4301  0.8930
  147DOPC   H4S17498   0.291   5.046   8.368 -0.4733 -0.5890 -1.7525
  147DOPC   C2517499   0.334   5.183   8.195 -0.2068  0.2912 -0.2267
  147DOPC   H5R17500   0.282   5.258   8.131  1.3293  1.0153 -0.6696
  147DOPC   H5S17501   0.366   5.103   8.125  1.1321  0.4343  0.1890
  147DOPC   C2617502   0.466   5.251   8.245 -0.4045  0.2429  0.8698
  147DOPC   H6R17503   0.509   5.206   8.337 -2.2407  0.5820  1.9454
  147DOPC   H6S17504   0.435   5.354   8.273 -2.1732  0.0210 -0.1035
  147DOPC   C2717505   0.556   5.275   8.125  0.4078  0.0351  0.0860
  147DOPC   H7R17506   0.646   5.335   8.151  1.4614 -0.9791 -1.0873
  147DOPC   H7S17507   0.503   5.318   8.036  2.0313  1.8504 -0.0703
  147DOPC   C2817508   0.624   5.144   8.066  0.4861 -0.7846  0.4591
  147DOPC   H8R17509   0.670   5.177   7.971 -2.1169  1.4149 -0.1487
  147DOPC   H8S17510   0.544   5.077   8.028  0.2196 -1.5561  2.2666
  147DOPC   C2917511   0.710   5.081   8.170 -0.2314  0.1580  0.2705
  147DOPC   H9R17512   0.654   5.038   8.254  0.0233  0.2695  0.4995
  147DOPC  C21017513   0.845   5.081   8.176 -0.1758 -0.7509  0.4778
  147DOPC  H10R17514   0.897   5.039   8.264  1.5253 -2.7163 -1.3584
  147DOPC  C21117515   0.936   5.134   8.079 -0.2093  0.2703  0.2463
  147DOPC  H11R17516   1.015   5.191   8.131 -0.7663 -0.3271  1.7995
  147DOPC  H11S17517   0.883   5.211   8.019 -1.9424  0.0460  1.4152
  147DOPC  C21217518   0.996   5.024   7.998  0.0438 -0.9089  0.4464
  147DOPC  H12R17519   1.039   4.940   8.056 -1.1778 -2.0370 -0.2290
  147DOPC  H12S17520   1.091   5.064   7.958 -0.3109  0.4084  0.8650
  147DOPC  C21317521   0.904   4.973   7.884 -0.4026  0.7439  0.3356
  147DOPC  H13R17522   0.848   5.048   7.825 -1.4375 -0.7465 -0.6262
  147DOPC  H13S17523   0.827   4.902   7.920  0.5020 -1.5127 -1.8380
  147DOPC  C21417524   0.987   4.901   7.766  0.2452 -0.1389  0.1547
  147DOPC  H14R17525   1.064   4.967   7.721  0.9328  0.0553  1.5600
  147DOPC  H14S17526   0.922   4.874   7.680  1.6761  1.1320 -1.3918
  147DOPC  C21517527   1.064   4.780   7.820 -0.0256  0.2251  0.2567
  147DOPC  H15R17528   0.997   4.698   7.851 -0.6184 -0.1617 -1.8562
  147DOPC  H15S17529   1.129   4.812   7.904  1.3420  0.2766 -0.7847
  147DOPC  C21617530   1.158   4.733   7.709 -0.1986  0.3331 -1.0103
  147DOPC  H16R17531   1.248   4.799   7.701  0.7713 -1.0049 -1.5393
  147DOPC  H16S17532   1.103   4.727   7.613  0.6430 -0.0192 -1.4841
  147DOPC  C21717533   1.202   4.590   7.738 -0.5898  0.3361 -0.1627
  147DOPC  H17R17534   1.114   4.526   7.762 -1.2515  0.8147 -1.2112
  147DOPC  H17S17535   1.278   4.601   7.819 -0.7448  0.9854 -0.0985
  147DOPC  C21817536   1.267   4.520   7.617  0.5412  0.0100 -0.8764
  147DOPC  H18R17537   1.197   4.510   7.531 -0.1138 -1.1454 -0.2412
  147DOPC  H18S17538   1.309   4.417   7.631 -0.1756 -0.0938  0.7639
  147DOPC  H18T17539   1.357   4.575   7.582  1.8176 -0.7027  1.0888
  147DOPC   C3317540   0.404   4.739   8.293 -0.1292 -0.3282 -0.4114
  147DOPC   H3X17541   0.501   4.750   8.346 -0.8109 -0.4014  0.8890
  147DOPC   H3Y17542   0.383   4.845   8.264  2.6878  0.1976 -0.8285
  147DOPC   C3417543   0.422   4.660   8.170 -0.8257 -0.0582  0.0254
  147DOPC   H4X17544   0.333   4.654   8.104  0.8519 -1.3908 -2.2495
  147DOPC   H4Y17545   0.445   4.556   8.201 -1.5450 -0.0736  0.5247
  147DOPC   C3517546   0.533   4.711   8.072 -0.0705 -1.0645  0.3769
  147DOPC   H5X17547   0.623   4.726   8.134 -0.6598 -0.6757  1.1620
  147DOPC   H5Y17548   0.510   4.811   8.032 -2.0867 -1.7975 -0.4268
  147DOPC   C3617549   0.559   4.610   7.965 -0.5197 -0.1085  0.5326
  147DOPC   H6X17550   0.589   4.513   8.011 -0.2224 -0.7909 -1.0022
  147DOPC   H6Y17551   0.460   4.595   7.916  0.3664 -0.2691 -1.3100
  147DOPC   C3717552   0.668   4.645   7.858 -0.0386  0.2906  0.2706
  147DOPC   H7X17553   0.646   4.742   7.810  1.5625  0.0389 -1.0560
  147DOPC   H7Y17554   0.765   4.658   7.910 -1.3266  0.8045  2.7029
  147DOPC   C3817555   0.688   4.539   7.748  0.4338 -0.3136  1.0658
  147DOPC   H8X17556   0.586   4.523   7.707  0.4763  0.2114  0.7493
  147DOPC   H8Y17557   0.717   4.442   7.793  1.8494 -0.5517 -0.2710
  147DOPC   C3917558   0.778   4.587   7.638  0.4055  0.4036  0.3964
  147DOPC   H9X17559   0.859   4.651   7.674  0.8188 -0.1879  0.5346
  147DOPC  C31017560   0.769   4.575   7.509  0.2369 -0.4612  0.6431
  147DOPC  H10X17561   0.856   4.585   7.443 -0.1707 -2.2091 -0.2520
  147DOPC  C31117562   0.653   4.499   7.443  0.4216 -1.2910 -1.3301
  147DOPC  H11X17563   0.555   4.551   7.453  0.7513 -0.9793  0.7869
  147DOPC  H11Y17564   0.635   4.404   7.498 -1.5456 -1.0788 -1.5247
  147DOPC  C31217565   0.686   4.456   7.302  0.6452 -0.3392 -1.1055
  147DOPC  H12X17566   0.770   4.384   7.296 -0.0710 -1.2182 -0.8266
  147DOPC  H12Y17567   0.717   4.542   7.239  1.1242  1.0157  0.9046
  147DOPC  C31317568   0.573   4.381   7.241  0.4954 -0.2438  0.0695
  147DOPC  H13X17569   0.553   4.283   7.290 -3.1169  0.7580  0.9219
  147DOPC  H13Y17570   0.483   4.447   7.245  0.0370 -0.7959 -0.8589
  147DOPC  C31417571   0.603   4.349   7.095 -0.1291 -0.6010  0.1731
  147DOPC  H14X17572   0.611   4.441   7.034 -1.8067 -0.5516 -0.0257
  147DOPC  H14Y17573   0.702   4.299   7.103 -0.0940 -0.5437  0.0953
  147DOPC  C31517574   0.500   4.263   7.025 -0.2024  0.4674  0.3174
  147DOPC  H15X17575   0.394   4.297   7.031 -0.7022 -0.7359 -1.0850
  147DOPC  H15Y17576   0.490   4.162   7.070  0.5473 -0.7679 -2.1351
  147DOPC  C31617577   0.522   4.241   6.879 -0.0969  0.0956  0.0441
  147DOPC  H16X17578   0.450   4.170   6.834 -1.8002  1.0398  1.1651
  147DOPC  H16Y17579   0.492   4.339   6.834 -1.1846 -1.1740 -2.1739
  147DOPC  C31717580   0.666   4.184   6.842  0.4554 -0.1861 -0.8369
  147DOPC  H17X17581   0.670   4.155   6.734 -1.5093 -2.9070 -0.2979
  147DOPC  H17Y17582   0.741   4.265   6.855  0.7824 -0.3476 -1.6498
  147DOPC  C31817583   0.701   4.053   6.913  0.4525  0.1059  0.1704
  147DOPC  H18X17584   0.805   4.020   6.893 -0.6027 -2.7485 -1.1418
  147DOPC  H18Y17585   0.687   4.058   7.023 -3.0814  0.7055 -0.1868
  147DOPC  H18Z17586   0.634   3.971   6.879 -3.1511  3.1084 -0.7284
  148DOPC     N17587   1.492   6.388   9.081 -0.7857 -0.2050  0.5889
  148DOPC   C1217588   1.568   6.347   8.950  0.0416 -0.7955  0.3133
  148DOPC  H12A17589   1.522   6.403   8.870  0.5401  1.2370  1.3893
  148DOPC  H12B17590   1.556   6.242   8.925  3.7969 -1.8866  2.2338
  148DOPC   C1317591   1.515   6.533   9.117 -0.0592 -0.1380  0.6824
  148DOPC  H13A17592   1.618   6.562   9.129  0.5326 -0.0678 -3.2715
  148DOPC  H13B17593   1.489   6.601   9.037  0.2949  0.9214  1.4512
  148DOPC  H13C17594   1.456   6.551   9.206  0.1099 -0.4539  0.8602
  148DOPC   C1417595   1.538   6.298   9.191  0.0229  0.1282  0.4730
  148DOPC  H14A17596   1.637   6.329   9.222 -0.5888  0.6480  2.0050
  148DOPC  H14B17597   1.478   6.311   9.280 -2.2951 -2.7858 -0.5073
  148DOPC  H14C17598   1.549   6.197   9.155  0.3380  0.1309  0.5572
  148DOPC   C1517599   1.348   6.370   9.062 -0.1442 -0.5236  0.0771
  148DOPC  H15A17600   1.317   6.445   8.991  3.1687  0.2518 -0.7253
  148DOPC  H15B17601   1.302   6.372   9.159 -0.5472  2.8743 -0.0689
  148DOPC  H15C17602   1.338   6.271   9.018  0.1117 -0.3182 -0.4644
  148DOPC   C1117603   1.714   6.377   8.941 -0.5922 -0.1697  0.3594
  148DOPC  H11A17604   1.766   6.315   9.018 -1.6961 -0.5255  0.8393
  148DOPC  H11B17605   1.764   6.344   8.848  0.7128  0.5990  0.7599
  148DOPC     P17606   1.896   6.568   8.957 -0.0058 -0.0515  0.0679
  148DOPC   O1317607   1.969   6.513   9.073 -0.4858 -0.0333 -0.3008
  148DOPC   O1417608   1.888   6.716   8.959  0.4106  0.2990 -0.2478
  148DOPC   O1217609   1.745   6.517   8.957  0.0736  0.2244  0.3928
  148DOPC   O1117610   1.952   6.517   8.815 -0.0638  0.6049 -0.6871
  148DOPC    C117611   1.875   6.543   8.696 -0.4478 -0.1993  0.3243
  148DOPC    HA17612   1.874   6.653   8.683 -1.6410 -0.1625  0.6124
  148DOPC    HB17613   1.767   6.519   8.709 -0.9918  0.2810 -2.5243
  148DOPC    C217614   1.924   6.471   8.569 -0.3308 -0.6259 -0.0718
  148DOPC    HS17615   1.837   6.449   8.504  0.3237  0.5926 -1.4197
  148DOPC   O2117616   1.995   6.358   8.613 -0.0574  0.3956  0.3005
  148DOPC   C2117617   1.925   6.251   8.639  0.1137 -0.3781  0.3455
  148DOPC   O2217618   1.805   6.236   8.615  0.1820  0.0790  0.0571
  148DOPC   C2217619   2.016   6.140   8.689 -0.3249  0.5512 -0.2680
  148DOPC   H2R17620   1.968   6.098   8.781 -0.1773  0.4277 -0.2470
  148DOPC   H2S17621   2.114   6.179   8.723  1.1907 -1.6285 -1.8562
  148DOPC    C317622   2.014   6.556   8.475  0.3106  0.1578  0.2859
  148DOPC    HX17623   2.110   6.564   8.531  0.0901 -1.4524  0.9581
  148DOPC    HY17624   1.970   6.658   8.471 -0.0898  0.0272  1.1157
  148DOPC   O3117625   2.030   6.490   8.348 -0.1207 -0.3083 -0.4762
  148DOPC   C3117626   1.938   6.518   8.263 -0.3061 -0.1970  0.8424
  148DOPC   O3217627   1.846   6.598   8.276 -0.2849 -0.0757 -0.1152
  148DOPC   C3217628   1.966   6.444   8.136  0.1084  0.2664  0.3018
  148DOPC   H2X17629   2.070   6.444   8.096 -0.0924  1.8880 -0.2992
  148DOPC   H2Y17630   1.942   6.339   8.163  0.8320 -0.1241 -0.5097
  148DOPC   C2317631   2.051   6.033   8.585  0.1442 -0.0383  0.0696
  148DOPC   H3R17632   1.960   5.983   8.545  0.6774  0.3688 -1.7488
  148DOPC   H3S17633   2.122   5.959   8.630  2.7838  0.5687 -2.7319
  148DOPC   C2417634   2.124   6.086   8.463  0.2386 -0.4201 -0.0475
  148DOPC   H4R17635   2.206   6.151   8.499 -1.8836  2.5370 -0.1820
  148DOPC   H4S17636   2.068   6.151   8.392 -2.3544 -2.3784  0.0425
  148DOPC   C2517637   2.186   5.969   8.376  0.0940 -0.2425 -0.7341
  148DOPC   H5R17638   2.254   5.913   8.444 -0.8032  0.9220  1.2096
  148DOPC   H5S17639   2.252   6.015   8.299  1.0744  2.2131  1.4499
  148DOPC   C2617640   2.077   5.877   8.313  0.2099  0.5675 -0.4412
  148DOPC   H6R17641   1.994   5.937   8.270 -1.0486 -0.4365  0.4971
  148DOPC   H6S17642   2.028   5.828   8.400 -0.5452  0.2093 -1.0542
  148DOPC   C2717643   2.127   5.775   8.213 -0.0894 -0.1429  0.3777
  148DOPC   H7R17644   2.198   5.718   8.275 -0.7766  0.9619  2.2651
  148DOPC   H7S17645   2.181   5.825   8.130 -1.9034  0.9248 -0.2232
  148DOPC   C2817646   2.033   5.677   8.142  1.0703 -0.5393  0.3353
  148DOPC   H8R17647   1.986   5.721   8.051  0.4427  0.6331  1.1915
  148DOPC   H8S17648   1.939   5.660   8.200  0.8173 -0.9089 -0.1776
  148DOPC   C2917649   2.089   5.540   8.109 -0.1363 -0.0486 -0.2148
  148DOPC   H9R17650   2.079   5.467   8.191  0.4438  0.1231  0.0192
  148DOPC  C21017651   2.160   5.512   8.004 -0.3884 -0.2728 -0.8328
  148DOPC  H10R17652   2.210   5.414   8.000 -1.6025 -0.8840 -1.4119
  148DOPC  C21117653   2.208   5.604   7.897  1.0331  0.1349  0.2579
  148DOPC  H11R17654   2.316   5.592   7.879  0.8784 -1.4675  0.2548
  148DOPC  H11S17655   2.193   5.711   7.923 -0.8205  0.5565 -2.1052
  148DOPC  C21217656   2.149   5.576   7.759 -0.4613  0.0454 -0.1159
  148DOPC  H12R17657   2.038   5.584   7.770 -0.7720  1.1499 -3.0279
  148DOPC  H12S17658   2.180   5.475   7.725  0.2184  0.5512 -1.0511
  148DOPC  C21317659   2.189   5.689   7.654  0.0737  0.3227 -0.2503
  148DOPC  H13R17660   2.296   5.711   7.633 -0.1675  1.3522 -0.4235
  148DOPC  H13S17661   2.147   5.789   7.680  0.1487  0.2731  0.0675
  148DOPC  C21417662   2.126   5.663   7.516 -0.4600 -0.0515 -0.2965
  148DOPC  H14R17663   2.016   5.652   7.524 -0.7708  2.3499 -0.3711
  148DOPC  H14S17664   2.160   5.569   7.469 -1.0833  0.8507 -2.7209
  148DOPC  C21517665   2.165   5.779   7.424 -0.7440  0.5091  0.0444
  148DOPC  H15R17666   2.262   5.748   7.380 -0.4549 -1.2961  1.8127
  148DOPC  H15S17667   2.179   5.865   7.493  0.7735  1.0090 -0.8151
  148DOPC  C21617668   2.053   5.808   7.328 -0.0067 -0.0509 -0.6483
  148DOPC  H16R17669   1.968   5.852   7.385  0.9981  1.3090 -0.1508
  148DOPC  H16S17670   2.005   5.724   7.273 -0.2094  1.2939 -2.6499
  148DOPC  C21717671   2.096   5.916   7.229 -0.3014 -0.2046 -0.0356
  148DOPC  H17R17672   2.141   6.005   7.278  0.8611 -0.5060 -0.5200
  148DOPC  H17S17673   2.008   5.957   7.175 -0.0687  0.1508 -0.1527
  148DOPC  C21817674   2.188   5.850   7.124 -0.1080 -0.4667 -0.3206
  148DOPC  H18R17675   2.129   5.769   7.077 -1.1161  0.6834 -1.1127
  148DOPC  H18S17676   2.276   5.803   7.172  0.9830 -1.4467 -3.0804
  148DOPC  H18T17677   2.218   5.928   7.050  1.6684  0.7990  1.6297
  148DOPC   C3317678   1.882   6.492   8.015 -0.0034  0.3016 -0.8964
  148DOPC   H3X17679   1.885   6.603   8.013 -2.1747  0.4183  0.0320
  148DOPC   H3Y17680   1.781   6.458   8.045 -0.4497  1.6655 -0.8191
  148DOPC   C3417681   1.910   6.435   7.878 -0.0233  0.4857 -0.3347
  148DOPC   H4X17682   1.820   6.463   7.819  0.4433  0.1491 -1.2250
  148DOPC   H4Y17683   1.919   6.324   7.879  1.9038  0.5104 -3.1068
  148DOPC   C3517684   2.027   6.497   7.801 -1.5638 -0.0792 -0.1560
  148DOPC   H5X17685   2.125   6.458   7.837 -1.5045 -0.8126 -1.0612
  148DOPC   H5Y17686   2.045   6.606   7.813  0.1829 -0.4239  0.7468
  148DOPC   C3617687   2.020   6.461   7.648  0.7528  0.3730 -0.1723
  148DOPC   H6X17688   1.944   6.524   7.596  1.6567  1.7620  0.1616
  148DOPC   H6Y17689   2.120   6.483   7.604  0.4926  1.6181 -0.1802
  148DOPC   C3717690   1.993   6.308   7.635 -0.4189  0.3342  0.4238
  148DOPC   H7X17691   2.053   6.246   7.704  0.5762 -0.3980 -1.0488
  148DOPC   H7Y17692   1.884   6.288   7.645 -0.3183 -0.4929 -0.0339
  148DOPC   C3817693   2.035   6.247   7.497  0.2526 -0.2138 -0.2945
  148DOPC   H8X17694   1.965   6.297   7.427 -1.6689 -0.2424  1.5107
  148DOPC   H8Y17695   2.000   6.141   7.499  0.2346 -0.2009  0.4420
  148DOPC   C3917696   2.175   6.269   7.453 -1.0600 -1.1547 -0.4497
  148DOPC   H9X17697   2.255   6.222   7.513  0.2050  1.7561  0.3588
  148DOPC  C31017698   2.218   6.340   7.343 -0.0861 -1.4343 -0.2724
  148DOPC  H10X17699   2.327   6.345   7.328 -0.4070  0.5184 -2.5435
  148DOPC  C31117700   2.134   6.422   7.244  0.4594  0.1066 -1.0770
  148DOPC  H11X17701   2.108   6.514   7.302  0.1645 -0.2203 -0.6763
  148DOPC  H11Y17702   2.047   6.362   7.208  1.1173 -1.4404 -0.1554
  148DOPC  C31217703   2.214   6.465   7.124  0.2370  0.0752 -0.4576
  148DOPC  H12X17704   2.249   6.371   7.076  0.2967 -0.9439  1.4841
  148DOPC  H12Y17705   2.306   6.521   7.152  1.3031 -1.6111 -0.4292
  148DOPC  C31317706   2.124   6.541   7.020  1.0769 -0.3956 -0.0751
  148DOPC  H13X17707   2.021   6.507   7.042  1.9290 -1.4224  2.6775
  148DOPC  H13Y17708   2.127   6.647   7.054 -2.4114  0.2135 -1.2201
  148DOPC  C31417709   2.165   6.504   6.880  0.4881 -1.0257 -0.2067
  148DOPC  H14X17710   2.268   6.541   6.860  0.2866  2.0975  3.5132
  148DOPC  H14Y17711   2.154   6.393   6.873  0.5084 -1.1244  1.0905
  148DOPC  C31517712   2.075   6.566   6.769 -0.6101  0.3308 -0.7539
  148DOPC  H15X17713   2.123   6.529   6.676 -0.5117 -1.0766 -0.1705
  148DOPC  H15Y17714   2.063   6.676   6.772  0.8794  0.6733 -3.7671
  148DOPC  C31617715   1.928   6.510   6.778 -0.6664 -0.4678  0.6057
  148DOPC  H16X17716   1.928   6.407   6.821  0.6856 -1.6414 -2.0018
  148DOPC  H16Y17717   1.872   6.570   6.853 -1.6837 -1.9918  1.1091
  148DOPC  C31717718   1.852   6.508   6.642 -0.5437 -0.5952  0.2128
  148DOPC  H17X17719   1.859   6.611   6.601 -1.0065 -0.8380 -0.4930
  148DOPC  H17Y17720   1.903   6.441   6.569 -1.0365  0.5234 -1.2003
  148DOPC  C31817721   1.699   6.471   6.656  0.3277  0.6940 -0.0544
  148DOPC  H18X17722   1.649   6.479   6.557  0.0928 -0.6636 -0.0636
  148DOPC  H18Y17723   1.692   6.362   6.677 -3.1925 -0.1226 -4.1264
  148DOPC  H18Z17724   1.640   6.533   6.728 -1.2493  0.9314 -1.4958
  149DOPC     N17725   1.902   3.192   9.020  0.1052  0.1261  0.6157
  149DOPC   C1217726   1.972   3.325   9.002 -0.1469  0.1495  0.1445
  149DOPC  H12A17727   1.935   3.401   9.068  1.2049  1.8245 -0.9486
  149DOPC  H12B17728   1.951   3.359   8.902  3.3511  0.0435 -0.7741
  149DOPC   C1317729   1.760   3.216   8.977 -0.0589 -0.2539  0.0651
  149DOPC  H13A17730   1.720   3.291   9.044  1.6182  1.9143 -1.2116
  149DOPC  H13B17731   1.747   3.252   8.877  1.2880  0.7381  0.2109
  149DOPC  H13C17732   1.707   3.123   8.987  1.1035 -0.8427  1.0235
  149DOPC   C1417733   1.901   3.154   9.157  0.9665 -0.3153  0.5286
  149DOPC  H14A17734   1.810   3.102   9.179  2.0408 -1.4431  2.6865
  149DOPC  H14B17735   1.983   3.089   9.186 -0.4544 -0.9945  3.4523
  149DOPC  H14C17736   1.908   3.243   9.219  0.4760  0.1937 -0.1435
  149DOPC   C1517737   1.963   3.090   8.923 -0.4597 -0.0736 -0.4669
  149DOPC  H15A17738   2.071   3.092   8.930 -0.4834  0.3075 -0.2283
  149DOPC  H15B17739   1.928   3.119   8.825 -4.5486 -2.3443  0.1006
  149DOPC  H15C17740   1.933   2.989   8.946  1.5778 -0.0819  2.7642
  149DOPC   C1117741   2.131   3.339   9.009 -0.5341  0.2517 -0.1835
  149DOPC  H11A17742   2.164   3.445   9.008  3.0253 -0.6991  1.6269
  149DOPC  H11B17743   2.164   3.316   9.112  1.4846 -0.0127 -0.8429
  149DOPC     P17744   2.200   3.321   8.770  0.4051  0.2080  0.3132
  149DOPC   O1317745   2.331   3.389   8.738 -0.2190 -0.3418 -0.0285
  149DOPC   O1417746   2.078   3.398   8.738 -1.0804 -0.2721 -0.2222
  149DOPC   O1217747   2.206   3.266   8.918  0.6134 -0.7905  0.4509
  149DOPC   O1117748   2.191   3.184   8.688  0.1914  0.2588  1.0138
  149DOPC    C117749   2.272   3.147   8.566 -0.2939 -0.5917  0.0523
  149DOPC    HA17750   2.308   3.042   8.575  1.2585  0.0546  2.7241
  149DOPC    HB17751   2.369   3.202   8.562  0.3054 -1.1984  3.1504
  149DOPC    C217752   2.190   3.168   8.436  0.2661  0.2275 -0.1768
  149DOPC    HS17753   2.253   3.126   8.354 -1.0934  0.1667 -1.2341
  149DOPC   O2117754   2.151   3.303   8.413 -0.4444 -0.2494  0.0273
  149DOPC   C2117755   2.252   3.380   8.376 -0.7272 -0.3275 -0.1988
  149DOPC   O2217756   2.373   3.351   8.384  0.8159  0.0103 -0.2684
  149DOPC   C2217757   2.204   3.506   8.330  0.0874  0.0060 -0.0562
  149DOPC   H2R17758   2.210   3.578   8.415 -0.2283  1.6257 -1.3549
  149DOPC   H2S17759   2.096   3.492   8.305 -0.0823  0.5495  0.3360
  149DOPC    C317760   2.064   3.079   8.425 -0.0982  0.5082 -0.5460
  149DOPC    HX17761   2.008   3.108   8.517 -0.9090  3.0368 -1.7454
  149DOPC    HY17762   2.080   2.970   8.420 -3.1007  0.0402 -4.1062
  149DOPC   O3117763   1.994   3.114   8.306  0.4574  0.0809  0.6652
  149DOPC   C3117764   1.863   3.080   8.313  0.4921 -0.0781  0.5273
  149DOPC   O3217765   1.810   3.033   8.415  0.3201 -0.3757  0.0580
  149DOPC   C3217766   1.793   3.118   8.184  0.0361 -0.2273  0.3030
  149DOPC   H2X17767   1.799   3.038   8.107 -1.8688  0.7306 -0.9389
  149DOPC   H2Y17768   1.684   3.129   8.201 -0.4304  1.3367 -2.9455
  149DOPC   C2317769   2.279   3.574   8.211  1.0150 -0.2512  0.5191
  149DOPC   H3R17770   2.389   3.575   8.226  1.1556 -1.1725 -0.3256
  149DOPC   H3S17771   2.255   3.683   8.213 -4.6949 -1.0153 -2.9451
  149DOPC   C2417772   2.239   3.515   8.072  0.0186  0.3653  0.0437
  149DOPC   H4R17773   2.129   3.505   8.069  0.1226 -0.8934  0.0386
  149DOPC   H4S17774   2.283   3.414   8.060 -0.6460  0.0302  0.3865
  149DOPC   C2517775   2.286   3.598   7.959 -0.0235 -0.0081  1.2410
  149DOPC   H5R17776   2.396   3.611   7.965  0.3398 -0.7047 -1.8954
  149DOPC   H5S17777   2.241   3.700   7.957  1.6527  0.7732 -0.3269
  149DOPC   C2617778   2.249   3.538   7.820  0.3678 -0.1287 -0.3125
  149DOPC   H6R17779   2.141   3.514   7.818  0.0183  0.8862  2.4529
  149DOPC   H6S17780   2.306   3.444   7.800  1.6879 -0.8120  5.1520
  149DOPC   C2717781   2.276   3.623   7.696 -0.7083 -0.5442  0.4373
  149DOPC   H7R17782   2.383   3.646   7.678 -1.2869  0.4973 -1.9810
  149DOPC   H7S17783   2.224   3.721   7.690  1.1069  0.3705 -1.9210
  149DOPC   C2817784   2.223   3.539   7.576  0.2964 -0.4052  0.1889
  149DOPC   H8R17785   2.118   3.510   7.596 -0.4734  2.4058  0.6939
  149DOPC   H8S17786   2.290   3.450   7.580 -0.6913 -1.1281  1.7154
  149DOPC   C2917787   2.231   3.622   7.452 -0.5577 -0.1650 -0.5859
  149DOPC   H9R17788   2.197   3.726   7.459  0.4626  0.1869 -0.6643
  149DOPC  C21017789   2.259   3.566   7.329 -1.0376  0.0362 -0.5087
  149DOPC  H10R17790   2.243   3.614   7.231 -0.6053 -0.6399 -0.9215
  149DOPC  C21117791   2.275   3.416   7.303  0.1269 -0.0993  0.1397
  149DOPC  H11R17792   2.289   3.357   7.397 -1.9619 -0.9192 -0.0141
  149DOPC  H11S17793   2.362   3.403   7.235 -1.2718  2.1669 -2.2482
  149DOPC  C21217794   2.145   3.357   7.245  0.1423 -0.1275  0.8757
  149DOPC  H12R17795   2.119   3.426   7.161  2.1201 -1.7523 -1.1923
  149DOPC  H12S17796   2.067   3.349   7.324 -1.4751  1.0325 -0.5195
  149DOPC  C21317797   2.165   3.216   7.190  1.3229 -0.0142 -0.0183
  149DOPC  H13R17798   2.170   3.163   7.288 -0.7197 -0.2940 -0.0185
  149DOPC  H13S17799   2.253   3.232   7.125 -0.3462  3.3740 -1.7169
  149DOPC  C21417800   2.048   3.158   7.108  0.9990 -0.0626  0.3357
  149DOPC  H14R17801   2.047   3.219   7.015 -1.8510 -0.4788 -0.0044
  149DOPC  H14S17802   1.947   3.163   7.153  0.9315  0.8615  0.0977
  149DOPC  C21517803   2.079   3.015   7.070 -0.5674  0.2168 -0.8484
  149DOPC  H15R17804   2.084   2.952   7.161 -1.5004  0.8265 -0.3569
  149DOPC  H15S17805   2.177   3.004   7.019  0.3520 -1.8014  1.1876
  149DOPC  C21617806   1.973   2.941   6.982 -0.1033  0.4802  0.3486
  149DOPC  H16R17807   1.966   2.987   6.881  0.1424  0.7135  0.4392
  149DOPC  H16S17808   1.879   2.957   7.039 -0.2918  0.8589 -0.0611
  149DOPC  C21717809   1.999   2.788   6.967 -0.1472 -0.6062 -0.8591
  149DOPC  H17R17810   1.993   2.742   7.067 -1.0040 -3.7738 -2.2516
  149DOPC  H17S17811   2.107   2.775   6.945  0.6295  1.4969  1.2866
  149DOPC  C21817812   1.907   2.707   6.873  1.1718 -1.1544  0.0491
  149DOPC  H18R17813   1.908   2.752   6.771 -0.4463 -1.5739 -0.1697
  149DOPC  H18S17814   1.805   2.716   6.915  1.9371 -0.5495  1.8702
  149DOPC  H18T17815   1.943   2.604   6.854  2.8481 -0.3469 -1.5129
  149DOPC   C3317816   1.830   3.257   8.125  0.3300 -1.5457 -0.5209
  149DOPC   H3X17817   1.874   3.323   8.202 -3.1293  0.0817  0.2756
  149DOPC   H3Y17818   1.737   3.310   8.096  0.4280 -1.2208 -0.2408
  149DOPC   C3417819   1.929   3.251   7.998  0.1629  0.7144  0.5376
  149DOPC   H4X17820   1.939   3.347   7.943  1.2936  0.4374  0.2278
  149DOPC   H4Y17821   1.877   3.189   7.922 -1.3148 -0.1708  2.2081
  149DOPC   C3517822   2.067   3.194   8.024  0.2596  0.1659 -0.0178
  149DOPC   H5X17823   2.052   3.095   8.073 -1.0221  0.5658  0.4611
  149DOPC   H5Y17824   2.112   3.256   8.105 -1.4511  1.1115  0.2542
  149DOPC   C3617825   2.152   3.189   7.892 -0.8488 -1.2311  0.1096
  149DOPC   H6X17826   2.174   3.289   7.849  0.2857 -1.1723  0.7781
  149DOPC   H6Y17827   2.247   3.134   7.910  0.2969  0.3470 -0.8441
  149DOPC   C3717828   2.090   3.108   7.778 -0.5184 -0.1805 -0.6768
  149DOPC   H7X17829   2.161   3.043   7.723 -0.1032 -0.9810  0.7569
  149DOPC   H7Y17830   2.013   3.042   7.825 -1.6824  2.0708  0.7601
  149DOPC   C3817831   2.048   3.201   7.660  0.5431 -0.1272 -0.1144
  149DOPC   H8X17832   2.135   3.259   7.625  1.7253 -1.2712  0.8415
  149DOPC   H8Y17833   1.979   3.278   7.702  1.0543  0.4711 -0.3604
  149DOPC   C3917834   1.977   3.131   7.545 -0.0115  0.5887  0.1250
  149DOPC   H9X17835   2.041   3.067   7.482 -1.5093  1.0972 -1.9988
  149DOPC  C31017836   1.849   3.151   7.499  0.0828  0.1153  0.2705
  149DOPC  H10X17837   1.820   3.084   7.417  0.5194 -0.8321  0.8625
  149DOPC  C31117838   1.743   3.224   7.567 -0.6067 -0.0405 -0.0671
  149DOPC  H11X17839   1.661   3.263   7.503  0.3587  0.5166 -1.0026
  149DOPC  H11Y17840   1.786   3.318   7.609 -3.4603  1.4710 -0.2915
  149DOPC  C31217841   1.671   3.145   7.674 -0.5349 -0.4763 -0.8034
  149DOPC  H12X17842   1.743   3.080   7.729  0.5236  2.2728  1.3148
  149DOPC  H12Y17843   1.608   3.068   7.624  0.1277 -0.1209 -2.2172
  149DOPC  C31317844   1.588   3.220   7.775  0.7865 -0.0705  0.2495
  149DOPC  H13X17845   1.652   3.300   7.817  0.1626  1.0549 -0.8752
  149DOPC  H13Y17846   1.502   3.249   7.710 -0.9110 -2.2350  1.3891
  149DOPC  C31417847   1.522   3.150   7.892  0.1328 -0.2215  0.1779
  149DOPC  H14X17848   1.460   3.065   7.855 -0.0116  0.5463 -1.4131
  149DOPC  H14Y17849   1.589   3.119   7.975  0.3615 -0.2431 -0.0161
  149DOPC  C31517850   1.422   3.246   7.952 -0.0163 -0.4916  0.4985
  149DOPC  H15X17851   1.354   3.276   7.870  0.1884  1.6954  1.0553
  149DOPC  H15Y17852   1.474   3.328   8.007 -1.1476  0.9793 -0.5376
  149DOPC  C31617853   1.340   3.173   8.061 -0.3187 -0.0666 -0.1170
  149DOPC  H16X17854   1.285   3.092   8.008 -2.4191  0.2770  1.3998
  149DOPC  H16Y17855   1.397   3.127   8.144 -0.0479  1.8813  0.8352
  149DOPC  C31717856   1.239   3.266   8.121  0.0156  0.0039 -0.2140
  149DOPC  H17X17857   1.292   3.318   8.204  0.1523  0.0181 -0.3096
  149DOPC  H17Y17858   1.207   3.339   8.044  0.4850  0.8786  0.4046
  149DOPC  C31817859   1.113   3.191   8.177  0.0927 -1.0492  0.3727
  149DOPC  H18X17860   1.067   3.124   8.101 -0.4968 -0.2018 -0.0299
  149DOPC  H18Y17861   1.142   3.133   8.268 -0.3498 -1.7706  0.0613
  149DOPC  H18Z17862   1.038   3.267   8.207  1.3699  0.2124  0.4497
  150DOPC     N17863   5.098   5.885   8.935 -0.1899  0.5975 -0.1145
  150DOPC   C1217864   5.073   5.731   8.932  0.1774 -0.4933 -0.4649
  150DOPC  H12A17865   5.081   5.682   9.028 -2.2326 -2.2793 -1.0684
  150DOPC  H12B17866   5.145   5.689   8.863 -0.6150 -0.4170 -1.3600
  150DOPC   C1317867   4.973   5.951   8.987 -0.7022  0.6206 -0.3954
  150DOPC  H13A17868   4.968   6.051   8.946  0.2528  1.4265  1.3748
  150DOPC  H13B17869   4.877   5.914   8.952 -1.2803  0.8419  0.9030
  150DOPC  H13C17870   4.972   5.966   9.094  1.8870  0.2652 -0.2592
  150DOPC   C1417871   5.126   5.937   8.799 -0.1552  0.1999 -0.1535
  150DOPC  H14A17872   5.051   5.903   8.729  0.4441  1.0533 -1.2511
  150DOPC  H14B17873   5.117   6.045   8.807 -0.8757  0.2041 -0.8527
  150DOPC  H14C17874   5.221   5.906   8.758  0.6480  0.8930  1.1167
  150DOPC   C1517875   5.216   5.918   9.025 -0.2603 -0.1995 -0.1721
  150DOPC  H15A17876   5.220   5.865   9.118  1.9452  0.7817  0.3583
  150DOPC  H15B17877   5.221   6.025   9.039 -0.0059 -0.0746 -1.1220
  150DOPC  H15C17878   5.300   5.888   8.965  0.5645 -0.1467  0.9308
  150DOPC   C1117879   4.931   5.682   8.877  0.3319 -0.1038 -0.1753
  150DOPC  H11A17880   4.930   5.571   8.876 -0.7346 -0.1055 -1.8257
  150DOPC  H11B17881   4.860   5.706   8.959  0.6330 -2.2138  0.7710
  150DOPC     P17882   4.767   5.684   8.676  0.1664  0.4388 -0.4789
  150DOPC   O1317883   4.737   5.782   8.572  0.2063 -0.1054  0.1810
  150DOPC   O1417884   4.662   5.651   8.777  0.1286 -0.5912  0.1818
  150DOPC   O1217885   4.892   5.745   8.751  0.5387 -0.4225 -0.1873
  150DOPC   O1117886   4.817   5.549   8.606 -0.2364  0.5663  0.1205
  150DOPC    C117887   4.960   5.524   8.577 -0.3306  0.2795 -0.7077
  150DOPC    HA17888   4.972   5.434   8.514 -0.4848  0.3589 -0.8515
  150DOPC    HB17889   5.014   5.501   8.672 -1.6252  0.1898  0.0319
  150DOPC    C217890   5.052   5.632   8.519  0.1044  0.4085  0.0605
  150DOPC    HS17891   5.075   5.703   8.602 -0.1806 -0.7300  1.1341
  150DOPC   O2117892   4.978   5.705   8.416 -0.3012  0.2037 -0.3253
  150DOPC   C2117893   5.009   5.819   8.373 -0.0768 -0.3135  0.0565
  150DOPC   O2217894   5.074   5.902   8.435 -0.4030 -0.0734 -0.1895
  150DOPC   C2217895   4.966   5.831   8.222  0.0175  0.1637  0.9331
  150DOPC   H2R17896   4.891   5.912   8.214 -3.4564 -2.8845  0.3642
  150DOPC   H2S17897   4.914   5.742   8.180  3.6712 -1.4158 -0.6920
  150DOPC    C317898   5.189   5.572   8.482 -0.4449 -0.2864  0.5058
  150DOPC    HX17899   5.170   5.492   8.407 -1.2896  2.7638 -2.8654
  150DOPC    HY17900   5.233   5.530   8.575  1.2347 -0.5880 -0.4055
  150DOPC   O3117901   5.272   5.671   8.421  0.3680 -0.1080  0.5115
  150DOPC   C3117902   5.332   5.757   8.494  0.4218 -0.1007 -0.3358
  150DOPC   O3217903   5.343   5.758   8.618 -0.4817  0.4870  0.2450
  150DOPC   C3217904   5.402   5.853   8.401 -0.1848 -0.6701 -0.1780
  150DOPC   H2X17905   5.327   5.903   8.337 -2.2898 -2.4328  0.8027
  150DOPC   H2Y17906   5.458   5.932   8.456  0.1556 -1.3517  0.4766
  150DOPC   C2317907   5.089   5.861   8.128  0.4649 -0.6801 -0.0704
  150DOPC   H3R17908   5.180   5.806   8.161  2.0203  2.0349  0.4511
  150DOPC   H3S17909   5.118   5.967   8.118  4.5121 -1.7477 -1.7607
  150DOPC   C2417910   5.061   5.816   7.984 -1.2333  0.2630  0.0753
  150DOPC   H4R17911   4.991   5.882   7.929 -1.4254 -0.0725 -0.0897
  150DOPC   H4S17912   5.026   5.711   7.979  1.2547 -0.7304  1.4577
  150DOPC   C2517913   5.200   5.816   7.901  0.6705  0.2206 -1.1588
  150DOPC   H5R17914   5.283   5.771   7.960  2.2521  0.7443 -2.9124
  150DOPC   H5S17915   5.226   5.921   7.877  1.8297  0.1031 -0.5039
  150DOPC   C2617916   5.180   5.767   7.758 -0.2919  0.4348  0.0189
  150DOPC   H6R17917   5.074   5.785   7.730  0.0126  4.1374  0.6520
  150DOPC   H6S17918   5.210   5.660   7.754 -0.8138  0.3313 -1.6241
  150DOPC   C2717919   5.273   5.844   7.655 -0.4283 -0.2393 -0.4846
  150DOPC   H7R17920   5.377   5.829   7.692 -0.8014 -0.8439  0.3429
  150DOPC   H7S17921   5.239   5.950   7.656 -1.2694 -0.4915  1.1347
  150DOPC   C2817922   5.261   5.777   7.515 -0.0803 -0.1704  0.0739
  150DOPC   H8R17923   5.309   5.842   7.438  0.5249 -0.4426  0.2144
  150DOPC   H8S17924   5.150   5.785   7.510 -0.3017 -2.2480  0.8327
  150DOPC   C2917925   5.301   5.635   7.508  0.2356  0.1506  0.8369
  150DOPC   H9R17926   5.407   5.624   7.537  0.5651 -1.3137 -0.7743
  150DOPC  C21017927   5.221   5.526   7.491  0.5498  0.1903 -0.4608
  150DOPC  H10R17928   5.265   5.426   7.480  0.1909 -0.1609  1.0558
  150DOPC  C21117929   5.070   5.516   7.487 -0.5244  0.3984  0.0932
  150DOPC  H11R17930   5.036   5.601   7.551  1.8752  0.6434  1.1458
  150DOPC  H11S17931   5.044   5.421   7.538 -0.4482  0.7067  0.7261
  150DOPC  C21217932   5.007   5.519   7.343 -0.8458  0.3714  0.7896
  150DOPC  H12R17933   5.057   5.593   7.277 -2.0158  0.4664 -0.0231
  150DOPC  H12S17934   4.901   5.548   7.356 -1.6652 -2.1789  0.2840
  150DOPC  C21317935   5.011   5.387   7.267 -0.0408  0.0328  0.1273
  150DOPC  H13R17936   4.969   5.313   7.338 -1.1025  1.1521  0.7074
  150DOPC  H13S17937   5.119   5.372   7.245 -0.2038  1.2930 -1.6867
  150DOPC  C21417938   4.938   5.388   7.136 -0.0615 -0.5232  0.3230
  150DOPC  H14R17939   4.956   5.486   7.087  2.9715 -0.1172  1.9818
  150DOPC  H14S17940   4.829   5.386   7.159 -0.1371  1.3905  0.2848
  150DOPC  C21517941   4.976   5.277   7.046 -0.7239  0.1127 -0.1721
  150DOPC  H15R17942   4.963   5.175   7.089  1.5898 -0.0859  0.1817
  150DOPC  H15S17943   5.083   5.293   7.020 -0.8183 -1.1939 -1.4799
  150DOPC  C21617944   4.904   5.260   6.905 -0.6068 -0.1316  0.1049
  150DOPC  H16R17945   4.918   5.359   6.856  2.7695 -0.5081  0.0409
  150DOPC  H16S17946   4.803   5.220   6.926 -0.8905 -0.0610 -1.0695
  150DOPC  C21717947   4.981   5.158   6.815  0.0782  0.2652 -0.8479
  150DOPC  H17R17948   4.956   5.058   6.856  1.3242  0.4949  0.5801
  150DOPC  H17S17949   5.090   5.174   6.829 -0.1512  1.6206 -0.4511
  150DOPC  C21817950   4.948   5.179   6.665 -0.4818 -1.1155 -0.3446
  150DOPC  H18R17951   5.013   5.110   6.606 -1.8170 -2.0776 -0.7354
  150DOPC  H18S17952   4.985   5.280   6.636  0.5043 -1.0172  1.1538
  150DOPC  H18T17953   4.843   5.173   6.629  0.2881  1.8908 -3.7015
  150DOPC   C3317954   5.509   5.786   8.313  0.1254 -0.2850 -0.5763
  150DOPC   H3X17955   5.459   5.711   8.249  0.2172 -0.5139 -0.3781
  150DOPC   H3Y17956   5.581   5.730   8.376 -0.6550  1.5521  2.1306
  150DOPC   C3417957   5.580   5.879   8.215 -0.6147 -0.5390 -0.0279
  150DOPC   H4X17958   5.662   5.820   8.169 -1.2195 -0.2566 -1.5375
  150DOPC   H4Y17959   5.629   5.965   8.266 -1.9286 -1.0881  2.2736
  150DOPC   C3517960   5.487   5.918   8.096  0.0518 -0.3705  0.5666
  150DOPC   H5X17961   5.410   5.986   8.138  1.8204  0.4850  2.6281
  150DOPC   H5Y17962   5.466   5.822   8.044  3.3608 -1.2832  0.6631
  150DOPC   C3617963   5.568   6.011   8.005 -0.4718  0.4004 -0.1593
  150DOPC   H6X17964   5.490   6.067   7.948 -0.4151  0.7522  0.1082
  150DOPC   H6Y17965   5.630   6.083   8.062  1.2906 -1.6510  0.6582
  150DOPC   C3717966   5.651   5.941   7.896 -0.2658  0.3602 -0.3636
  150DOPC   H7X17967   5.740   5.883   7.929  0.2201  1.4674  0.3017
  150DOPC   H7Y17968   5.582   5.869   7.847  1.4801 -1.4500 -0.2620
  150DOPC   C3817969   5.693   6.037   7.785 -0.6343 -0.0975  0.0976
  150DOPC   H8X17970   5.615   6.112   7.762  1.1478  1.8164  0.0056
  150DOPC   H8Y17971   5.711   5.991   7.685  3.7674  0.6566  0.3160
  150DOPC   C3917972   5.824   6.107   7.821  0.9047 -0.4122 -0.1036
  150DOPC   H9X17973   5.913   6.044   7.837  0.9599  0.0321  1.5759
  150DOPC  C31017974   5.836   6.235   7.866  0.5158  0.8865  0.0002
  150DOPC  H10X17975   5.937   6.277   7.874  0.5844  0.4482  1.9604
  150DOPC  C31117976   5.724   6.335   7.868 -0.6598 -0.6186 -0.4799
  150DOPC  H11X17977   5.725   6.398   7.960 -0.0521  0.4232 -1.1738
  150DOPC  H11Y17978   5.632   6.275   7.876  0.2264 -2.3082 -2.1782
  150DOPC  C31217979   5.732   6.435   7.750  0.1636 -0.2529  0.3807
  150DOPC  H12X17980   5.838   6.463   7.730 -0.2910  1.2037 -0.0901
  150DOPC  H12Y17981   5.669   6.523   7.776  0.7170  0.0482  0.7513
  150DOPC  C31317982   5.682   6.383   7.615  0.0621  0.4173 -0.0919
  150DOPC  H13X17983   5.757   6.310   7.579  1.6503  1.7287  0.4466
  150DOPC  H13Y17984   5.584   6.333   7.631 -0.3259  1.2403  0.1635
  150DOPC  C31417985   5.660   6.506   7.519 -0.3782 -0.6028 -0.7456
  150DOPC  H14X17986   5.581   6.571   7.562  0.0134  2.0123 -3.6665
  150DOPC  H14Y17987   5.753   6.566   7.506  0.4883 -1.9769 -1.1370
  150DOPC  C31517988   5.629   6.461   7.379 -0.1404  0.1691 -0.0163
  150DOPC  H15X17989   5.532   6.406   7.380 -1.6677  2.6788  2.1487
  150DOPC  H15Y17990   5.716   6.397   7.351  0.6912  1.3079 -0.0744
  150DOPC  C31617991   5.621   6.586   7.287 -0.9912  0.2197  0.0553
  150DOPC  H16X17992   5.706   6.655   7.308 -0.2156 -0.4509 -0.8302
  150DOPC  H16Y17993   5.642   6.567   7.180  1.5317  1.6285  0.2170
  150DOPC  C31717994   5.496   6.672   7.308 -0.4474  0.1646 -0.5502
  150DOPC  H17X17995   5.399   6.618   7.308 -1.5082  1.9927 -0.2380
  150DOPC  H17Y17996   5.495   6.704   7.415  1.2410  1.4228 -0.8585
  150DOPC  C31817997   5.496   6.786   7.209  0.3253 -0.3116 -0.6135
  150DOPC  H18X17998   5.457   6.744   7.114  0.7684  0.0153 -0.9508
  150DOPC  H18Y17999   5.421   6.861   7.243 -0.8375 -2.2922  1.4090
  150DOPC  H18Z18000   5.594   6.839   7.213 -0.0630  0.3556  0.2708
  151DOPC     N18001   0.593   4.437   8.825  0.1413 -1.3078 -0.5579
  151DOPC   C1218002   0.749   4.462   8.799  0.2142 -0.2855 -0.0099
  151DOPC  H12A18003   0.758   4.538   8.723  1.0960  0.2185  0.5838
  151DOPC  H12B18004   0.785   4.373   8.750 -0.0487 -1.1546  1.3532
  151DOPC   C1318005   0.570   4.341   8.938  0.0758  0.4939 -0.6301
  151DOPC  H13A18006   0.627   4.249   8.939  1.6188  1.4246 -0.0213
  151DOPC  H13B18007   0.577   4.393   9.033 -0.5664 -0.6326  0.0621
  151DOPC  H13C18008   0.468   4.305   8.939  0.0848  0.3729 -2.0428
  151DOPC   C1418009   0.533   4.394   8.693  1.0244 -0.3868 -0.0632
  151DOPC  H14A18010   0.580   4.305   8.652 -0.1317  0.2327 -2.9899
  151DOPC  H14B18011   0.425   4.391   8.701  1.0394 -0.2896  0.1792
  151DOPC  H14C18012   0.553   4.476   8.627  0.0382  0.9459  1.2319
  151DOPC   C1518013   0.519   4.560   8.862  0.6259 -0.9775 -0.6360
  151DOPC  H15A18014   0.565   4.625   8.935  0.3045  0.1520 -1.3975
  151DOPC  H15B18015   0.434   4.516   8.912  1.6162 -0.8775  1.2295
  151DOPC  H15C18016   0.500   4.626   8.778  1.0413 -0.3233 -0.2305
  151DOPC   C1118017   0.837   4.499   8.921 -0.4361 -0.0756 -0.1855
  151DOPC  H11A18018   0.814   4.431   9.005 -1.0106  1.8666  1.3005
  151DOPC  H11B18019   0.944   4.483   8.892  0.6471  3.4268  1.3083
  151DOPC     P18020   0.899   4.750   8.857 -0.2893 -0.4728 -0.2170
  151DOPC   O1318021   1.043   4.718   8.836  0.4689 -0.2193  0.4267
  151DOPC   O1418022   0.861   4.885   8.898 -0.0992  0.3770 -0.0606
  151DOPC   O1218023   0.827   4.638   8.948  0.5062  0.8375 -0.0961
  151DOPC   O1118024   0.833   4.728   8.715  0.3453 -0.0972 -0.0195
  151DOPC    C118025   0.718   4.801   8.673  0.3718  0.6014 -0.4729
  151DOPC    HA18026   0.665   4.839   8.763  1.4475  0.0514  0.4064
  151DOPC    HB18027   0.647   4.732   8.622 -0.6169  0.9955  0.3320
  151DOPC    C218028   0.746   4.907   8.570  0.3971  0.4166  0.4785
  151DOPC    HS18029   0.654   4.916   8.508  0.4557  3.0804  0.6582
  151DOPC   O2118030   0.847   4.872   8.477 -0.0399  0.2557 -0.5143
  151DOPC   C2118031   0.827   4.767   8.394 -0.0277  0.2879  0.1409
  151DOPC   O2218032   0.730   4.699   8.380  0.7212  0.2118 -0.1560
  151DOPC   C2218033   0.954   4.752   8.315  0.4564  0.3035 -0.1093
  151DOPC   H2R18034   1.048   4.772   8.372  0.6269 -0.5875 -0.0592
  151DOPC   H2S18035   0.951   4.827   8.233  2.8863 -0.4235 -0.9447
  151DOPC    C318036   0.775   5.051   8.627 -0.5095  0.1425 -0.5135
  151DOPC    HX18037   0.872   5.040   8.680 -1.6597 -0.0622  1.6543
  151DOPC    HY18038   0.694   5.078   8.699  0.9036  3.6247 -0.0045
  151DOPC   O3118039   0.758   5.153   8.529  0.0108 -0.3502 -0.1743
  151DOPC   C3118040   0.825   5.268   8.571 -0.4805  0.6610 -0.3178
  151DOPC   O3218041   0.869   5.294   8.681 -0.3917  0.7748  0.4198
  151DOPC   C3218042   0.824   5.372   8.457 -0.1172  0.1456  0.5415
  151DOPC   H2X18043   0.897   5.354   8.375 -0.0771 -0.0467  0.6186
  151DOPC   H2Y18044   0.728   5.353   8.404  0.4532 -1.0411 -0.1110
  151DOPC   C2318045   0.966   4.603   8.254  0.0450 -0.9559 -0.1408
  151DOPC   H3R18046   0.870   4.570   8.207  0.4671 -0.5125 -1.3689
  151DOPC   H3S18047   0.998   4.535   8.336  1.8300 -0.8656 -0.7235
  151DOPC   C2418048   1.073   4.599   8.150  0.7607  0.1156 -0.4648
  151DOPC   H4R18049   1.084   4.689   8.086 -1.4703  0.1326 -0.9096
  151DOPC   H4S18050   1.054   4.517   8.078  1.0969  0.3466 -0.8158
  151DOPC   C2518051   1.204   4.571   8.215 -0.7455 -0.7961 -0.1384
  151DOPC   H5R18052   1.191   4.487   8.286  2.2490 -1.2996 -0.0256
  151DOPC   H5S18053   1.230   4.663   8.273 -0.9251  0.2839 -1.6960
  151DOPC   C2618054   1.322   4.540   8.118  0.3391  0.3445 -0.4686
  151DOPC   H6R18055   1.322   4.615   8.036  0.8414  0.6886 -0.1584
  151DOPC   H6S18056   1.310   4.436   8.082  0.0216  0.6714 -1.3228
  151DOPC   C2718057   1.457   4.556   8.192  0.3833 -0.0432  0.3037
  151DOPC   H7R18058   1.470   4.487   8.279 -3.2314  0.6133  1.5596
  151DOPC   H7S18059   1.444   4.653   8.245  1.0540  0.7618 -0.9617
  151DOPC   C2818060   1.569   4.576   8.092 -0.1499 -0.3448  0.3006
  151DOPC   H8R18061   1.656   4.622   8.144 -0.7235  1.4755 -0.2688
  151DOPC   H8S18062   1.547   4.647   8.010 -0.2280  0.5317  1.0677
  151DOPC   C2918063   1.603   4.446   8.031  0.1564 -0.5957 -0.4185
  151DOPC   H9R18064   1.588   4.372   8.111  0.5277 -1.3511 -1.0330
  151DOPC  C21018065   1.619   4.410   7.901  0.0111 -0.4168  0.1932
  151DOPC  H10R18066   1.625   4.306   7.867  0.2981 -0.5764  0.7241
  151DOPC  C21118067   1.633   4.508   7.784 -0.2246 -0.0850 -0.3112
  151DOPC  H11R18068   1.674   4.604   7.823 -2.1127  0.2363  1.0840
  151DOPC  H11S18069   1.535   4.534   7.738 -0.6518 -2.3350 -0.7727
  151DOPC  C21218070   1.727   4.468   7.666  0.0395  0.2837  0.2391
  151DOPC  H12R18071   1.828   4.436   7.701  1.0187  1.5631 -1.2788
  151DOPC  H12S18072   1.750   4.564   7.615  1.5981 -0.8974 -1.4279
  151DOPC  C21318073   1.670   4.361   7.570  0.3106 -0.7789 -0.1292
  151DOPC  H13R18074   1.560   4.374   7.579  0.4912  0.9209 -0.0720
  151DOPC  H13S18075   1.690   4.260   7.614  0.8062 -0.6940 -0.1541
  151DOPC  C21418076   1.719   4.371   7.427  0.1762 -0.7072  0.2529
  151DOPC  H14R18077   1.828   4.387   7.438  0.1657 -0.5039  0.0558
  151DOPC  H14S18078   1.660   4.453   7.380 -0.2822 -1.2391 -0.1205
  151DOPC  C21518079   1.699   4.238   7.352 -0.3479  0.0854 -0.2831
  151DOPC  H15R18080   1.595   4.205   7.332 -0.5724  0.9027 -0.5081
  151DOPC  H15S18081   1.742   4.157   7.415 -0.0762  1.2829  1.1203
  151DOPC  C21618082   1.765   4.247   7.212  0.2163  0.4947 -0.3633
  151DOPC  H16R18083   1.867   4.289   7.227 -0.3335  1.7387 -0.0069
  151DOPC  H16S18084   1.710   4.312   7.141  1.0714  1.5278 -0.1176
  151DOPC  C21718085   1.772   4.111   7.142  0.3462 -0.5546 -0.8482
  151DOPC  H17R18086   1.668   4.078   7.118 -0.2715  0.8763 -0.2618
  151DOPC  H17S18087   1.811   4.031   7.209 -0.1537  0.0254  0.1716
  151DOPC  C21818088   1.850   4.127   7.016 -0.0323 -0.4067  0.0355
  151DOPC  H18R18089   1.791   4.193   6.949 -0.8846 -0.7167  0.4685
  151DOPC  H18S18090   1.868   4.029   6.966  2.4592 -0.7514  1.4615
  151DOPC  H18T18091   1.945   4.182   7.029 -0.4094  0.6373 -1.2914
  151DOPC   C3318092   0.838   5.518   8.492  0.2116  0.0328 -0.0628
  151DOPC   H3X18093   0.940   5.532   8.532  1.2116 -1.0818 -2.0396
  151DOPC   H3Y18094   0.769   5.537   8.577  0.5504 -0.5783  0.3543
  151DOPC   C3418095   0.779   5.612   8.391  0.5079  0.7506  0.0886
  151DOPC   H4X18096   0.785   5.716   8.428 -1.1182  0.1658  2.2066
  151DOPC   H4Y18097   0.670   5.590   8.383  0.4135  0.4452  1.7791
  151DOPC   C3518098   0.828   5.593   8.242 -0.1850 -0.1256  0.0886
  151DOPC   H5X18099   0.807   5.487   8.217 -0.5489 -0.4777  1.7960
  151DOPC   H5Y18100   0.938   5.605   8.231 -0.0797 -0.8314  0.3424
  151DOPC   C3618101   0.765   5.700   8.146 -0.2566  0.7098 -0.5137
  151DOPC   H6X18102   0.656   5.677   8.147  0.0982 -1.1322  0.4341
  151DOPC   H6Y18103   0.792   5.798   8.192  2.1298  1.0374 -2.4015
  151DOPC   C3718104   0.802   5.692   7.996  0.0687  0.0779 -0.2102
  151DOPC   H7X18105   0.762   5.781   7.943 -0.4331  0.8985  1.4546
  151DOPC   H7Y18106   0.912   5.690   7.986  0.3189  1.3797  1.5958
  151DOPC   C3818107   0.764   5.556   7.925 -0.2920 -0.5573 -0.1120
  151DOPC   H8X18108   0.661   5.536   7.962  0.3145 -0.5529  1.6811
  151DOPC   H8Y18109   0.825   5.471   7.964  1.8176  0.1252 -1.7244
  151DOPC   C3918110   0.778   5.560   7.775 -0.0012 -0.6548 -0.1816
  151DOPC   H9X18111   0.845   5.638   7.736 -1.5132  0.9659  0.3123
  151DOPC  C31018112   0.701   5.493   7.690  0.0298  0.3151  0.2637
  151DOPC  H10X18113   0.710   5.509   7.582 -1.1195  3.0611  0.5144
  151DOPC  C31118114   0.579   5.415   7.745  0.6533  0.3196 -0.3567
  151DOPC  H11X18115   0.517   5.484   7.806 -1.7027 -2.7566  0.9890
  151DOPC  H11Y18116   0.621   5.332   7.807  1.5126 -0.3828 -1.8260
  151DOPC  C31218117   0.505   5.356   7.627  0.3173  0.4791  0.0537
  151DOPC  H12X18118   0.491   5.438   7.554  1.4031  1.1899  0.6226
  151DOPC  H12Y18119   0.405   5.321   7.661 -0.3872  1.4223 -0.9718
  151DOPC  C31318120   0.577   5.237   7.557 -0.3165  0.2181 -0.1336
  151DOPC  H13X18121   0.671   5.277   7.514 -0.2999  0.1497 -0.1610
  151DOPC  H13Y18122   0.616   5.174   7.640 -3.0560 -0.5772  0.6681
  151DOPC  C31418123   0.490   5.157   7.456 -0.1005 -0.4023  0.1597
  151DOPC  H14X18124   0.409   5.105   7.511  2.2036 -0.1563  4.1788
  151DOPC  H14Y18125   0.455   5.232   7.382 -1.0564 -0.0570  0.9441
  151DOPC  C31518126   0.570   5.054   7.379 -0.3248 -0.0264  0.1471
  151DOPC  H15X18127   0.648   5.100   7.315  2.4765 -1.8340  2.0178
  151DOPC  H15Y18128   0.508   4.981   7.322 -0.6935  0.0431  0.4520
  151DOPC  C31618129   0.637   4.949   7.472  0.8698  0.7387  0.2389
  151DOPC  H16X18130   0.686   4.871   7.411 -1.5970 -1.3297  0.7219
  151DOPC  H16Y18131   0.716   4.993   7.537  1.5114  0.7268 -0.5181
  151DOPC  C31718132   0.541   4.880   7.571 -0.3623  1.0652  0.0115
  151DOPC  H17X18133   0.616   4.813   7.618 -0.5226  0.2103 -0.9077
  151DOPC  H17Y18134   0.498   4.947   7.648 -0.7581  2.3890 -1.3096
  151DOPC  C31818135   0.440   4.793   7.499  0.1817  0.1191  0.6189
  151DOPC  H18X18136   0.477   4.769   7.398 -1.9462 -3.1101  0.4478
  151DOPC  H18Y18137   0.424   4.695   7.550 -0.0268 -2.2799 -3.6486
  151DOPC  H18Z18138   0.338   4.838   7.501 -0.5809 -1.1596 -2.6916
  152DOPC     N18139   4.582   2.168   8.669  0.0364  0.0006  0.6559
  152DOPC   C1218140   4.655   2.232   8.552 -0.3951  0.0586  0.1851
  152DOPC  H12A18141   4.705   2.154   8.497  0.3598  0.7995 -0.2062
  152DOPC  H12B18142   4.726   2.305   8.590  1.1158 -0.6073 -1.2392
  152DOPC   C1318143   4.679   2.082   8.747  0.5256 -0.3073 -0.0420
  152DOPC  H13A18144   4.705   1.992   8.694 -1.5209  1.1086 -3.7447
  152DOPC  H13B18145   4.767   2.141   8.770  0.4220 -0.3205  0.3983
  152DOPC  H13C18146   4.636   2.050   8.841 -0.3303 -0.3880 -0.4583
  152DOPC   C1418147   4.483   2.077   8.611  0.1180 -0.0156  0.6727
  152DOPC  H14A18148   4.526   1.987   8.569 -4.0973 -1.2632 -1.4530
  152DOPC  H14B18149   4.431   2.029   8.692 -3.2137  3.0149  0.5468
  152DOPC  H14C18150   4.407   2.131   8.556 -0.6529  0.0447  1.7758
  152DOPC   C1518151   4.519   2.270   8.756 -0.0813 -0.7772 -0.1656
  152DOPC  H15A18152   4.477   2.349   8.696  2.1674  0.8008  0.2258
  152DOPC  H15B18153   4.605   2.301   8.813  1.0004 -1.1907 -1.4969
  152DOPC  H15C18154   4.443   2.227   8.820  0.9782 -1.7040  0.5027
  152DOPC   C1118155   4.569   2.322   8.448 -0.0538  0.4108  0.3487
  152DOPC  H11A18156   4.633   2.354   8.363  0.6515  0.2819  0.8210
  152DOPC  H11B18157   4.481   2.262   8.418  0.4146 -0.0965 -0.0404
  152DOPC     P18158   4.587   2.568   8.530 -0.0878 -0.0605 -0.1820
  152DOPC   O1318159   4.727   2.548   8.572  0.4692 -0.2666 -0.5401
  152DOPC   O1418160   4.500   2.660   8.606  0.4950 -0.7265 -0.4753
  152DOPC   O1218161   4.516   2.432   8.524 -0.0152 -0.1147  0.5687
  152DOPC   O1118162   4.577   2.622   8.381 -0.3744  0.2435  0.0617
  152DOPC    C118163   4.458   2.661   8.315  0.4158  0.4991 -0.1417
  152DOPC    HA18164   4.483   2.751   8.255 -0.9492  0.5706 -0.6357
  152DOPC    HB18165   4.368   2.674   8.378  0.9814  2.1296  0.3989
  152DOPC    C218166   4.415   2.559   8.215 -0.2390 -0.4070 -0.0761
  152DOPC    HS18167   4.390   2.467   8.271  0.9296  0.5440  2.1335
  152DOPC   O2118168   4.513   2.541   8.111 -0.8079  0.1362 -0.5040
  152DOPC   C2118169   4.514   2.421   8.057 -0.5488  0.1669  0.0086
  152DOPC   O2218170   4.455   2.322   8.102 -0.1838 -0.3221  0.2775
  152DOPC   C2218171   4.612   2.421   7.943 -0.4049 -0.0763  0.1402
  152DOPC   H2R18172   4.694   2.355   7.979  0.2703  0.8541  0.3482
  152DOPC   H2S18173   4.655   2.523   7.931 -1.4609  0.7284  2.5154
  152DOPC    C318174   4.276   2.597   8.144  0.2940 -0.1125  0.0995
  152DOPC    HX18175   4.303   2.677   8.071 -0.7328  0.3097  0.1666
  152DOPC    HY18176   4.204   2.650   8.209  1.9874 -0.0016  1.9871
  152DOPC   O3118177   4.212   2.490   8.071  0.5654 -0.2695 -0.1680
  152DOPC   C3118178   4.126   2.428   8.154  0.1996  0.0216 -0.2173
  152DOPC   O3218179   4.107   2.449   8.270 -0.1295 -0.0848 -0.1328
  152DOPC   C3218180   4.038   2.343   8.072 -0.0242  1.5136  0.5936
  152DOPC   H2X18181   3.997   2.272   8.147  0.4154  1.1373  0.4903
  152DOPC   H2Y18182   3.957   2.408   8.035  0.9263  2.0951 -0.5238
  152DOPC   C2318183   4.550   2.372   7.811 -0.4049  0.1802  0.4223
  152DOPC   H3R18184   4.457   2.430   7.795  0.8697  2.3794  0.5379
  152DOPC   H3S18185   4.535   2.262   7.822  1.8675  0.0403  3.1814
  152DOPC   C2418186   4.625   2.417   7.693 -0.0912 -0.3041 -0.4832
  152DOPC   H4R18187   4.728   2.375   7.688  0.0329  0.1348 -2.5783
  152DOPC   H4S18188   4.636   2.527   7.704 -1.2054 -0.2885  0.5665
  152DOPC   C2518189   4.557   2.378   7.566  0.6334 -0.1130  0.1355
  152DOPC   H5R18190   4.460   2.432   7.561 -0.1517 -1.5787 -1.6138
  152DOPC   H5S18191   4.526   2.271   7.570 -0.2776 -0.1359 -3.6718
  152DOPC   C2618192   4.637   2.392   7.435 -0.7351  0.3144  0.0303
  152DOPC   H6R18193   4.743   2.363   7.452 -0.2370  2.7733  1.7608
  152DOPC   H6S18194   4.645   2.497   7.400  1.3430 -0.0002 -0.5956
  152DOPC   C2718195   4.569   2.313   7.325  0.0614 -0.4111 -0.3595
  152DOPC   H7R18196   4.460   2.312   7.343  0.1981  2.7356  1.3452
  152DOPC   H7S18197   4.598   2.207   7.343  2.6677  0.1561 -0.8335
  152DOPC   C2818198   4.611   2.352   7.187  0.1884 -0.4685 -0.2918
  152DOPC   H8R18199   4.722   2.351   7.180  0.4907 -0.1669  2.9618
  152DOPC   H8S18200   4.574   2.452   7.157  0.3245 -0.8835 -1.9046
  152DOPC   C2918201   4.571   2.248   7.077 -0.5612 -1.1615 -0.0968
  152DOPC   H9R18202   4.507   2.167   7.113 -1.6471 -0.3062 -0.0415
  152DOPC  C21018203   4.594   2.265   6.944 -0.1287 -0.0447  0.3151
  152DOPC  H10R18204   4.559   2.186   6.876 -0.8907 -0.0489  0.6997
  152DOPC  C21118205   4.671   2.375   6.877  0.4296  0.0461 -0.2343
  152DOPC  H11R18206   4.771   2.333   6.850  0.1422 -1.8522  1.4331
  152DOPC  H11S18207   4.686   2.459   6.948  1.3724 -0.6183  0.3707
  152DOPC  C21218208   4.612   2.422   6.745  0.0513  0.2679  0.5191
  152DOPC  H12R18209   4.505   2.451   6.749 -0.4063 -1.0403 -1.1461
  152DOPC  H12S18210   4.619   2.336   6.675 -1.4709  1.0837 -0.6992
  152DOPC  C21318211   4.681   2.540   6.680 -0.0116 -1.2002 -0.2315
  152DOPC  H13R18212   4.693   2.626   6.750  0.5413 -1.1531 -0.3784
  152DOPC  H13S18213   4.622   2.575   6.593  1.4056  3.2719  0.3335
  152DOPC  C21418214   4.819   2.518   6.619  0.1282 -0.2093  0.5849
  152DOPC  H14R18215   4.817   2.427   6.555 -1.8050  0.3741 -0.2818
  152DOPC  H14S18216   4.890   2.497   6.701 -0.0239 -0.2124  0.7144
  152DOPC  C21518217   4.866   2.644   6.543 -0.1786 -0.5366  0.3544
  152DOPC  H15R18218   4.871   2.726   6.618 -1.0713  1.3178 -1.5203
  152DOPC  H15S18219   4.797   2.677   6.463  1.3198 -2.0344 -1.6768
  152DOPC  C21618220   5.010   2.614   6.488  0.0329  0.1210 -0.6443
  152DOPC  H16R18221   5.066   2.569   6.573 -0.1407 -0.5153 -0.8554
  152DOPC  H16S18222   5.052   2.715   6.470 -0.1146 -0.3264 -4.1001
  152DOPC  C21718223   5.022   2.522   6.368 -0.6576  0.0428 -0.2543
  152DOPC  H17R18224   4.918   2.485   6.350  0.0219 -2.3474  0.3614
  152DOPC  H17S18225   5.081   2.430   6.390 -1.6275 -0.1340  1.8853
  152DOPC  C21818226   5.087   2.582   6.236  0.1916 -0.2380  0.4264
  152DOPC  H18R18227   5.000   2.631   6.187 -0.4519 -0.7998  0.9944
  152DOPC  H18S18228   5.137   2.504   6.175 -1.8093 -0.8503 -0.5298
  152DOPC  H18T18229   5.167   2.657   6.254 -2.1227  1.9985  2.1491
  152DOPC   C3318230   4.096   2.269   7.947  0.4711 -0.0648 -0.6036
  152DOPC   H3X18231   4.045   2.177   7.912 -0.8679  0.5299 -0.2487
  152DOPC   H3Y18232   4.201   2.242   7.973  0.0180 -0.5371  0.8574
  152DOPC   C3418233   4.087   2.358   7.824 -0.0153 -0.3614  0.0658
  152DOPC   H4X18234   4.142   2.453   7.837 -0.4607 -0.1376  0.3432
  152DOPC   H4Y18235   3.978   2.377   7.820  0.1798  1.5172  1.8869
  152DOPC   C3518236   4.134   2.287   7.698 -0.4820 -0.5737 -0.2150
  152DOPC   H5X18237   4.086   2.188   7.689 -0.6993 -0.3171 -2.1574
  152DOPC   H5Y18238   4.244   2.275   7.706 -0.3434  1.3319  2.1536
  152DOPC   C3618239   4.117   2.380   7.576 -0.0715 -0.2688  1.3258
  152DOPC   H6X18240   4.008   2.397   7.587 -0.6256 -0.1522 -2.8118
  152DOPC   H6Y18241   4.169   2.476   7.598 -0.3031  0.2371 -0.1780
  152DOPC   C3718242   4.158   2.333   7.432 -1.1540 -0.4109  0.0875
  152DOPC   H7X18243   4.262   2.302   7.453 -0.3010  1.2771 -1.3836
  152DOPC   H7Y18244   4.107   2.236   7.412 -1.5982 -0.2668  0.4867
  152DOPC   C3818245   4.138   2.433   7.317  0.3408 -0.6570 -0.1217
  152DOPC   H8X18246   4.146   2.539   7.349  1.2462 -1.2153  1.5848
  152DOPC   H8Y18247   4.034   2.434   7.278  0.1274  0.8666  0.4436
  152DOPC   C3918248   4.220   2.397   7.199 -0.4903 -0.6348  0.0176
  152DOPC   H9X18249   4.279   2.305   7.202  1.3552  0.5324  0.9303
  152DOPC  C31018250   4.224   2.457   7.077 -0.2056 -0.0264  0.0973
  152DOPC  H10X18251   4.294   2.412   7.006 -0.2383 -0.4379  0.3245
  152DOPC  C31118252   4.154   2.580   7.033 -0.7692 -0.3118 -0.4802
  152DOPC  H11X18253   4.077   2.614   7.106 -1.6471 -1.1757 -0.9875
  152DOPC  H11Y18254   4.090   2.539   6.953 -1.0611 -1.1503  0.1609
  152DOPC  C31218255   4.263   2.686   6.988  0.5726 -0.3744  0.7493
  152DOPC  H12X18256   4.216   2.764   6.924 -0.0683  0.7268  2.5047
  152DOPC  H12Y18257   4.331   2.633   6.917 -0.4833 -0.4177 -0.2773
  152DOPC  C31318258   4.350   2.756   7.097  0.7345 -0.6280 -0.1918
  152DOPC  H13X18259   4.276   2.800   7.168  1.0220  0.5382 -0.5885
  152DOPC  H13Y18260   4.403   2.676   7.153 -1.9730 -1.2111  1.7623
  152DOPC  C31418261   4.436   2.872   7.035  0.8563  0.1774  0.4338
  152DOPC  H14X18262   4.380   2.941   6.968 -0.4042 -1.3237 -0.0973
  152DOPC  H14Y18263   4.457   2.950   7.112 -0.6457  1.6022 -0.5270
  152DOPC  C31518264   4.565   2.835   6.966  0.2629  0.2574  0.5842
  152DOPC  H15X18265   4.543   2.764   6.883  0.2981  0.7946  0.1063
  152DOPC  H15Y18266   4.625   2.780   7.041  0.9794 -1.8409 -1.3984
  152DOPC  C31618267   4.644   2.957   6.916  0.6396  0.6299  0.1557
  152DOPC  H16X18268   4.598   2.983   6.818 -2.6239  2.8199  2.0560
  152DOPC  H16Y18269   4.636   3.045   6.983 -3.8450  0.5507  0.0323
  152DOPC  C31718270   4.795   2.919   6.905  0.3182 -0.0361  0.5731
  152DOPC  H17X18271   4.846   2.929   7.003 -2.2726 -1.0714  2.1281
  152DOPC  H17Y18272   4.804   2.813   6.875  0.6234 -0.3296  1.6739
  152DOPC  C31818273   4.854   3.011   6.799  0.3277  0.0246  0.7885
  152DOPC  H18X18274   4.861   3.118   6.828 -0.7255 -0.2556  2.1621
  152DOPC  H18Y18275   4.958   2.976   6.785  0.4531  0.8094 -0.3903
  152DOPC  H18Z18276   4.807   3.001   6.699 -1.0272  2.1265  1.1454
  153DOPC     N18277   3.142   0.305   8.561  0.5375 -0.1590 -0.0551
  153DOPC   C1218278   3.141   0.177   8.637 -0.1957  0.1148 -0.4402
  153DOPC  H12A18279   3.039   0.143   8.654  0.0435 -0.0680  0.7513
  153DOPC  H12B18280   3.172   0.201   8.738  1.7919  0.6699 -1.1516
  153DOPC   C1318281   3.289   0.332   8.521  0.0761  0.0337  0.2251
  153DOPC  H13A18282   3.324   0.263   8.445  2.6765  1.8481 -0.3606
  153DOPC  H13B18283   3.307   0.434   8.490 -0.5195  0.4817  1.3089
  153DOPC  H13C18284   3.355   0.305   8.602  1.4677  1.5596 -0.3366
  153DOPC   C1418285   3.083   0.417   8.632  0.3799 -0.2531  0.2347
  153DOPC  H14A18286   3.141   0.434   8.721 -1.3490  1.2891  1.1379
  153DOPC  H14B18287   3.077   0.503   8.567  1.8147 -0.8836 -0.7810
  153DOPC  H14C18288   2.980   0.396   8.656  0.8103 -0.5206  1.9924
  153DOPC   C1518289   3.064   0.288   8.424  0.0466  0.3395  0.2123
  153DOPC  H15A18290   3.114   0.228   8.350 -0.4062 -1.9796  1.6871
  153DOPC  H15B18291   3.040   0.384   8.382 -0.0408 -0.6035 -2.0364
  153DOPC  H15C18292   2.966   0.253   8.453  0.3707  1.4057  2.8686
  153DOPC   C1118293   3.220   0.059   8.583 -0.5143 -0.4502 -0.5891
  153DOPC  H11A18294   3.191  -0.033   8.637  3.2552 -1.3958  0.1035
  153DOPC  H11B18295   3.194   0.046   8.476 -0.5158 -1.2784 -0.4937
  153DOPC     P18296   3.454  -0.047   8.532  0.1777  0.0160  0.0022
  153DOPC   O1318297   3.452  -0.161   8.627 -0.1118  0.2606 -0.8917
  153DOPC   O1418298   3.586   0.005   8.495  0.4707  1.0848  0.2259
  153DOPC   O1218299   3.362   0.065   8.608 -0.0902 -0.3387  0.0194
  153DOPC   O1118300   3.380  -0.095   8.398 -0.8203 -0.2830 -0.1382
  153DOPC    C118301   3.397  -0.222   8.341 -0.2166 -0.5179 -0.2786
  153DOPC    HA18302   3.325  -0.247   8.260  0.4665 -0.3694 -0.9396
  153DOPC    HB18303   3.386  -0.306   8.412  1.0400 -1.7935 -1.5418
  153DOPC    C218304   3.529  -0.237   8.273  0.1896  0.3454  0.2014
  153DOPC    HS18305   3.598  -0.231   8.360 -1.1024 -0.5742  1.3190
  153DOPC   O2118306   3.560  -0.131   8.176 -0.2593  0.3558 -0.3525
  153DOPC   C2118307   3.687  -0.111   8.158 -0.5149 -0.4808 -0.7826
  153DOPC   O2218308   3.782  -0.175   8.211  0.6923 -0.3377 -0.0208
  153DOPC   C2218309   3.714   0.010   8.066  0.0646 -0.1478  0.9504
  153DOPC   H2R18310   3.820   0.038   8.084  0.5939 -1.0890 -0.5351
  153DOPC   H2S18311   3.647   0.092   8.101  1.2555  2.0058 -1.4947
  153DOPC    C318312   3.553  -0.380   8.212  0.2601 -0.0983  0.0760
  153DOPC    HX18313   3.528  -0.448   8.296  2.8334  0.2052  1.1996
  153DOPC    HY18314   3.657  -0.399   8.178  0.0423 -0.6398 -0.3047
  153DOPC   O3118315   3.450  -0.415   8.113 -0.0271  0.1805 -0.4495
  153DOPC   C3118316   3.489  -0.409   7.989 -0.3286 -0.0009  0.6151
  153DOPC   O3218317   3.599  -0.368   7.953 -0.3683  0.0213 -0.0819
  153DOPC   C3218318   3.387  -0.457   7.894  0.0404 -0.1507 -0.6199
  153DOPC   H2X18319   3.402  -0.564   7.868 -1.7763 -0.6057  0.0943
  153DOPC   H2Y18320   3.286  -0.438   7.935  1.1019  2.5764  0.9646
  153DOPC   C2318321   3.701  -0.013   7.912  0.7816 -0.6326 -0.2512
  153DOPC   H3R18322   3.730   0.084   7.864 -1.1868  0.1341  0.0114
  153DOPC   H3S18323   3.598  -0.036   7.877  0.3859  1.9360 -1.0179
  153DOPC   C2418324   3.796  -0.126   7.872  0.7895  0.4204  0.4170
  153DOPC   H4R18325   3.744  -0.218   7.837  1.0010  0.8438 -1.0621
  153DOPC   H4S18326   3.858  -0.155   7.960  1.5194 -0.9101 -0.4877
  153DOPC   C2518327   3.897  -0.076   7.767 -0.1580  1.0629  1.0273
  153DOPC   H5R18328   3.986  -0.135   7.796 -1.0526 -0.4506  0.8253
  153DOPC   H5S18329   3.911   0.034   7.771 -1.7251  1.4017 -0.9806
  153DOPC   C2618330   3.867  -0.125   7.621 -0.2014  0.0226 -0.1651
  153DOPC   H6R18331   3.821  -0.224   7.639 -2.2881  0.8557 -0.6718
  153DOPC   H6S18332   3.966  -0.125   7.570 -0.0153  3.3650 -0.0667
  153DOPC   C2718333   3.764  -0.033   7.545  0.8420 -0.2244 -0.3662
  153DOPC   H7R18334   3.783   0.073   7.572  1.6388 -0.4476 -0.0345
  153DOPC   H7S18335   3.664  -0.060   7.587 -0.2151  1.3326 -1.7533
  153DOPC   C2818336   3.766  -0.057   7.392  0.1316 -0.1412  0.1640
  153DOPC   H8R18337   3.667  -0.025   7.353  0.0260  0.0081  0.5460
  153DOPC   H8S18338   3.770  -0.165   7.364 -1.0351  0.1404 -1.1820
  153DOPC   C2918339   3.877   0.034   7.338 -0.0607  0.5852  0.1345
  153DOPC   H9R18340   3.957   0.063   7.407  1.4720  0.5357 -1.5551
  153DOPC  C21018341   3.868   0.074   7.210  0.0076 -0.4550  0.4909
  153DOPC  H10R18342   3.947   0.137   7.165  0.4575 -0.4846  1.2211
  153DOPC  C21118343   3.765   0.036   7.109  0.6207  0.3045  0.3639
  153DOPC  H11R18344   3.679  -0.022   7.148  0.8865 -2.2364 -2.4634
  153DOPC  H11S18345   3.800  -0.034   7.030 -3.7410  0.5877 -2.1531
  153DOPC  C21218346   3.709   0.163   7.036  0.3057 -0.1081  0.4252
  153DOPC  H12R18347   3.797   0.209   6.987  0.8275 -1.1837  0.3314
  153DOPC  H12S18348   3.670   0.231   7.115 -1.4838 -1.5432  0.8467
  153DOPC  C21318349   3.599   0.147   6.937  0.0777 -0.9053  0.1064
  153DOPC  H13R18350   3.630   0.069   6.865  0.8487  0.6417 -1.3014
  153DOPC  H13S18351   3.576   0.246   6.891 -2.1698  0.0567  3.0055
  153DOPC  C21418352   3.467   0.099   6.996  0.5342 -0.0067 -0.0651
  153DOPC  H14R18353   3.459   0.132   7.102 -1.5840 -0.9022  0.0986
  153DOPC  H14S18354   3.466  -0.012   7.000  1.3889 -0.0188  0.0347
  153DOPC  C21518355   3.354   0.144   6.914  0.0824 -0.0807  0.8591
  153DOPC  H15R18356   3.265   0.077   6.923  0.2428 -0.4781 -0.3391
  153DOPC  H15S18357   3.381   0.142   6.807  4.3245 -0.2046  1.7645
  153DOPC  C21618358   3.298   0.282   6.958  0.3308  0.8265 -0.0188
  153DOPC  H16R18359   3.357   0.361   6.908 -1.6161  2.0371 -0.5336
  153DOPC  H16S18360   3.303   0.297   7.068 -0.9780 -1.2576  0.3860
  153DOPC  C21718361   3.152   0.300   6.914 -0.5561 -0.5769 -0.7413
  153DOPC  H17R18362   3.084   0.237   6.976 -1.8289  0.2830 -1.2264
  153DOPC  H17S18363   3.138   0.272   6.808 -1.6125 -0.2473 -0.7002
  153DOPC  C21818364   3.106   0.443   6.925  0.0286 -0.7605  0.0776
  153DOPC  H18R18365   2.998   0.457   6.905  0.0983 -0.2065  0.0690
  153DOPC  H18S18366   3.168   0.512   6.865 -0.2610  0.3075  0.9718
  153DOPC  H18T18367   3.128   0.488   7.024  2.7747  0.5392 -1.0339
  153DOPC   C3318368   3.389  -0.372   7.767 -0.1498 -0.3527 -0.1124
  153DOPC   H3X18369   3.489  -0.367   7.720 -0.7091  0.1071 -1.3107
  153DOPC   H3Y18370   3.363  -0.264   7.775  0.1542 -0.0585 -2.3465
  153DOPC   C3418371   3.288  -0.436   7.668  0.5294  0.1682  0.5617
  153DOPC   H4X18372   3.187  -0.449   7.714  1.5748 -1.6941  2.4860
  153DOPC   H4Y18373   3.314  -0.543   7.652 -2.2785 -0.2380 -2.3441
  153DOPC   C3518374   3.277  -0.379   7.532  0.1928  0.9220 -0.1595
  153DOPC   H5X18375   3.379  -0.380   7.487  0.9396  2.6767  1.3945
  153DOPC   H5Y18376   3.254  -0.272   7.549  1.4406  1.0397  0.9236
  153DOPC   C3618377   3.167  -0.457   7.448  0.2740  0.3370  0.0249
  153DOPC   H6X18378   3.187  -0.566   7.453 -0.9100  0.0816 -0.5797
  153DOPC   H6Y18379   3.072  -0.446   7.504  0.9270 -0.1431  1.2749
  153DOPC   C3718380   3.165  -0.407   7.305  0.4904  0.1238  0.8067
  153DOPC   H7X18381   3.140  -0.299   7.310 -1.3288 -0.2977  1.3166
  153DOPC   H7Y18382   3.269  -0.418   7.266  1.3763 -1.2418  3.2952
  153DOPC   C3818383   3.059  -0.485   7.214  0.3675 -0.2015 -0.4353
  153DOPC   H8X18384   2.981  -0.509   7.290  0.2403 -0.5776 -0.6819
  153DOPC   H8Y18385   3.104  -0.583   7.190  1.8305  0.7389 -1.7410
  153DOPC   C3918386   2.991  -0.418   7.098  0.3227  0.5831 -0.4827
  153DOPC   H9X18387   2.900  -0.366   7.133 -0.1403 -1.7687  2.1398
  153DOPC  C31018388   2.997  -0.453   6.968  0.4517 -0.7415 -0.4052
  153DOPC  H10X18389   2.940  -0.392   6.897  0.5966 -0.9371 -0.6957
  153DOPC  C31118390   3.101  -0.548   6.908 -0.0672  0.5005 -0.1478
  153DOPC  H11X18391   3.067  -0.652   6.931 -1.0142  0.5800 -1.1218
  153DOPC  H11Y18392   3.200  -0.514   6.945  1.5607 -3.5571 -0.2727
  153DOPC  C31218393   3.112  -0.535   6.748 -0.4962  0.2649 -0.6579
  153DOPC  H12X18394   3.137  -0.432   6.714  0.7829  0.9202  1.9643
  153DOPC  H12Y18395   3.011  -0.566   6.713 -0.1288 -0.1918 -1.3317
  153DOPC  C31318396   3.213  -0.626   6.680 -0.4252 -0.3973 -0.5223
  153DOPC  H13X18397   3.316  -0.596   6.708 -1.5490  2.2941  1.2007
  153DOPC  H13Y18398   3.210  -0.733   6.709  1.5070  0.3136  2.8113
  153DOPC  C31418399   3.192  -0.624   6.528 -0.0861 -0.0063 -0.3754
  153DOPC  H14X18400   3.181  -0.519   6.495  4.5294  0.7572 -0.2035
  153DOPC  H14Y18401   3.282  -0.665   6.478  0.4562  2.0879 -1.1853
  153DOPC  C31518402   3.085  -0.711   6.473  0.0078 -0.2563 -0.1152
  153DOPC  H15X18403   2.982  -0.673   6.488 -0.6322 -1.6425 -0.8285
  153DOPC  H15Y18404   3.098  -0.815   6.508  0.0557  0.3579  1.7898
  153DOPC  C31618405   3.109  -0.701   6.314  0.4905 -0.7445  0.1277
  153DOPC  H16X18406   3.087  -0.596   6.286 -0.0245 -0.5173  1.3204
  153DOPC  H16Y18407   3.216  -0.724   6.291  0.9418 -0.4657  1.8227
  153DOPC  C31718408   3.027  -0.802   6.230 -0.3743 -0.4199 -0.0780
  153DOPC  H17X18409   3.053  -0.906   6.257 -1.0128 -0.9159 -1.2787
  153DOPC  H17Y18410   2.919  -0.791   6.256 -0.5330  1.2761 -1.2714
  153DOPC  C31818411   3.057  -0.790   6.079  0.1855  0.5057 -0.5463
  153DOPC  H18X18412   3.162  -0.807   6.047 -0.2054 -4.5143  0.0494
  153DOPC  H18Y18413   3.006  -0.869   6.020  0.4476 -0.3648  0.3676
  153DOPC  H18Z18414   3.025  -0.687   6.052 -2.4109 -0.2901 -0.7183
  154DOPC     N18415   5.015   4.238   8.791 -0.3604  0.0734  0.1531
  154DOPC   C1218416   5.110   4.138   8.866 -0.0524 -0.1112  0.7749
  154DOPC  H12A18417   5.101   4.036   8.832 -0.1714  0.2608 -0.3703
  154DOPC  H12B18418   5.080   4.130   8.969 -0.9982  0.1983  0.5357
  154DOPC   C1318419   5.019   4.367   8.857 -0.2525 -0.4825  0.1105
  154DOPC  H13A18420   5.118   4.410   8.859  1.2353 -3.4461 -2.2976
  154DOPC  H13B18421   4.972   4.448   8.803 -0.4887 -0.7050 -0.0217
  154DOPC  H13C18422   4.975   4.362   8.956  0.9614  0.6545  0.7281
  154DOPC   C1418423   4.878   4.183   8.806 -0.1794 -0.1660  0.0438
  154DOPC  H14A18424   4.805   4.259   8.785  0.1571  0.0743 -0.2661
  154DOPC  H14B18425   4.842   4.097   8.751 -1.7880 -0.5634  1.6420
  154DOPC  H14C18426   4.866   4.153   8.909  2.6566 -0.8505  0.2633
  154DOPC   C1518427   5.053   4.255   8.649 -0.3588 -0.6052  0.2521
  154DOPC  H15A18428   4.995   4.335   8.604  0.1724  0.0341  0.6848
  154DOPC  H15B18429   5.040   4.165   8.592 -1.0659 -0.5062  0.2466
  154DOPC  H15C18430   5.156   4.284   8.655 -0.3122 -0.1240 -2.0079
  154DOPC   C1118431   5.260   4.166   8.855  0.0223  0.0020  0.2192
  154DOPC  H11A18432   5.282   4.274   8.869  1.6867  0.1357 -2.6995
  154DOPC  H11B18433   5.306   4.119   8.945  0.2760  0.0418  0.1105
  154DOPC     P18434   5.393   3.999   8.719 -0.3427 -0.4419  0.0703
  154DOPC   O1318435   5.343   3.901   8.819  0.2854 -0.1903  0.0133
  154DOPC   O1418436   5.538   4.034   8.728  0.4777  0.1320  0.4085
  154DOPC   O1218437   5.316   4.135   8.730 -0.7690  0.3452  0.2889
  154DOPC   O1118438   5.361   3.960   8.570 -0.3529  0.1881  0.4657
  154DOPC    C118439   5.236   3.934   8.513  0.9519 -0.5419  0.3001
  154DOPC    HA18440   5.174   4.021   8.543  2.9113 -0.2259  4.1010
  154DOPC    HB18441   5.181   3.844   8.548 -0.3187  0.1877  0.2161
  154DOPC    C218442   5.251   3.925   8.362  0.7125 -0.5083 -0.0173
  154DOPC    HS18443   5.149   3.927   8.317  0.9685  0.2836 -0.5919
  154DOPC   O2118444   5.320   3.806   8.319 -0.1585  0.0102 -0.4468
  154DOPC   C2118445   5.243   3.699   8.315 -0.3067  0.7318 -0.4031
  154DOPC   O2218446   5.124   3.690   8.338 -0.2708 -0.1335 -0.5661
  154DOPC   C2218447   5.335   3.580   8.272  0.2132 -0.1821  0.2200
  154DOPC   H2R18448   5.274   3.495   8.309 -1.8547  1.0822 -0.0640
  154DOPC   H2S18449   5.428   3.588   8.333 -1.3451 -1.2349  2.9373
  154DOPC    C318450   5.320   4.056   8.306  0.0472  0.0441 -0.2148
  154DOPC    HX18451   5.416   4.079   8.359 -0.5938  1.3828  0.4222
  154DOPC    HY18452   5.253   4.140   8.333  1.3418  0.6745  1.2574
  154DOPC   O3118453   5.333   4.044   8.165  0.0261  0.7726 -0.2138
  154DOPC   C3118454   5.457   4.048   8.120  0.2869  0.1565  0.4099
  154DOPC   O3218455   5.559   4.062   8.181 -0.2116  0.0303 -0.9060
  154DOPC   C3218456   5.455   4.052   7.964 -0.2300  0.6002 -0.0546
  154DOPC   H2X18457   5.352   4.055   7.923  0.4268  0.2437 -1.8304
  154DOPC   H2Y18458   5.501   4.146   7.927  1.0484  0.5155  1.2667
  154DOPC   C2318459   5.356   3.583   8.120 -0.1927 -0.5143 -0.3758
  154DOPC   H3R18460   5.399   3.679   8.085  0.7258 -0.5713  0.5740
  154DOPC   H3S18461   5.258   3.563   8.071 -1.3823  2.2267  0.6497
  154DOPC   C2418462   5.446   3.470   8.069 -0.5406 -0.3946 -0.4491
  154DOPC   H4R18463   5.385   3.378   8.085 -2.2880  0.7473 -0.2042
  154DOPC   H4S18464   5.538   3.477   8.130 -0.5953  1.4666 -0.5169
  154DOPC   C2518465   5.465   3.474   7.924 -0.3356 -0.1832  0.9077
  154DOPC   H5R18466   5.550   3.538   7.891 -1.1966  1.4466  1.7010
  154DOPC   H5S18467   5.367   3.498   7.877  0.1319 -2.0523 -1.1753
  154DOPC   C2618468   5.491   3.333   7.869  0.0954  0.2674  0.1712
  154DOPC   H6R18469   5.409   3.262   7.893  1.1567 -0.6565  1.2098
  154DOPC   H6S18470   5.580   3.299   7.927 -0.8457  0.0034  1.5199
  154DOPC   C2718471   5.517   3.336   7.718 -0.4335  0.2591  0.5860
  154DOPC   H7R18472   5.616   3.386   7.709 -0.3312 -0.2329 -1.4756
  154DOPC   H7S18473   5.436   3.395   7.669 -0.5848 -1.3639 -1.2151
  154DOPC   C2818474   5.509   3.198   7.645 -0.0193  0.1552 -0.8221
  154DOPC   H8R18475   5.498   3.211   7.535 -0.0832  0.7509 -0.7489
  154DOPC   H8S18476   5.421   3.140   7.681  0.5983  0.2873  1.0036
  154DOPC   C2918477   5.628   3.116   7.677  0.0015  0.1695  0.0503
  154DOPC   H9R18478   5.664   3.124   7.780  1.3816  0.5556 -0.4474
  154DOPC  C21018479   5.706   3.046   7.592  0.1760 -0.1565  0.4313
  154DOPC  H10R18480   5.804   3.008   7.627  0.6256 -0.1244 -0.7366
  154DOPC  C21118481   5.674   3.039   7.441 -0.2458  0.0316 -0.3810
  154DOPC  H11R18482   5.710   3.132   7.392  0.3239 -0.3479 -0.6999
  154DOPC  H11S18483   5.566   3.017   7.422 -0.1766 -1.3052  0.6313
  154DOPC  C21218484   5.754   2.923   7.374 -0.4954 -0.6565 -0.0694
  154DOPC  H12R18485   5.760   2.830   7.434 -0.2199  0.7713  2.2373
  154DOPC  H12S18486   5.861   2.951   7.368 -0.7186  0.1231 -0.6251
  154DOPC  C21318487   5.708   2.884   7.237 -0.2412  0.0764 -0.2651
  154DOPC  H13R18488   5.746   2.961   7.166  2.4837  0.7355  1.7142
  154DOPC  H13S18489   5.598   2.869   7.239 -0.1742 -0.4668 -0.4377
  154DOPC  C21418490   5.758   2.747   7.193  0.0591 -0.2207  0.0669
  154DOPC  H14R18491   5.732   2.667   7.267 -0.0919  1.3686  1.8216
  154DOPC  H14S18492   5.866   2.771   7.182 -0.0276 -0.4338 -1.3498
  154DOPC  C21518493   5.707   2.717   7.062 -0.3755 -0.2821 -0.0216
  154DOPC  H15R18494   5.715   2.804   6.993 -1.1082 -1.0326 -1.0889
  154DOPC  H15S18495   5.597   2.700   7.056 -0.4392  0.3301 -0.6588
  154DOPC  C21618496   5.779   2.596   7.004 -0.2004 -0.1453  0.4239
  154DOPC  H16R18497   5.751   2.506   7.064 -0.3583 -0.2087  0.2570
  154DOPC  H16S18498   5.890   2.603   7.012  0.2649 -3.0634 -1.6718
  154DOPC  C21718499   5.757   2.569   6.853 -0.0639 -0.2872  0.1558
  154DOPC  H17R18500   5.820   2.481   6.827 -1.0736 -0.4074 -2.0870
  154DOPC  H17S18501   5.786   2.657   6.792  0.6103 -0.3492  0.3754
  154DOPC  C21818502   5.612   2.538   6.811  0.0164 -0.1528  0.0107
  154DOPC  H18R18503   5.590   2.442   6.862  0.3362  0.0512  0.5361
  154DOPC  H18S18504   5.604   2.531   6.700 -1.3632 -1.1225  0.1526
  154DOPC  H18T18505   5.539   2.615   6.843  1.0997  1.7552 -1.8362
  154DOPC   C3318506   5.532   3.925   7.899  0.2326 -0.1974 -0.1642
  154DOPC   H3X18507   5.488   3.830   7.936  0.0589 -0.9935 -2.3073
  154DOPC   H3Y18508   5.639   3.916   7.926  0.2232 -1.6124 -0.5442
  154DOPC   C3418509   5.539   3.924   7.746  1.3451  0.4693 -0.2584
  154DOPC   H4X18510   5.584   4.013   7.698 -2.4511  2.8440  0.2034
  154DOPC   H4Y18511   5.434   3.929   7.710  1.9139 -1.2186 -2.4210
  154DOPC   C3518512   5.609   3.796   7.687 -0.5502  0.1689  0.1302
  154DOPC   H5X18513   5.584   3.704   7.744  3.9776 -1.2504  0.2420
  154DOPC   H5Y18514   5.719   3.812   7.691 -0.1787 -1.7352 -0.9071
  154DOPC   C3618515   5.574   3.784   7.535 -0.3996  0.5440  0.1791
  154DOPC   H6X18516   5.468   3.813   7.519 -1.4600 -1.4269  2.8409
  154DOPC   H6Y18517   5.637   3.847   7.468  1.2417 -0.5754  0.5990
  154DOPC   C3718518   5.588   3.640   7.486 -0.1946  0.9195 -0.2371
  154DOPC   H7X18519   5.695   3.616   7.502 -0.5103  0.5326  1.4769
  154DOPC   H7Y18520   5.530   3.570   7.549  0.3418  0.0885 -0.6429
  154DOPC   C3818521   5.548   3.617   7.336 -0.0086 -0.1569  0.1577
  154DOPC   H8X18522   5.603   3.692   7.276 -1.1531 -0.7616 -1.7388
  154DOPC   H8Y18523   5.442   3.638   7.311 -0.5185 -0.4642  1.9352
  154DOPC   C3918524   5.601   3.476   7.302 -0.0274 -0.1777  0.3345
  154DOPC   H9X18525   5.591   3.404   7.385 -0.4930 -0.5829 -0.0643
  154DOPC  C31018526   5.644   3.430   7.180  0.4610 -0.1217  0.8501
  154DOPC  H10X18527   5.690   3.330   7.172 -1.5369 -1.3064  2.8763
  154DOPC  C31118528   5.659   3.519   7.057  0.3594  0.3147  0.4878
  154DOPC  H11X18529   5.766   3.545   7.048  0.4011  0.5974  1.6497
  154DOPC  H11Y18530   5.601   3.613   7.067  0.5095  0.3763  0.8058
  154DOPC  C31218531   5.624   3.438   6.931 -0.0278 -0.2377 -0.1264
  154DOPC  H12X18532   5.525   3.390   6.940  0.7938 -1.9517  0.0719
  154DOPC  H12Y18533   5.695   3.353   6.923  2.0297  1.4314 -0.4519
  154DOPC  C31318534   5.631   3.510   6.797 -0.6105 -0.0225 -0.6016
  154DOPC  H13X18535   5.564   3.598   6.808  1.4706  1.4896  0.8591
  154DOPC  H13Y18536   5.738   3.538   6.784  0.0043 -2.1466 -0.5491
  154DOPC  C31418537   5.574   3.424   6.673  0.0703 -0.9337  0.5151
  154DOPC  H14X18538   5.601   3.491   6.588 -2.4041  0.7080  0.9263
  154DOPC  H14Y18539   5.622   3.324   6.666  1.8360 -0.1081  0.2801
  154DOPC  C31518540   5.423   3.408   6.681  0.6442  0.5937 -0.3184
  154DOPC  H15X18541   5.366   3.503   6.685 -0.4844 -0.1166  1.7644
  154DOPC  H15Y18542   5.399   3.354   6.775 -0.4634  1.3115 -0.1815
  154DOPC  C31618543   5.358   3.337   6.554  0.4781 -0.1115 -0.5228
  154DOPC  H16X18544   5.392   3.232   6.556 -0.2029 -0.3509  1.1982
  154DOPC  H16Y18545   5.247   3.341   6.559  0.5321  0.0613  1.0644
  154DOPC  C31718546   5.410   3.403   6.429  0.4041  0.1597 -0.3503
  154DOPC  H17X18547   5.395   3.511   6.453 -1.0193 -0.6997  3.1667
  154DOPC  H17Y18548   5.518   3.386   6.409  0.8841  1.0502  1.3397
  154DOPC  C31818549   5.338   3.356   6.302 -0.8933 -0.5333 -1.1586
  154DOPC  H18X18550   5.230   3.377   6.312 -0.7314  0.0339 -0.4950
  154DOPC  H18Y18551   5.361   3.416   6.211 -0.8983  0.8529 -0.2695
  154DOPC  H18Z18552   5.347   3.248   6.280 -2.1709 -0.5518 -1.6415
  155DOPC     N18553   1.270   3.736   8.650  0.0194  0.2413 -0.1049
  155DOPC   C1218554   1.350   3.828   8.553 -0.2719  0.3798  0.5246
  155DOPC  H12A18555   1.288   3.912   8.528 -1.4069 -0.7350 -0.5945
  155DOPC  H12B18556   1.371   3.766   8.467 -0.6894  0.4933  0.3360
  155DOPC   C1318557   1.262   3.806   8.782 -0.2282 -0.5644 -0.4318
  155DOPC  H13A18558   1.359   3.832   8.821 -1.2556  4.0420 -0.3894
  155DOPC  H13B18559   1.201   3.895   8.775 -0.5549 -0.9104 -2.6779
  155DOPC  H13C18560   1.216   3.739   8.853  1.8440 -1.4642  0.1407
  155DOPC   C1418561   1.357   3.621   8.682 -0.0097  0.6394 -0.1176
  155DOPC  H14A18562   1.302   3.555   8.748  2.3101 -0.8306  0.4495
  155DOPC  H14B18563   1.383   3.560   8.597 -0.9936 -0.2547  0.1941
  155DOPC  H14C18564   1.449   3.660   8.722  1.0927 -1.2473 -0.7005
  155DOPC   C1518565   1.139   3.696   8.596  0.3328  0.4837 -0.3713
  155DOPC  H15A18566   1.107   3.605   8.645  3.4550 -0.9368 -0.7402
  155DOPC  H15B18567   1.134   3.684   8.489  0.3605  2.8392 -0.7044
  155DOPC  H15C18568   1.082   3.785   8.619 -2.0948 -1.1343  0.2057
  155DOPC   C1118569   1.488   3.880   8.602 -0.1616  0.1780 -0.3847
  155DOPC  H11A18570   1.552   3.795   8.633  0.3403  0.1378 -1.4814
  155DOPC  H11B18571   1.526   3.934   8.512 -2.5933 -0.1428 -1.6827
  155DOPC     P18572   1.421   4.102   8.717 -0.0219  0.1968 -0.3236
  155DOPC   O1318573   1.526   4.209   8.696 -0.4118  0.4379 -0.0578
  155DOPC   O1418574   1.340   4.109   8.836  0.4640  0.3241  0.2097
  155DOPC   O1218575   1.484   3.962   8.722  0.4877  0.1264 -0.2928
  155DOPC   O1118576   1.340   4.099   8.582 -0.8447  0.4515  0.1050
  155DOPC    C118577   1.231   4.185   8.574 -0.2812 -0.4524 -0.4250
  155DOPC    HA18578   1.265   4.288   8.593 -0.3796 -0.7129  1.2691
  155DOPC    HB18579   1.152   4.178   8.651 -0.8607  0.3817 -0.9275
  155DOPC    C218580   1.159   4.176   8.440 -0.4545  0.9088 -0.6812
  155DOPC    HS18581   1.112   4.075   8.438 -1.8070  1.1684  4.4536
  155DOPC   O2118582   1.251   4.203   8.331 -0.0703 -0.0469 -0.0475
  155DOPC   C2118583   1.277   4.105   8.247  0.9873 -0.4022  0.5292
  155DOPC   O2218584   1.227   3.995   8.252  0.4790 -0.1443 -0.5587
  155DOPC   C2218585   1.372   4.145   8.136 -0.3991 -0.2530  0.8285
  155DOPC   H2R18586   1.468   4.100   8.168  0.6706 -0.2104 -2.0274
  155DOPC   H2S18587   1.394   4.254   8.134  0.0433 -0.3426 -0.2281
  155DOPC    C318588   1.037   4.275   8.431  0.7527  0.4012 -0.0818
  155DOPC    HX18589   1.087   4.372   8.452 -0.1400  0.8664 -0.0724
  155DOPC    HY18590   0.951   4.257   8.499  0.8483  1.6427  0.3763
  155DOPC   O3118591   0.983   4.301   8.301 -0.0557  0.1208  0.5103
  155DOPC   C3118592   0.903   4.197   8.258 -0.6559  0.1309  0.7055
  155DOPC   O3218593   0.884   4.099   8.323  0.0459  0.0363  0.4524
  155DOPC   C3218594   0.843   4.218   8.120 -0.8392  0.0955  0.1144
  155DOPC   H2X18595   0.785   4.313   8.115  1.2551  1.4016 -1.1194
  155DOPC   H2Y18596   0.932   4.231   8.055  0.2857 -0.7838  1.4210
  155DOPC   C2318597   1.341   4.090   7.993  0.1278  0.9658 -0.3987
  155DOPC   H3R18598   1.273   4.002   7.997  0.7084  0.5492  0.5493
  155DOPC   H3S18599   1.440   4.048   7.966 -0.2942 -2.8054  2.9225
  155DOPC   C2418600   1.289   4.204   7.899 -0.9732  0.2932  0.2083
  155DOPC   H4R18601   1.363   4.287   7.898  0.7243 -1.1456  0.0457
  155DOPC   H4S18602   1.192   4.246   7.932 -0.2865  2.6844 -0.5851
  155DOPC   C2518603   1.280   4.149   7.756 -0.1606  0.0763 -0.0129
  155DOPC   H5R18604   1.214   4.214   7.695  1.3794 -0.8160 -2.7990
  155DOPC   H5S18605   1.222   4.057   7.776 -2.4784  1.6114  0.7221
  155DOPC   C2618606   1.411   4.125   7.678  0.2431  0.0735  0.0334
  155DOPC   H6R18607   1.484   4.075   7.746  1.2083 -0.9696 -1.6830
  155DOPC   H6S18608   1.457   4.224   7.659  2.9729 -0.8236  1.3799
  155DOPC   C2718609   1.409   4.034   7.558  0.1368  0.2674  0.1107
  155DOPC   H7R18610   1.384   3.936   7.604  2.8424 -0.1526  0.8708
  155DOPC   H7S18611   1.510   4.015   7.515  2.1949  1.8609  3.7930
  155DOPC   C2818612   1.315   4.096   7.450  0.5841  0.1122 -0.0706
  155DOPC   H8R18613   1.339   4.205   7.447  1.1756 -0.0037 -2.7723
  155DOPC   H8S18614   1.211   4.095   7.489  1.1706  0.5783  1.5756
  155DOPC   C2918615   1.318   4.036   7.310  0.5174  0.2391  0.2016
  155DOPC   H9R18616   1.291   3.930   7.310 -1.9971  0.8079 -0.8647
  155DOPC  C21018617   1.323   4.098   7.191 -0.9918  0.3784 -0.2995
  155DOPC  H10R18618   1.315   4.028   7.107 -0.5566  1.2980 -1.1268
  155DOPC  C21118619   1.354   4.244   7.176  0.4256 -0.0119  0.5041
  155DOPC  H11R18620   1.422   4.259   7.089  2.3347 -0.0541  1.9067
  155DOPC  H11S18621   1.418   4.290   7.254  1.4921  0.8324 -0.8224
  155DOPC  C21218622   1.229   4.336   7.172  0.0507  0.2432  0.4661
  155DOPC  H12R18623   1.264   4.440   7.188 -0.2831  0.5592 -0.7538
  155DOPC  H12S18624   1.160   4.317   7.256 -1.1292  1.1939 -0.2640
  155DOPC  C21318625   1.148   4.328   7.040 -0.2213 -0.2129 -0.2094
  155DOPC  H13R18626   1.072   4.249   7.058 -2.3485  2.2054  2.3236
  155DOPC  H13S18627   1.212   4.306   6.953  0.8884 -1.2698  0.8352
  155DOPC  C21418628   1.075   4.458   6.999 -0.6008  0.0706  0.9037
  155DOPC  H14R18629   1.148   4.542   6.999 -0.6292  0.1043  0.3220
  155DOPC  H14S18630   0.997   4.480   7.075  0.5409  3.0872  1.3129
  155DOPC  C21518631   0.997   4.437   6.869  0.0552  0.5022  0.1244
  155DOPC  H15R18632   0.950   4.338   6.888  0.6147  0.3609  0.7796
  155DOPC  H15S18633   1.065   4.419   6.783  0.2865 -0.4179  0.4920
  155DOPC  C21618634   0.898   4.551   6.833  0.1472 -0.5534 -0.8106
  155DOPC  H16R18635   0.961   4.642   6.831 -1.2733  0.5469  1.0156
  155DOPC  H16S18636   0.823   4.569   6.913  0.7406 -0.4836 -0.2659
  155DOPC  C21718637   0.839   4.523   6.699  0.2664  0.7813  0.2513
  155DOPC  H17R18638   0.781   4.429   6.689  0.8416  0.2984  1.2681
  155DOPC  H17S18639   0.924   4.518   6.627 -2.0629 -1.2226 -2.5979
  155DOPC  C21818640   0.749   4.631   6.651 -0.0145 -0.8137 -0.5353
  155DOPC  H18R18641   0.819   4.717   6.659  0.3057 -1.1501  0.3968
  155DOPC  H18S18642   0.659   4.642   6.715 -1.5230  0.1175 -2.6920
  155DOPC  H18T18643   0.714   4.623   6.546 -2.4930 -1.8322  0.3096
  155DOPC   C3318644   0.771   4.095   8.057 -0.1053 -0.4397 -0.6200
  155DOPC   H3X18645   0.683   4.071   8.120 -1.0713  2.1820 -0.8693
  155DOPC   H3Y18646   0.841   4.009   8.068  0.7249  0.3485  0.5249
  155DOPC   C3418647   0.731   4.130   7.908  0.3556  0.2945 -0.4444
  155DOPC   H4X18648   0.680   4.229   7.902  0.8638  0.5454 -0.6749
  155DOPC   H4Y18649   0.660   4.050   7.877  0.9742  0.6694 -3.1064
  155DOPC   C3518650   0.838   4.130   7.800 -0.3651 -0.0978  0.6355
  155DOPC   H5X18651   0.902   4.040   7.810  0.2241  0.2244 -0.1514
  155DOPC   H5Y18652   0.905   4.217   7.820 -0.2755 -0.0050 -0.0602
  155DOPC   C3618653   0.788   4.153   7.656 -1.0645 -0.2311  0.3574
  155DOPC   H6X18654   0.730   4.060   7.635 -2.1158 -0.1121  2.4431
  155DOPC   H6Y18655   0.707   4.229   7.659 -0.4546  0.6439 -2.6142
  155DOPC   C3718656   0.899   4.163   7.542  0.0076 -0.1124  0.4742
  155DOPC   H7X18657   0.959   4.255   7.560  2.1374 -1.3712  0.2169
  155DOPC   H7Y18658   0.970   4.081   7.568 -0.6860  0.0214  3.0494
  155DOPC   C3818659   0.848   4.154   7.402  1.0503 -0.3103  0.7460
  155DOPC   H8X18660   0.907   4.212   7.328 -1.2658 -0.3457 -1.2410
  155DOPC   H8Y18661   0.745   4.194   7.406  1.4715  0.8362  0.5111
  155DOPC   C3918662   0.841   4.011   7.344 -0.1715 -0.4350  0.0696
  155DOPC   H9X18663   0.938   3.960   7.331  0.5274  0.7735  0.3889
  155DOPC  C31018664   0.733   3.943   7.290 -0.3643  0.2398  0.3205
  155DOPC  H10X18665   0.754   3.838   7.263 -0.9612  0.5908 -1.7051
  155DOPC  C31118666   0.588   3.979   7.289 -0.5037 -0.1726 -0.0363
  155DOPC  H11X18667   0.531   3.900   7.235  1.6348 -1.3593 -0.6428
  155DOPC  H11Y18668   0.593   4.069   7.225  1.8544 -1.0312 -1.1582
  155DOPC  C31218669   0.510   4.012   7.424 -0.0028  0.7450  0.1885
  155DOPC  H12X18670   0.402   4.032   7.414 -0.4781 -1.2477  0.9065
  155DOPC  H12Y18671   0.562   4.085   7.491 -1.4743  0.4967  1.6603
  155DOPC  C31318672   0.504   3.870   7.495  0.3622  0.5977  0.2343
  155DOPC  H13X18673   0.451   3.802   7.425 -1.7851 -0.2149  2.4992
  155DOPC  H13Y18674   0.604   3.823   7.505 -1.5042 -4.1057 -0.5126
  155DOPC  C31418675   0.431   3.863   7.629  0.1578 -0.4682  0.6765
  155DOPC  H14X18676   0.452   3.763   7.672  2.3707 -1.2473 -1.9158
  155DOPC  H14Y18677   0.469   3.940   7.699  1.0506 -0.7905  0.5615
  155DOPC  C31518678   0.278   3.880   7.612 -0.6464  0.0371  0.3636
  155DOPC  H15X18679   0.248   3.802   7.539 -0.1399  0.0118  0.1747
  155DOPC  H15Y18680   0.234   3.973   7.571 -1.7000 -0.4400  0.4001
  155DOPC  C31618681   0.205   3.851   7.739  0.1150 -0.0388  0.2358
  155DOPC  H16X18682   0.247   3.764   7.794 -0.2415 -0.4955 -0.2102
  155DOPC  H16Y18683   0.213   3.939   7.806 -0.5151  0.1782  0.0344
  155DOPC  C31718684   0.050   3.827   7.725 -0.0598  0.2180 -0.7605
  155DOPC  H17X18685   0.013   3.913   7.665 -1.3767 -0.3524 -0.7903
  155DOPC  H17Y18686   0.032   3.736   7.665 -3.5935  0.4267 -0.2704
  155DOPC  C31818687  -0.029   3.807   7.857  0.2466  0.0258  0.2346
  155DOPC  H18X18688  -0.004   3.889   7.928 -3.5416  0.2868  1.4665
  155DOPC  H18Y18689  -0.132   3.814   7.818  1.3725 -1.4968 -3.3976
  155DOPC  H18Z18690  -0.018   3.713   7.914  2.2708 -0.9740 -1.6776
  156DOPC     N18691   5.150   7.133   9.142 -0.5747 -0.0463  0.4974
  156DOPC   C1218692   5.300   7.178   9.150  0.9315 -0.2935  0.5372
  156DOPC  H12A18693   5.316   7.197   9.255  1.3937  0.7161  0.2916
  156DOPC  H12B18694   5.303   7.269   9.091  0.4634 -1.0365 -0.6695
  156DOPC   C1318695   5.140   7.014   9.238  0.4046 -0.8120  0.6964
  156DOPC  H13A18696   5.125   7.046   9.340  1.0834 -2.1711  1.2441
  156DOPC  H13B18697   5.058   6.953   9.203 -0.5373  1.1008 -0.5956
  156DOPC  H13C18698   5.226   6.951   9.223  1.2921  0.8078 -1.7652
  156DOPC   C1418699   5.107   7.104   9.000  0.4573 -0.2076 -0.1201
  156DOPC  H14A18700   5.000   7.094   8.987 -0.0065  3.8875 -0.7364
  156DOPC  H14B18701   5.138   7.184   8.935 -1.5922  0.2277 -0.6094
  156DOPC  H14C18702   5.155   7.014   8.964  0.9802  0.3487 -0.8360
  156DOPC   C1518703   5.065   7.244   9.196  0.1714 -0.0218  0.1553
  156DOPC  H15A18704   4.960   7.217   9.190  0.2127 -0.7338  2.0442
  156DOPC  H15B18705   5.092   7.336   9.146 -0.8199  0.9794  1.3867
  156DOPC  H15C18706   5.084   7.261   9.301 -2.5216 -1.9095  1.0545
  156DOPC   C1118707   5.406   7.077   9.108 -0.2585  0.0035  0.1822
  156DOPC  H11A18708   5.377   7.025   9.014  1.0409 -2.5379  1.1003
  156DOPC  H11B18709   5.503   7.129   9.094 -0.0538 -0.5267 -0.4372
  156DOPC     P18710   5.512   6.851   9.196 -0.0044  0.1088  0.4549
  156DOPC   O1318711   5.447   6.722   9.235  0.3664 -0.2676 -0.1829
  156DOPC   O1418712   5.634   6.890   9.264 -0.4508  0.1011  0.3972
  156DOPC   O1218713   5.411   6.966   9.209  0.1722 -0.2097 -0.3088
  156DOPC   O1118714   5.539   6.840   9.040 -0.1073 -1.0410 -0.4398
  156DOPC    C118715   5.446   6.781   8.948  0.0331 -0.1830  0.0292
  156DOPC    HA18716   5.345   6.828   8.949 -0.6997 -1.6032 -1.6538
  156DOPC    HB18717   5.435   6.672   8.969 -1.6399  0.1106  0.8583
  156DOPC    C218718   5.494   6.802   8.809  0.0355  0.0685 -0.1176
  156DOPC    HS18719   5.591   6.748   8.797 -0.4377 -1.2733  1.6112
  156DOPC   O2118720   5.505   6.946   8.779  0.0091  0.5848 -0.1095
  156DOPC   C2118721   5.598   6.971   8.688 -0.4838  0.1394  0.5595
  156DOPC   O2218722   5.699   6.903   8.668 -0.0724  0.2193 -0.8298
  156DOPC   C2218723   5.570   7.103   8.626  0.3630 -0.2379  0.8042
  156DOPC   H2R18724   5.583   7.179   8.706  1.5200  1.3586 -0.8199
  156DOPC   H2S18725   5.466   7.109   8.587  0.8164  1.1373 -0.2569
  156DOPC    C318726   5.388   6.753   8.700 -0.9628  0.2894  0.2445
  156DOPC    HX18727   5.294   6.810   8.716 -0.2457  1.1685  1.5285
  156DOPC    HY18728   5.365   6.651   8.738  0.8718  0.6447  2.5272
  156DOPC   O3118729   5.438   6.753   8.565 -0.1172  0.5327 -0.1670
  156DOPC   C3118730   5.518   6.658   8.529 -0.1750 -0.1363  0.6450
  156DOPC   O3218731   5.564   6.569   8.598 -0.1850  0.2861 -0.1571
  156DOPC   C3218732   5.549   6.682   8.384  0.3795  0.1627 -0.4323
  156DOPC   H2X18733   5.459   6.705   8.324  0.5486 -1.4088 -1.3423
  156DOPC   H2Y18734   5.609   6.775   8.390  0.5495  0.1298 -1.4444
  156DOPC   C2318735   5.656   7.125   8.496 -0.7767  0.1911 -0.2178
  156DOPC   H3R18736   5.653   7.042   8.422  0.8047  1.3869 -1.7084
  156DOPC   H3S18737   5.762   7.126   8.528 -0.8198  3.3992  0.1208
  156DOPC   C2418738   5.631   7.256   8.420 -0.2672  0.1499  0.6353
  156DOPC   H4R18739   5.647   7.343   8.486 -1.2717  0.6568  0.2268
  156DOPC   H4S18740   5.521   7.256   8.400 -0.4385  0.9325  1.5133
  156DOPC   C2518741   5.706   7.279   8.285 -0.4044  0.5842  0.1867
  156DOPC   H5R18742   5.708   7.185   8.226 -1.4084  0.8056 -0.2332
  156DOPC   H5S18743   5.813   7.294   8.310  0.3996 -2.6266 -0.8676
  156DOPC   C2618744   5.656   7.398   8.207  0.6655 -0.9328  0.4379
  156DOPC   H6R18745   5.667   7.485   8.276 -1.2021 -0.9664  0.8445
  156DOPC   H6S18746   5.547   7.388   8.187  1.0289 -1.8970 -1.2412
  156DOPC   C2718747   5.731   7.430   8.082  0.4575  0.6032  1.0927
  156DOPC   H7R18748   5.738   7.339   8.018  0.8491  2.0630 -1.0484
  156DOPC   H7S18749   5.836   7.457   8.104  0.0206  0.9976  2.8041
  156DOPC   C2818750   5.665   7.536   7.989 -0.2057 -0.6968 -0.1879
  156DOPC   H8R18751   5.571   7.498   7.943 -0.5075  1.4325 -1.5066
  156DOPC   H8S18752   5.726   7.560   7.900 -1.2167  1.3322 -0.4015
  156DOPC   C2918753   5.645   7.667   8.059  0.8631 -0.0540 -0.5416
  156DOPC   H9R18754   5.641   7.652   8.168  2.0434  1.2269 -0.2978
  156DOPC  C21018755   5.651   7.791   8.011  0.0380  0.1513  0.0634
  156DOPC  H10R18756   5.611   7.879   8.064 -1.4984 -2.1131  2.9636
  156DOPC  C21118757   5.681   7.821   7.865  0.3418 -0.7131  0.3439
  156DOPC  H11R18758   5.680   7.738   7.792  4.4511 -0.9466  0.3540
  156DOPC  H11S18759   5.787   7.854   7.862  0.2278  0.1767  3.1529
  156DOPC  C21218760   5.596   7.937   7.803  0.0949 -0.0313  0.2480
  156DOPC  H12R18761   5.620   8.033   7.854 -0.4993 -0.3774  1.1946
  156DOPC  H12S18762   5.487   7.926   7.820  0.3317 -0.4742  1.5680
  156DOPC  C21318763   5.622   7.942   7.653  0.1004  0.1557  0.3012
  156DOPC  H13R18764   5.589   7.846   7.608  0.0327 -0.0160  0.7120
  156DOPC  H13S18765   5.727   7.970   7.632 -0.8765  2.5818 -2.0894
  156DOPC  C21418766   5.531   8.058   7.602  0.0368  0.2615 -0.0195
  156DOPC  H14R18767   5.545   8.135   7.680 -0.9486  0.3993  0.0355
  156DOPC  H14S18768   5.427   8.018   7.604  0.2694 -0.3481  0.4032
  156DOPC  C21518769   5.562   8.113   7.461  0.0289 -0.0927 -0.3164
  156DOPC  H15R18770   5.467   8.141   7.410  1.1671 -0.2257 -2.6748
  156DOPC  H15S18771   5.619   8.034   7.406  0.0136 -0.8372  0.7020
  156DOPC  C21618772   5.649   8.240   7.465 -0.3340  0.4930  0.1150
  156DOPC  H16R18773   5.679   8.278   7.365  0.9820  0.7930  0.6041
  156DOPC  H16S18774   5.740   8.202   7.516 -0.8861 -2.2169 -0.7471
  156DOPC  C21718775   5.593   8.361   7.535 -0.1454 -0.5881  0.0986
  156DOPC  H17R18776   5.546   8.333   7.631 -0.7405  1.5649  0.4994
  156DOPC  H17S18777   5.507   8.397   7.475  1.0954  2.0674 -0.2305
  156DOPC  C21818778   5.699   8.470   7.571  0.7636  1.0874 -0.1402
  156DOPC  H18R18779   5.766   8.436   7.652  0.0540 -2.5493 -0.8805
  156DOPC  H18S18780   5.649   8.567   7.593 -0.4122  0.7609 -1.2280
  156DOPC  H18T18781   5.770   8.492   7.488  0.3736  0.6337 -0.6065
  156DOPC   C3318782   5.630   6.583   8.305  0.3578 -0.3045 -0.5174
  156DOPC   H3X18783   5.694   6.524   8.374 -0.0865  1.2569  1.3022
  156DOPC   H3Y18784   5.700   6.614   8.225 -0.0421 -1.4575 -1.3592
  156DOPC   C3418785   5.536   6.490   8.234  0.2859  0.6566 -0.2763
  156DOPC   H4X18786   5.444   6.475   8.294 -0.0765  1.2183 -0.6857
  156DOPC   H4Y18787   5.577   6.392   8.201 -1.5292 -0.6983  1.2616
  156DOPC   C3518788   5.482   6.536   8.100 -0.1664  0.3712  0.1616
  156DOPC   H5X18789   5.570   6.565   8.039 -1.8755  0.9568 -2.1481
  156DOPC   H5Y18790   5.412   6.621   8.112  0.3541  0.8778 -0.3409
  156DOPC   C3618791   5.415   6.412   8.027 -0.5784 -0.3977  0.6670
  156DOPC   H6X18792   5.494   6.337   8.006 -1.0664 -0.3388 -1.6874
  156DOPC   H6Y18793   5.327   6.380   8.086 -1.1535 -2.4311 -1.1643
  156DOPC   C3718794   5.360   6.454   7.891 -0.4895 -0.0113  0.2324
  156DOPC   H7X18795   5.312   6.554   7.900  3.6518  2.2905 -1.0768
  156DOPC   H7Y18796   5.449   6.475   7.829  0.0721 -2.4981  0.0835
  156DOPC   C3818797   5.290   6.337   7.819  0.2822 -0.1826  0.1894
  156DOPC   H8X18798   5.211   6.306   7.890  0.8628 -1.7754  0.1788
  156DOPC   H8Y18799   5.359   6.251   7.805  0.0983 -0.4256  0.7543
  156DOPC   C3918800   5.236   6.391   7.689 -0.1918  0.2499  0.0471
  156DOPC   H9X18801   5.192   6.490   7.707 -0.8148  0.5977 -2.8769
  156DOPC  C31018802   5.259   6.348   7.564  0.1744 -0.1866 -0.9667
  156DOPC  H10X18803   5.214   6.401   7.479 -0.7103 -2.1806 -1.7997
  156DOPC  C31118804   5.337   6.227   7.524 -0.4854  0.1274 -0.2456
  156DOPC  H11X18805   5.375   6.170   7.611 -1.7117 -1.2162 -0.5365
  156DOPC  H11Y18806   5.426   6.259   7.466 -0.1339 -0.7783 -0.2193
  156DOPC  C31218807   5.240   6.135   7.442  0.0959  0.1136 -0.1177
  156DOPC  H12X18808   5.147   6.105   7.495  0.9251  0.8488  1.8496
  156DOPC  H12Y18809   5.292   6.041   7.415 -1.5052 -0.5220 -1.1195
  156DOPC  C31318810   5.196   6.198   7.307  0.4234  0.1877 -0.2231
  156DOPC  H13X18811   5.112   6.271   7.309 -1.6035 -1.9805 -0.6677
  156DOPC  H13Y18812   5.285   6.248   7.265  1.0378 -1.6718 -1.2442
  156DOPC  C31418813   5.159   6.088   7.211 -0.6138  0.3235 -0.1107
  156DOPC  H14X18814   5.129   6.130   7.112 -1.3579 -1.7476 -0.8372
  156DOPC  H14Y18815   5.247   6.024   7.187 -0.9715  0.7159 -2.8230
  156DOPC  C31518816   5.057   5.982   7.250 -0.4488 -0.1051  0.3057
  156DOPC  H15X18817   5.080   5.922   7.341  0.3341 -3.1206 -1.7610
  156DOPC  H15Y18818   5.062   5.903   7.173  2.2674  0.0864  0.1774
  156DOPC  C31618819   4.918   6.040   7.269  0.1610 -0.1847  0.2103
  156DOPC  H16X18820   4.844   5.957   7.282  0.0535 -0.2342 -0.6718
  156DOPC  H16Y18821   4.918   6.096   7.365 -1.3397 -1.4557  1.0057
  156DOPC  C31718822   4.863   6.135   7.156 -0.5847 -0.1764  0.2374
  156DOPC  H17X18823   4.918   6.231   7.169  0.3630 -0.5486 -0.7979
  156DOPC  H17Y18824   4.884   6.095   7.054 -0.8422  1.1278 -0.3482
  156DOPC  C31818825   4.714   6.151   7.169 -0.2274 -0.0356 -0.1202
  156DOPC  H18X18826   4.652   6.062   7.145 -1.0843  0.4842  0.1324
  156DOPC  H18Y18827   4.671   6.175   7.269 -3.3879 -2.6680 -0.6962
  156DOPC  H18Z18828   4.688   6.226   7.091  0.0139 -0.4556 -0.6096
  157DOPC     N18829   4.376   1.363   8.821  0.0665 -0.3479  0.3759
  157DOPC   C1218830   4.508   1.416   8.865  0.3034 -0.3281  0.6909
  157DOPC  H12A18831   4.506   1.444   8.969  0.3815 -0.2681  0.6756
  157DOPC  H12B18832   4.519   1.510   8.813 -1.3458  0.1361  1.1184
  157DOPC   C1318833   4.367   1.315   8.679  0.2240  0.0931 -0.4925
  157DOPC  H13A18834   4.444   1.243   8.656  1.1433  1.1408 -0.8074
  157DOPC  H13B18835   4.271   1.270   8.660 -0.0953  0.2362  0.7138
  157DOPC  H13C18836   4.379   1.399   8.612 -0.2044 -0.2386 -0.9926
  157DOPC   C1418837   4.265   1.472   8.835  0.0802 -0.0500 -0.2580
  157DOPC  H14A18838   4.280   1.512   8.934  0.8951  0.1931 -0.4685
  157DOPC  H14B18839   4.274   1.551   8.761  0.7311 -0.9090 -1.1294
  157DOPC  H14C18840   4.169   1.423   8.834  1.2364 -2.4479 -0.7881
  157DOPC   C1518841   4.329   1.241   8.899 -0.0568 -0.0622  0.4141
  157DOPC  H15A18842   4.302   1.279   8.997 -1.0163  1.9793 -0.5778
  157DOPC  H15B18843   4.411   1.172   8.912 -0.5121 -0.6093  0.4150
  157DOPC  H15C18844   4.243   1.186   8.864  0.4773 -1.2797  0.9584
  157DOPC   C1118845   4.642   1.339   8.833  0.9395 -0.3410 -0.3375
  157DOPC  H11A18846   4.716   1.404   8.885 -0.6734  1.4834 -0.2062
  157DOPC  H11B18847   4.658   1.242   8.886 -2.3298 -0.8416 -0.0431
  157DOPC     P18848   4.672   1.440   8.597  0.3878  0.3104  0.7291
  157DOPC   O1318849   4.655   1.562   8.678  0.0360  0.3850 -0.2541
  157DOPC   O1418850   4.572   1.424   8.484 -0.5337 -0.1815  0.2268
  157DOPC   O1218851   4.647   1.317   8.694  0.0846  0.6488 -0.3671
  157DOPC   O1118852   4.821   1.422   8.539 -0.4671  0.6204 -0.2037
  157DOPC    C118853   4.868   1.286   8.513  0.2939 -0.2373 -0.1423
  157DOPC    HA18854   4.793   1.205   8.531  2.3934 -2.1093  0.5724
  157DOPC    HB18855   4.957   1.263   8.575  0.2943  0.1094 -0.0103
  157DOPC    C218856   4.911   1.289   8.362  0.7942 -0.1362 -0.2029
  157DOPC    HS18857   4.962   1.193   8.338  1.8923  0.5565 -0.7625
  157DOPC   O2118858   5.005   1.394   8.339  0.0256  0.0438  0.2771
  157DOPC   C2118859   5.108   1.380   8.262 -0.1296  0.7895  0.7950
  157DOPC   O2218860   5.153   1.276   8.213 -0.0753 -0.3336  0.3033
  157DOPC   C2218861   5.158   1.513   8.216  0.0489  0.7976 -0.3343
  157DOPC   H2R18862   5.267   1.502   8.197 -0.2893 -0.3890 -1.8816
  157DOPC   H2S18863   5.130   1.598   8.282  2.0313  2.7355 -1.8516
  157DOPC    C318864   4.792   1.293   8.263 -0.8228  0.6410 -0.0136
  157DOPC    HX18865   4.758   1.399   8.265 -2.1288  0.2280  2.0014
  157DOPC    HY18866   4.698   1.241   8.290 -2.4640  2.9997 -0.8796
  157DOPC   O3118867   4.832   1.272   8.131 -0.1299 -0.4394  0.4603
  157DOPC   C3118868   4.850   1.149   8.093  0.0043  0.3130  0.0361
  157DOPC   O3218869   4.837   1.051   8.161  0.5337  0.1670 -0.1903
  157DOPC   C3218870   4.892   1.147   7.949 -0.1617 -0.2764  0.0620
  157DOPC   H2X18871   4.816   1.213   7.900  1.6002  3.0963  1.5446
  157DOPC   H2Y18872   4.996   1.185   7.948 -0.2605  0.1875  2.3829
  157DOPC   C2318873   5.082   1.547   8.083  0.3032 -0.2114  0.4565
  157DOPC   H3R18874   5.088   1.657   8.068  0.1183 -0.6059 -3.5046
  157DOPC   H3S18875   4.972   1.536   8.094  0.1103  0.5739 -0.5055
  157DOPC   C2418876   5.143   1.475   7.963  0.6921  0.3841 -0.2569
  157DOPC   H4R18877   5.131   1.365   7.978 -0.3941  0.5673  0.3376
  157DOPC   H4S18878   5.252   1.495   7.963  0.6995  0.3528  0.1246
  157DOPC   C2518879   5.080   1.527   7.833  0.5147  0.2088  0.3451
  157DOPC   H5R18880   5.101   1.633   7.807 -1.1915  0.4453 -0.1963
  157DOPC   H5S18881   4.971   1.524   7.853  0.6581 -1.2770  1.0238
  157DOPC   C2618882   5.136   1.446   7.713 -0.2302 -0.4463 -0.1761
  157DOPC   H6R18883   5.076   1.353   7.717 -2.8707  1.1754  0.5578
  157DOPC   H6S18884   5.247   1.438   7.716  0.2095  1.7984 -4.0257
  157DOPC   C2718885   5.100   1.511   7.580 -0.1792 -0.3642 -0.2207
  157DOPC   H7R18886   5.129   1.617   7.594  0.3671 -0.8292  2.7638
  157DOPC   H7S18887   4.989   1.509   7.575 -0.2329 -4.4654 -1.1349
  157DOPC   C2818888   5.168   1.445   7.453 -0.1531 -0.0108 -0.1081
  157DOPC   H8R18889   5.126   1.342   7.460 -1.5953  0.6201  1.0241
  157DOPC   H8S18890   5.277   1.433   7.470  0.2484  2.3158 -0.6932
  157DOPC   C2918891   5.141   1.513   7.318 -0.2403 -0.0827 -0.5362
  157DOPC   H9R18892   5.066   1.593   7.323 -1.8187 -1.5625  0.3542
  157DOPC  C21018893   5.193   1.483   7.196 -0.2198  0.1623 -0.6608
  157DOPC  H10R18894   5.167   1.553   7.115 -2.4960  0.4346  0.2192
  157DOPC  C21118895   5.284   1.360   7.177  0.5639  0.8021 -0.1038
  157DOPC  H11R18896   5.226   1.268   7.153  1.4196 -0.0925  1.1086
  157DOPC  H11S18897   5.354   1.344   7.262  1.4777  1.3670 -0.7407
  157DOPC  C21218898   5.380   1.379   7.055 -0.6312 -0.4703 -0.2782
  157DOPC  H12R18899   5.466   1.309   7.065  0.1101  0.5046  0.3668
  157DOPC  H12S18900   5.431   1.478   7.061  0.7666 -1.2008  0.1785
  157DOPC  C21318901   5.309   1.370   6.916  0.0472  0.0825  0.1699
  157DOPC  H13R18902   5.229   1.444   6.895 -0.2626 -0.3006 -0.0355
  157DOPC  H13S18903   5.268   1.269   6.893 -2.1535  0.7906  0.7256
  157DOPC  C21418904   5.412   1.389   6.798  0.0455 -0.2573  0.5459
  157DOPC  H14R18905   5.491   1.311   6.804  1.4304  1.1962  2.6202
  157DOPC  H14S18906   5.462   1.487   6.813  2.5475 -1.3570 -0.1103
  157DOPC  C21518907   5.334   1.398   6.663  0.4536 -0.1481  0.6156
  157DOPC  H15R18908   5.404   1.412   6.577 -0.5604  0.0104 -0.2103
  157DOPC  H15S18909   5.268   1.487   6.675 -1.9295 -1.6168 -0.8556
  157DOPC  C21618910   5.224   1.291   6.640  0.7056  0.1361 -0.0588
  157DOPC  H16R18911   5.137   1.312   6.706  0.2364  0.3658 -0.7358
  157DOPC  H16S18912   5.265   1.192   6.669  0.7125 -0.6810 -2.5879
  157DOPC  C21718913   5.173   1.278   6.495 -0.5071 -0.0055 -0.1398
  157DOPC  H17R18914   5.133   1.372   6.452  1.2709 -0.2525 -2.5725
  157DOPC  H17S18915   5.087   1.208   6.504  0.4779 -1.3002 -0.4447
  157DOPC  C21818916   5.271   1.225   6.395  0.4542 -0.1561 -0.4697
  157DOPC  H18R18917   5.364   1.284   6.384 -0.3293  0.8250 -2.4121
  157DOPC  H18S18918   5.234   1.226   6.290  1.3216 -1.7318 -0.8255
  157DOPC  H18T18919   5.300   1.122   6.426 -0.3596 -0.2147  0.1216
  157DOPC   C3318920   4.877   1.006   7.892 -0.5077 -0.1173 -0.2574
  157DOPC   H3X18921   4.773   0.970   7.905 -0.4878  0.6877  2.9672
  157DOPC   H3Y18922   4.942   0.943   7.956 -0.2114 -1.1762 -1.5477
  157DOPC   C3418923   4.926   0.992   7.744 -0.2103  0.0962 -0.4152
  157DOPC   H4X18924   4.916   0.891   7.699  2.7923  0.1236 -1.3874
  157DOPC   H4Y18925   5.037   1.001   7.750 -0.3176  0.9447  0.7699
  157DOPC   C3518926   4.883   1.115   7.651 -0.2821  0.2115  0.5155
  157DOPC   H5X18927   4.949   1.198   7.682  2.5925 -1.7696  0.0914
  157DOPC   H5Y18928   4.778   1.136   7.680 -0.2859 -0.8596  1.3129
  157DOPC   C3618929   4.885   1.084   7.500 -0.0839  0.5858 -0.7049
  157DOPC   H6X18930   4.988   1.055   7.471  1.2347  1.5780  2.5262
  157DOPC   H6Y18931   4.821   0.994   7.499  1.6619 -0.7655  0.8448
  157DOPC   C3718932   4.836   1.199   7.419 -0.2718  0.1174 -0.7791
  157DOPC   H7X18933   4.742   1.227   7.472 -1.0803 -1.5685 -1.2589
  157DOPC   H7Y18934   4.904   1.287   7.420 -0.4515  0.2744  0.8648
  157DOPC   C3818935   4.821   1.163   7.268  0.2755 -0.1844  0.0431
  157DOPC   H8X18936   4.782   1.248   7.209  0.9392  0.1980  0.1505
  157DOPC   H8Y18937   4.744   1.082   7.266 -2.0444  1.6916  3.0593
  157DOPC   C3918938   4.946   1.129   7.198 -0.2606 -0.1500  0.1528
  157DOPC   H9X18939   5.010   1.211   7.161 -1.2487  0.6782  0.2214
  157DOPC  C31018940   4.987   1.007   7.160  0.1675  0.6595  0.1145
  157DOPC  H10X18941   5.083   1.006   7.107 -0.6528  1.8347 -1.4909
  157DOPC  C31118942   4.916   0.874   7.182 -0.2348  0.4663  0.0544
  157DOPC  H11X18943   4.817   0.878   7.131  0.2363  0.0099 -0.9271
  157DOPC  H11Y18944   4.898   0.853   7.289  1.0837 -0.6239  0.0852
  157DOPC  C31218945   4.997   0.762   7.124 -0.4241  0.4744 -0.3504
  157DOPC  H12X18946   5.017   0.790   7.018  0.0446  0.3011 -0.3118
  157DOPC  H12Y18947   4.935   0.669   7.122  1.8090 -1.1826  1.3473
  157DOPC  C31318948   5.127   0.737   7.206  0.0932 -0.2402 -0.0149
  157DOPC  H13X18949   5.187   0.657   7.160 -0.9719 -1.7023  1.0500
  157DOPC  H13Y18950   5.186   0.831   7.210  0.9702 -0.7455 -0.8617
  157DOPC  C31418951   5.095   0.679   7.342 -0.0021  0.2200 -0.5462
  157DOPC  H14X18952   5.014   0.741   7.387 -0.6627 -0.0575 -1.3472
  157DOPC  H14Y18953   5.053   0.576   7.337  0.1673  0.1960 -1.6303
  157DOPC  C31518954   5.230   0.667   7.413 -0.6695 -0.4166  0.1141
  157DOPC  H15X18955   5.265   0.772   7.412  3.4998 -1.5981  0.6673
  157DOPC  H15Y18956   5.289   0.604   7.343 -0.7359  1.3306 -1.5875
  157DOPC  C31618957   5.221   0.600   7.550  0.5793  0.2014 -0.0896
  157DOPC  H16X18958   5.143   0.522   7.556  1.2673 -0.4020  1.7771
  157DOPC  H16Y18959   5.319   0.556   7.576  0.1970 -0.7788 -0.2569
  157DOPC  C31718960   5.180   0.704   7.659 -1.1521 -0.5487  0.1221
  157DOPC  H17X18961   5.265   0.775   7.665  1.1331 -3.0555 -0.5702
  157DOPC  H17Y18962   5.085   0.752   7.627 -2.1384 -3.0849 -1.1175
  157DOPC  C31818963   5.165   0.648   7.800 -0.4603  0.5019 -0.2771
  157DOPC  H18X18964   5.245   0.574   7.819 -1.4904  0.1253  3.2071
  157DOPC  H18Y18965   5.167   0.716   7.887  0.5848  0.6940 -0.4485
  157DOPC  H18Z18966   5.070   0.590   7.806 -1.0172  1.3476 -0.8096
  158DOPC     N18967   2.312   0.350   8.456 -0.1005  0.4356  0.2116
  158DOPC   C1218968   2.427   0.440   8.404 -0.5861 -0.1071 -0.4178
  158DOPC  H12A18969   2.461   0.406   8.307  2.0154  1.1369 -0.0084
  158DOPC  H12B18970   2.495   0.423   8.485 -2.0097 -1.1062  0.6221
  158DOPC   C1318971   2.201   0.369   8.359 -0.1113  0.1640 -0.2189
  158DOPC  H13A18972   2.229   0.354   8.256 -0.5005  1.3074 -0.5081
  158DOPC  H13B18973   2.115   0.304   8.372  1.9191 -2.4162  1.1526
  158DOPC  H13C18974   2.158   0.468   8.360 -2.8786 -0.9346 -0.6318
  158DOPC   C1418975   2.264   0.385   8.591  0.5025  0.6554 -0.0547
  158DOPC  H14A18976   2.195   0.309   8.625 -1.6398  1.2748 -2.6746
  158DOPC  H14B18977   2.342   0.393   8.665 -1.0303 -0.9947  1.8577
  158DOPC  H14C18978   2.211   0.479   8.595 -1.4462 -0.4335  1.8599
  158DOPC   C1518979   2.365   0.204   8.453 -0.2316 -0.6418 -0.8291
  158DOPC  H15A18980   2.294   0.131   8.490 -1.3722  1.1718  0.7751
  158DOPC  H15B18981   2.450   0.203   8.520 -1.7827  2.4291  1.4315
  158DOPC  H15C18982   2.397   0.180   8.353  0.9564  0.5048 -0.7516
  158DOPC   C1118983   2.388   0.591   8.386 -0.4990 -0.2746 -0.0289
  158DOPC  H11A18984   2.299   0.611   8.324  1.6132  0.2526 -3.1427
  158DOPC  H11B18985   2.360   0.602   8.493 -0.8742 -1.9506  0.0828
  158DOPC     P18986   2.539   0.811   8.390  0.1275  0.1163 -0.2378
  158DOPC   O1318987   2.676   0.842   8.340  0.3790 -0.0578  0.0046
  158DOPC   O1418988   2.517   0.816   8.537  0.1146  0.3908  0.2134
  158DOPC   O1218989   2.496   0.670   8.339  0.0486 -0.2469 -0.4729
  158DOPC   O1118990   2.437   0.913   8.339  0.0741  0.3503  0.9619
  158DOPC    C118991   2.372   0.894   8.210 -0.2911  0.0101  0.1657
  158DOPC    HA18992   2.279   0.955   8.213  0.3862  1.0584  0.4239
  158DOPC    HB18993   2.317   0.798   8.204 -0.3557  0.0410  0.2604
  158DOPC    C218994   2.452   0.930   8.085 -0.0187  0.2327  0.0030
  158DOPC    HS18995   2.539   0.861   8.083  0.6920  1.0772 -2.1951
  158DOPC   O2118996   2.492   1.072   8.081  0.4355  0.5337 -0.1783
  158DOPC   C2118997   2.610   1.092   8.017  0.1876 -0.5396  0.0468
  158DOPC   O2218998   2.681   1.001   7.981  0.4280 -0.2415 -0.2985
  158DOPC   C2218999   2.637   1.245   7.997 -1.2422  0.2611 -0.3948
  158DOPC   H2R19000   2.747   1.259   8.009 -1.7484  2.8497  2.6966
  158DOPC   H2S19001   2.581   1.301   8.075 -1.5429  1.5312 -1.4736
  158DOPC    C319002   2.367   0.893   7.965  0.4575  0.1453  0.5166
  158DOPC    HX19003   2.270   0.947   7.969  1.0937  1.2560  2.3820
  158DOPC    HY19004   2.344   0.785   7.966 -0.2736  0.2349 -1.7387
  158DOPC   O3119005   2.432   0.924   7.843  0.6559 -0.2295  0.0956
  158DOPC   C3119006   2.510   0.820   7.790  0.7481  0.0938  0.5372
  158DOPC   O3219007   2.530   0.712   7.842  0.2908 -0.0741 -0.1576
  158DOPC   C3219008   2.562   0.865   7.654  0.1990 -0.4506  0.3190
  158DOPC   H2X19009   2.483   0.880   7.578  0.8847 -1.2841 -0.5853
  158DOPC   H2Y19010   2.608   0.966   7.667  1.9106 -1.4666  3.0720
  158DOPC   C2319011   2.588   1.281   7.853 -0.6248  0.3917  0.4722
  158DOPC   H3R19012   2.478   1.276   7.857 -0.7761  1.8241 -1.0241
  158DOPC   H3S19013   2.628   1.201   7.787 -1.4073 -0.4650  1.0099
  158DOPC   C2419014   2.647   1.422   7.830 -0.4176  0.5051  0.2769
  158DOPC   H4R19015   2.754   1.402   7.804 -1.4392 -0.8604 -3.6527
  158DOPC   H4S19016   2.646   1.480   7.924  0.7214  2.0620 -0.6270
  158DOPC   C2519017   2.570   1.489   7.713  0.2141  0.2333 -0.2989
  158DOPC   H5R19018   2.470   1.516   7.753  1.1898  1.0951  1.7393
  158DOPC   H5S19019   2.562   1.409   7.637  4.8034 -1.3329  0.5241
  158DOPC   C2619020   2.648   1.600   7.649 -0.3955 -0.1163  0.1301
  158DOPC   H6R19021   2.690   1.667   7.728  1.1922  2.1239 -2.4396
  158DOPC   H6S19022   2.582   1.663   7.586 -1.2852  0.1363  1.2775
  158DOPC   C2719023   2.774   1.554   7.567 -0.2437 -0.3210  0.0521
  158DOPC   H7R19024   2.837   1.484   7.627  2.1402  1.5823 -0.0525
  158DOPC   H7S19025   2.835   1.642   7.539 -2.1614  1.4385  1.1353
  158DOPC   C2819026   2.748   1.480   7.432  0.2817 -0.5268 -0.1722
  158DOPC   H8R19027   2.675   1.541   7.374  0.2658  0.4638  0.8559
  158DOPC   H8S19028   2.692   1.385   7.444  0.3856 -0.8962 -2.1887
  158DOPC   C2919029   2.875   1.470   7.349 -0.8017  1.1502  0.0802
  158DOPC   H9R19030   2.906   1.560   7.294 -1.4460  1.8608  0.8613
  158DOPC  C21019031   2.933   1.356   7.305  0.1099  0.5868  0.3563
  158DOPC  H10R19032   3.029   1.366   7.254 -0.1826 -0.3213 -0.3928
  158DOPC  C21119033   2.897   1.208   7.325  0.2188  0.5009  0.3074
  158DOPC  H11R19034   2.827   1.194   7.411 -0.8040 -2.8221 -0.9367
  158DOPC  H11S19035   2.990   1.151   7.345  1.2930  2.1633  0.3101
  158DOPC  C21219036   2.826   1.154   7.195  0.6691  0.0555 -0.1487
  158DOPC  H12R19037   2.747   1.227   7.168  0.0893 -0.0537  1.1847
  158DOPC  H12S19038   2.781   1.054   7.212  0.6387 -0.3133 -2.1501
  158DOPC  C21319039   2.923   1.153   7.076  0.7171  0.5659 -0.1843
  158DOPC  H13R19040   3.020   1.111   7.108  0.5835 -1.9553 -2.6557
  158DOPC  H13S19041   2.935   1.259   7.047 -0.2282  0.4480 -1.0977
  158DOPC  C21419042   2.876   1.069   6.954  0.1922 -0.2094  0.2188
  158DOPC  H14R19043   2.921   1.129   6.871 -0.1338 -1.6186 -1.0246
  158DOPC  H14S19044   2.766   1.085   6.954  0.1129 -0.7231 -0.2022
  158DOPC  C21519045   2.905   0.917   6.942  0.6593 -0.1228 -0.0755
  158DOPC  H15R19046   2.890   0.882   7.046  1.6048  1.3450  0.5952
  158DOPC  H15S19047   3.008   0.900   6.905  1.9999  1.1632  2.7102
  158DOPC  C21619048   2.812   0.841   6.844 -0.2265 -0.3963 -0.6729
  158DOPC  H16R19049   2.817   0.886   6.742  0.2314 -1.5875 -1.1900
  158DOPC  H16S19050   2.705   0.860   6.867  0.2290  0.9995  0.4885
  158DOPC  C21719051   2.849   0.694   6.850  0.3300  0.3163  0.7403
  158DOPC  H17R19052   2.804   0.654   6.944  2.5482 -1.6712  1.0692
  158DOPC  H17S19053   2.958   0.681   6.863  0.8009  2.2714 -0.8159
  158DOPC  C21819054   2.784   0.615   6.733  0.1162 -0.0210 -0.6275
  158DOPC  H18R19055   2.674   0.622   6.749  0.4791  0.0263  2.3160
  158DOPC  H18S19056   2.825   0.512   6.733  2.0714  0.6174  2.4038
  158DOPC  H18T19057   2.805   0.682   6.646  1.4580 -0.8139 -0.9412
  158DOPC   C3319058   2.665   0.778   7.589 -0.5780  0.0120 -0.1373
  158DOPC   H3X19059   2.635   0.671   7.582  0.4832 -0.5081  2.1449
  158DOPC   H3Y19060   2.756   0.777   7.653 -0.9982 -0.8273  0.4586
  158DOPC   C3419061   2.687   0.834   7.442  1.2460 -0.1534  0.0099
  158DOPC   H4X19062   2.685   0.945   7.429 -0.4915 -0.0443  0.8931
  158DOPC   H4Y19063   2.601   0.802   7.380 -0.9860  0.0967  2.7751
  158DOPC   C3519064   2.830   0.795   7.396 -0.1365 -0.1015  0.6881
  158DOPC   H5X19065   2.912   0.853   7.444  1.7527 -1.1839 -1.0725
  158DOPC   H5Y19066   2.832   0.824   7.288 -1.1456 -0.3977  0.5770
  158DOPC   C3619067   2.874   0.647   7.399 -0.8833  0.0161 -0.0330
  158DOPC   H6X19068   2.888   0.617   7.505 -0.7076 -0.4356 -0.1792
  158DOPC   H6Y19069   2.790   0.583   7.365  0.1260 -1.9232  0.9598
  158DOPC   C3719070   3.003   0.623   7.319  0.7310 -0.1557 -0.4593
  158DOPC   H7X19071   2.974   0.618   7.212  1.4398 -2.1881 -0.5949
  158DOPC   H7Y19072   3.065   0.714   7.337 -0.4642  0.4098  1.0097
  158DOPC   C3819073   3.089   0.491   7.344 -0.0870 -0.7275 -0.2668
  158DOPC   H8X19074   3.166   0.498   7.264 -0.0438  1.0742 -0.1253
  158DOPC   H8Y19075   3.029   0.399   7.332 -0.4863 -0.5389  0.2559
  158DOPC   C3919076   3.149   0.517   7.479 -0.2059  0.6266  0.3927
  158DOPC   H9X19077   3.075   0.527   7.560  0.7111 -0.1783  1.3497
  158DOPC  C31019078   3.279   0.523   7.514 -0.6945 -0.1068  0.6378
  158DOPC  H10X19079   3.296   0.540   7.621 -0.4263 -0.0339  0.5820
  158DOPC  C31119080   3.396   0.505   7.427 -0.2440  0.4600  0.4566
  158DOPC  H11X19081   3.365   0.440   7.342  0.6937 -2.4019  2.1546
  158DOPC  H11Y19082   3.479   0.448   7.472 -0.1857  0.8437  0.8376
  158DOPC  C31219083   3.429   0.645   7.367 -0.0583  0.4105  0.2343
  158DOPC  H12X19084   3.344   0.674   7.301 -0.1914  3.8164  1.6851
  158DOPC  H12Y19085   3.509   0.617   7.294 -2.0336 -0.8494 -1.6003
  158DOPC  C31319086   3.471   0.750   7.463 -0.5202  0.1526  0.1041
  158DOPC  H13X19087   3.485   0.839   7.397 -0.7960  0.6452  0.6997
  158DOPC  H13Y19088   3.393   0.765   7.541 -0.9050 -3.0512  0.4445
  158DOPC  C31419089   3.599   0.720   7.537 -0.7539  0.3974 -1.0587
  158DOPC  H14X19090   3.573   0.630   7.598 -0.6774  2.5870  2.4677
  158DOPC  H14Y19091   3.675   0.701   7.458 -0.3444  0.2741 -0.6429
  158DOPC  C31519092   3.650   0.833   7.621 -0.0348  0.6561  0.2249
  158DOPC  H15X19093   3.590   0.870   7.706  0.8074  2.0709  0.2395
  158DOPC  H15Y19094   3.657   0.928   7.564 -1.0532 -0.0161 -1.0662
  158DOPC  C31619095   3.795   0.809   7.662  0.0703 -0.2720 -0.6541
  158DOPC  H16X19096   3.794   0.719   7.727  1.0283  0.3565  0.2591
  158DOPC  H16Y19097   3.855   0.766   7.579  0.6592  0.5921 -0.6817
  158DOPC  C31719098   3.857   0.930   7.732  0.5376  0.3731 -0.7132
  158DOPC  H17X19099   3.815   1.023   7.686 -1.3644 -0.2655 -0.3746
  158DOPC  H17Y19100   3.832   0.936   7.840  1.2532  0.5084 -0.5538
  158DOPC  C31819101   4.013   0.928   7.713 -0.1155 -0.2839  0.0856
  158DOPC  H18X19102   4.057   0.846   7.774 -0.0721  1.5472  2.6779
  158DOPC  H18Y19103   4.036   0.926   7.605 -0.4321  0.1343  0.0089
  158DOPC  H18Z19104   4.056   1.022   7.753 -0.2422  0.7894 -2.1883
  159DOPC     N19105   6.497   2.626   8.958 -0.4924  0.0266  0.1851
  159DOPC   C1219106   6.503   2.685   8.812 -0.1397  0.3824 -0.3824
  159DOPC  H12A19107   6.559   2.776   8.830  0.4409 -0.0237 -0.0941
  159DOPC  H12B19108   6.405   2.693   8.766 -0.5115 -1.7498 -0.0467
  159DOPC   C1319109   6.632   2.650   9.032 -0.1302 -0.0576  0.3090
  159DOPC  H13A19110   6.652   2.755   9.046 -2.6983  0.7381 -1.2549
  159DOPC  H13B19111   6.640   2.597   9.126 -1.5629  3.7152  2.7710
  159DOPC  H13C19112   6.705   2.595   8.974  1.0040  1.1886  0.4942
  159DOPC   C1419113   6.481   2.477   8.954  0.4370  0.0445 -0.3513
  159DOPC  H14A19114   6.567   2.428   8.912 -0.0497  0.1343 -1.4921
  159DOPC  H14B19115   6.461   2.438   9.053  1.3299  0.9219  0.1851
  159DOPC  H14C19116   6.397   2.455   8.889 -0.6772  2.4621  0.1438
  159DOPC   C1519117   6.383   2.674   9.041 -0.2577 -0.0467  1.0107
  159DOPC  H15A19118   6.398   2.774   9.079  0.0560  1.2732 -2.2019
  159DOPC  H15B19119   6.393   2.623   9.135  2.8789  0.5028  1.0790
  159DOPC  H15C19120   6.285   2.659   9.000  0.5364 -2.8660 -0.0804
  159DOPC   C1119121   6.587   2.603   8.701  0.1568  0.6761  0.2833
  159DOPC  H11A19122   6.535   2.518   8.652  0.8555  0.9501 -0.9848
  159DOPC  H11B19123   6.593   2.677   8.618 -0.1454  1.1469  0.6770
  159DOPC     P19124   6.770   2.412   8.723  0.1157  0.2492 -0.2409
  159DOPC   O1319125   6.667   2.312   8.754  0.3643  0.0599 -0.4825
  159DOPC   O1419126   6.899   2.402   8.799 -0.1717 -0.5231  0.3134
  159DOPC   O1219127   6.712   2.558   8.751  0.3878  0.1701  0.1507
  159DOPC   O1119128   6.816   2.406   8.573  0.3692  0.4338 -0.0164
  159DOPC    C119129   6.730   2.353   8.474  0.7980  0.0948  0.6102
  159DOPC    HA19130   6.658   2.426   8.432 -0.1093 -0.9962  0.2324
  159DOPC    HB19131   6.677   2.262   8.509 -0.3855  0.3450 -0.4684
  159DOPC    C219132   6.820   2.294   8.349 -0.1573 -0.1817  0.3345
  159DOPC    HS19133   6.886   2.212   8.384 -1.2030 -0.8960  0.7087
  159DOPC   O2119134   6.880   2.390   8.265  0.0004 -0.1917  0.1713
  159DOPC   C2119135   7.011   2.403   8.291  0.4114  0.5364 -0.8529
  159DOPC   O2219136   7.069   2.340   8.379 -0.7692  0.2106  0.1490
  159DOPC   C2219137   7.076   2.509   8.202  1.3152 -0.1640 -0.9548
  159DOPC   H2R19138   7.052   2.476   8.099  1.4949  0.9927 -1.3824
  159DOPC   H2S19139   7.186   2.504   8.217  1.5891  1.8070 -1.9222
  159DOPC    C319140   6.717   2.201   8.270  0.1040 -0.8667 -0.3442
  159DOPC    HX19141   6.622   2.257   8.265 -0.6522 -1.9757  0.7985
  159DOPC    HY19142   6.697   2.120   8.344 -0.0348  0.1119  0.7190
  159DOPC   O3119143   6.764   2.159   8.136 -0.3588  0.1887 -0.5105
  159DOPC   C3119144   6.834   2.042   8.143  0.0077  0.2832 -0.0539
  159DOPC   O3219145   6.865   1.987   8.242 -0.4206  0.1486  0.1281
  159DOPC   C3219146   6.872   1.992   8.006  0.5765  0.2965  0.5699
  159DOPC   H2X19147   6.838   1.887   8.001 -0.5274  0.6707 -0.3721
  159DOPC   H2Y19148   6.818   2.042   7.922 -0.3255 -0.2603  0.8043
  159DOPC   C2319149   7.030   2.650   8.238  0.3294 -0.2352 -0.0898
  159DOPC   H3R19150   7.069   2.675   8.339  1.8174 -1.4340 -0.3329
  159DOPC   H3S19151   6.921   2.659   8.257  0.8297  0.7774  2.6661
  159DOPC   C2419152   7.070   2.758   8.132  0.9935  0.4279 -0.0877
  159DOPC   H4R19153   7.176   2.746   8.100  1.2633  1.2366  0.4873
  159DOPC   H4S19154   7.058   2.860   8.173 -2.5159  0.7077 -1.4412
  159DOPC   C2519155   6.993   2.753   8.000 -0.6785  0.2615 -0.3547
  159DOPC   H5R19156   6.887   2.749   8.033 -0.8767 -2.1231 -1.1265
  159DOPC   H5S19157   7.015   2.652   7.960  1.2200 -0.0814  1.3657
  159DOPC   C2619158   7.021   2.877   7.909 -0.3041  0.9112  0.4190
  159DOPC   H6R19159   6.964   2.846   7.819  0.0456  0.4030  0.3664
  159DOPC   H6S19160   7.130   2.878   7.887 -0.4591  0.8882 -0.3529
  159DOPC   C2719161   6.982   3.018   7.949 -0.3132  0.5758  0.5714
  159DOPC   H7R19162   7.057   3.054   8.023  0.3004  0.3078  0.0849
  159DOPC   H7S19163   6.886   3.010   8.004 -0.7338  0.3333 -0.1929
  159DOPC   C2819164   6.954   3.112   7.839  0.1658  0.3017 -0.1641
  159DOPC   H8R19165   6.910   3.208   7.873 -1.1362 -0.6369  0.8927
  159DOPC   H8S19166   6.868   3.072   7.782  1.2128 -0.8553 -0.9955
  159DOPC   C2919167   7.085   3.140   7.756  0.2064  0.0865  0.9168
  159DOPC   H9R19168   7.147   3.227   7.781  1.9091 -1.2017  1.3637
  159DOPC  C21019169   7.105   3.098   7.625 -0.1441  0.0610 -0.0453
  159DOPC  H10R19170   7.199   3.124   7.574  0.6425 -1.2136  0.6782
  159DOPC  C21119171   7.011   3.031   7.538 -0.6808  0.2227 -0.2009
  159DOPC  H11R19172   6.933   3.103   7.505 -0.2297  0.4357 -0.8234
  159DOPC  H11S19173   6.954   2.951   7.590 -0.3316 -0.4975 -0.9099
  159DOPC  C21219174   7.085   2.955   7.421  0.2493 -0.8391 -0.2729
  159DOPC  H12R19175   7.144   3.017   7.350 -0.9838 -0.0127 -0.5971
  159DOPC  H12S19176   6.996   2.919   7.367 -0.6975  0.8512  0.0617
  159DOPC  C21319177   7.185   2.855   7.476 -0.4330 -0.6437 -0.3127
  159DOPC  H13R19178   7.140   2.818   7.571 -2.7066  0.3223 -0.9415
  159DOPC  H13S19179   7.277   2.915   7.486  0.1713 -1.1114 -2.5398
  159DOPC  C21419180   7.226   2.737   7.379  0.0017 -0.9376  0.0380
  159DOPC  H14R19181   7.139   2.679   7.341  0.5129 -0.4159 -2.0664
  159DOPC  H14S19182   7.284   2.668   7.444  0.2226 -0.3349  0.4939
  159DOPC  C21519183   7.306   2.793   7.255 -0.9010 -0.0870 -0.1972
  159DOPC  H15R19184   7.400   2.832   7.300 -0.8753 -0.5706  0.1706
  159DOPC  H15S19185   7.251   2.880   7.212  1.4331  1.9396  0.6701
  159DOPC  C21619186   7.329   2.694   7.144 -0.2982  0.0065 -0.4528
  159DOPC  H16R19187   7.310   2.733   7.042 -0.6546 -0.7981 -0.7004
  159DOPC  H16S19188   7.253   2.615   7.162  0.8892 -0.9905  0.3452
  159DOPC  C21719189   7.466   2.640   7.126 -0.2078  0.2538  0.3289
  159DOPC  H17R19190   7.550   2.709   7.104  3.3178 -3.6357  0.2545
  159DOPC  H17S19191   7.457   2.569   7.041 -0.1838  3.0434 -2.1308
  159DOPC  C21819192   7.504   2.559   7.248  0.3779  0.1772 -0.4993
  159DOPC  H18R19193   7.438   2.470   7.254 -1.3158  1.4072 -0.3112
  159DOPC  H18S19194   7.498   2.616   7.342  1.2437 -0.6613  0.0835
  159DOPC  H18T19195   7.610   2.524   7.247  1.1225  2.0311  2.5041
  159DOPC   C3319196   7.027   1.994   7.977 -0.5100 -0.1093  0.1627
  159DOPC   H3X19197   7.083   1.944   8.059  0.8076  0.3207 -0.4492
  159DOPC   H3Y19198   7.056   2.101   7.980  0.1035 -0.2820  0.5688
  159DOPC   C3419199   7.062   1.923   7.838 -0.6053 -0.1228 -0.2755
  159DOPC   H4X19200   6.987   1.956   7.762  0.3077  0.7440 -0.8238
  159DOPC   H4Y19201   7.046   1.814   7.854 -2.4081  0.0479 -0.6830
  159DOPC   C3519202   7.204   1.959   7.783 -0.1683 -0.2521  0.2900
  159DOPC   H5X19203   7.277   1.933   7.862 -0.5763 -2.6956 -0.0613
  159DOPC   H5Y19204   7.216   2.067   7.756  0.9541 -0.4582 -0.1006
  159DOPC   C3619205   7.232   1.866   7.662 -0.3505 -0.1442 -0.1648
  159DOPC   H6X19206   7.332   1.892   7.622 -0.8253 -0.0546 -1.3186
  159DOPC   H6Y19207   7.233   1.761   7.698 -0.9592 -0.0080  0.2666
  159DOPC   C3719208   7.128   1.863   7.551  0.0645  0.8379  0.7313
  159DOPC   H7X19209   7.030   1.820   7.579 -0.7676  2.0385 -0.2197
  159DOPC   H7Y19210   7.099   1.969   7.533 -0.6495  0.6267  0.6212
  159DOPC   C3819211   7.195   1.801   7.419  0.0289 -0.5292  0.2982
  159DOPC   H8X19212   7.250   1.710   7.451  1.4687 -0.2749 -1.3269
  159DOPC   H8Y19213   7.272   1.867   7.372  1.2895 -2.3810 -0.3390
  159DOPC   C3919214   7.077   1.778   7.322  0.2583  0.3056  0.0462
  159DOPC   H9X19215   7.059   1.859   7.249 -0.7172 -0.0801 -0.1554
  159DOPC  C31019216   6.998   1.659   7.316  0.5057  0.9803 -0.5981
  159DOPC  H10X19217   6.934   1.648   7.227  1.5927 -1.1568 -1.1811
  159DOPC  C31119218   7.022   1.541   7.413  0.3317  0.0120  0.2952
  159DOPC  H11X19219   7.101   1.552   7.491  1.1637 -0.7276 -0.4199
  159DOPC  H11Y19220   7.058   1.462   7.343 -0.5145 -1.0067  0.9883
  159DOPC  C31219221   6.890   1.501   7.482  0.2221 -0.0268  0.2898
  159DOPC  H12X19222   6.905   1.404   7.534  1.5613 -0.7154 -1.2973
  159DOPC  H12Y19223   6.821   1.487   7.396  0.0719  1.8136  0.0712
  159DOPC  C31319224   6.832   1.594   7.593 -0.2278 -0.1967  0.4477
  159DOPC  H13X19225   6.911   1.626   7.664  0.2069 -1.2472  0.4445
  159DOPC  H13Y19226   6.786   1.688   7.556  2.2125  1.8990  2.3873
  159DOPC  C31419227   6.734   1.527   7.674 -0.2351  0.2421  0.5647
  159DOPC  H14X19228   6.655   1.504   7.598  2.1703  0.0110 -2.0283
  159DOPC  H14Y19229   6.775   1.427   7.700  0.9297  0.9308  1.4106
  159DOPC  C31519230   6.685   1.608   7.798  0.5062  0.6357  0.4674
  159DOPC  H15X19231   6.581   1.641   7.776  0.1973 -0.0776  0.8161
  159DOPC  H15Y19232   6.738   1.704   7.817 -0.5249  1.5591 -1.0625
  159DOPC  C31619233   6.678   1.518   7.924  0.2516  0.1347  0.3777
  159DOPC  H16X19234   6.609   1.432   7.910  0.6014 -0.2814  1.1366
  159DOPC  H16Y19235   6.780   1.475   7.937 -0.6517 -1.3465  3.5453
  159DOPC  C31719236   6.650   1.595   8.053  0.4680 -0.3374 -0.0889
  159DOPC  H17X19237   6.624   1.527   8.137 -2.3937  1.7921  0.9574
  159DOPC  H17Y19238   6.741   1.655   8.072  0.2459  0.0164 -0.1264
  159DOPC  C31819239   6.534   1.697   8.055 -0.2691  0.0052 -0.5771
  159DOPC  H18X19240   6.523   1.744   8.155 -1.3425 -2.0453  0.3155
  159DOPC  H18Y19241   6.556   1.776   7.979  1.0323  0.4515  0.2186
  159DOPC  H18Z19242   6.443   1.640   8.026  0.1754 -2.1263  1.8565
  160DOPC     N19243   2.489   1.203   8.539 -0.0687 -0.3927  0.0636
  160DOPC   C1219244   2.375   1.106   8.588 -0.7366  0.2147  0.1154
  160DOPC  H12A19245   2.382   1.104   8.695 -1.2136  0.3745  0.1498
  160DOPC  H12B19246   2.394   1.007   8.548 -2.2728  0.0275 -0.1965
  160DOPC   C1319247   2.625   1.147   8.576 -0.0452  0.1847 -0.7445
  160DOPC  H13A19248   2.712   1.187   8.526  1.1264 -0.4050  0.7244
  160DOPC  H13B19249   2.648   1.178   8.677 -1.1351  1.5571 -0.8860
  160DOPC  H13C19250   2.620   1.040   8.567  0.2124 -0.1785  2.2294
  160DOPC   C1419251   2.476   1.342   8.603 -0.1838 -0.0117  1.1426
  160DOPC  H14A19252   2.491   1.344   8.710 -0.9371  3.1780  1.2953
  160DOPC  H14B19253   2.539   1.406   8.544 -1.5401  1.4791  1.2524
  160DOPC  H14C19254   2.372   1.369   8.589 -0.5154 -1.5763  0.3031
  160DOPC   C1519255   2.479   1.210   8.392 -0.0762  0.2767 -0.1845
  160DOPC  H15A19256   2.562   1.256   8.340  1.4419 -2.7526 -0.6098
  160DOPC  H15B19257   2.386   1.259   8.366  0.1319  1.4173  1.0693
  160DOPC  H15C19258   2.470   1.109   8.357  1.3631  0.3019 -0.6884
  160DOPC   C1119259   2.228   1.146   8.543  0.1287  1.4910  0.2546
  160DOPC  H11A19260   2.229   1.166   8.434  1.5519  0.6300  0.0882
  160DOPC  H11B19261   2.168   1.053   8.560  0.6472  1.3528  1.4081
  160DOPC     P19262   2.065   1.351   8.579 -0.0636 -0.4477  0.1499
  160DOPC   O1319263   2.143   1.466   8.514  0.2727  0.1746  0.4086
  160DOPC   O1419264   1.976   1.385   8.693  0.2767 -0.3528  0.5246
  160DOPC   O1219265   2.170   1.246   8.628 -0.2618 -0.0611  0.0791
  160DOPC   O1119266   1.994   1.284   8.459 -0.0479 -1.0391 -0.5261
  160DOPC    C119267   1.902   1.172   8.481  0.3922 -0.0369 -0.0399
  160DOPC    HA19268   1.798   1.210   8.489  0.2100 -0.6175  0.4232
  160DOPC    HB19269   1.922   1.119   8.577  0.4585  1.1466  0.6240
  160DOPC    C219270   1.920   1.059   8.375  0.3315  0.0566 -0.6384
  160DOPC    HS19271   2.027   1.030   8.380  0.4914  0.4811 -1.4041
  160DOPC   O2119272   1.889   1.114   8.249 -0.2470  0.0122 -0.4718
  160DOPC   C2119273   1.950   1.060   8.144 -0.0772 -0.7538  0.2447
  160DOPC   O2219274   2.033   0.969   8.155  0.2632 -0.4020  0.0091
  160DOPC   C2219275   1.884   1.107   8.015 -0.4342  0.0219 -0.3523
  160DOPC   H2R19276   1.845   1.210   8.027  0.7348  0.3179  1.1491
  160DOPC   H2S19277   1.797   1.039   8.000 -3.1183  2.7062  1.7302
  160DOPC    C319278   1.837   0.932   8.401 -0.1560  0.9653  0.2508
  160DOPC    HX19279   1.870   0.885   8.497 -0.7583 -1.7847 -0.7893
  160DOPC    HY19280   1.844   0.855   8.321 -1.6596  1.4424 -0.3734
  160DOPC   O3119281   1.702   0.980   8.413  0.1096 -0.1452  0.1035
  160DOPC   C3119282   1.617   0.875   8.432  0.0297 -0.4615 -0.2013
  160DOPC   O3219283   1.656   0.762   8.459 -0.1117 -0.2002 -0.2712
  160DOPC   C3219284   1.477   0.924   8.376 -0.4271  0.1623 -0.6919
  160DOPC   H2X19285   1.403   0.920   8.458  0.1362 -0.0370 -0.1884
  160DOPC   H2Y19286   1.497   1.032   8.356  1.3664 -0.1176 -0.5226
  160DOPC   C2319287   1.981   1.121   7.900  0.5917 -0.1403  0.6045
  160DOPC   H3R19288   1.921   1.129   7.807 -0.1897  0.7275  1.1735
  160DOPC   H3S19289   2.056   1.040   7.887 -0.9806 -1.3932 -1.2049
  160DOPC   C2419290   2.076   1.245   7.919  0.7401  0.6844  0.2563
  160DOPC   H4R19291   2.124   1.246   8.020  0.1665 -1.2816  0.5971
  160DOPC   H4S19292   2.015   1.337   7.904 -0.2457  0.2008  1.1197
  160DOPC   C2519293   2.187   1.242   7.815  0.4583  0.1931  0.0745
  160DOPC   H5R19294   2.223   1.138   7.797  0.9433  0.2755  0.5385
  160DOPC   H5S19295   2.265   1.321   7.831  0.1159  0.3596  0.9767
  160DOPC   C2619296   2.131   1.276   7.678 -0.3935 -0.9334  0.2301
  160DOPC   H6R19297   2.076   1.372   7.686  0.0616 -0.5603 -0.9546
  160DOPC   H6S19298   2.061   1.192   7.657 -3.7418  1.2442  1.7099
  160DOPC   C2719299   2.248   1.306   7.578 -0.2593  0.0386 -0.8999
  160DOPC   H7R19300   2.315   1.377   7.630 -1.3427 -0.5110  1.4120
  160DOPC   H7S19301   2.215   1.362   7.488 -0.0939  0.4386 -0.7131
  160DOPC   C2819302   2.329   1.180   7.535  0.2861 -0.1509 -0.0693
  160DOPC   H8R19303   2.260   1.102   7.495 -1.8519  2.6625 -2.3592
  160DOPC   H8S19304   2.351   1.124   7.628 -4.5962 -0.7228  0.9989
  160DOPC   C2919305   2.447   1.208   7.451 -0.9325  0.2210 -0.5898
  160DOPC   H9R19306   2.515   1.289   7.482  2.5484 -2.0408 -1.6354
  160DOPC  C21019307   2.481   1.133   7.344 -0.0263 -0.1660  0.5181
  160DOPC  H10R19308   2.573   1.160   7.291  0.8255 -1.9154  1.0302
  160DOPC  C21119309   2.406   1.014   7.282  1.0862 -0.2635 -0.2900
  160DOPC  H11R19310   2.296   1.027   7.269  1.1034  0.4207  0.1865
  160DOPC  H11S19311   2.405   0.930   7.355 -0.4866 -0.1497 -0.1302
  160DOPC  C21219312   2.464   0.978   7.142  0.2778 -0.0810 -0.3985
  160DOPC  H12R19313   2.441   0.873   7.116 -0.0096 -0.4813  1.3336
  160DOPC  H12S19314   2.575   0.984   7.143  0.2599  0.3224 -0.3680
  160DOPC  C21319315   2.416   1.073   7.029  0.0956 -0.5833 -0.1096
  160DOPC  H13R19316   2.438   1.177   7.061 -1.3696 -1.4679  4.5703
  160DOPC  H13S19317   2.305   1.065   7.031  0.1505 -1.3811  1.1239
  160DOPC  C21419318   2.466   1.040   6.884  0.0653 -0.8156 -0.4757
  160DOPC  H14R19319   2.576   1.023   6.885  0.0992 -0.6523 -1.0952
  160DOPC  H14S19320   2.439   1.126   6.819  1.7160 -1.0485 -1.5170
  160DOPC  C21519321   2.397   0.920   6.832  0.2376 -0.8641 -0.4996
  160DOPC  H15R19322   2.289   0.947   6.843  1.2030  3.4354  0.2287
  160DOPC  H15S19323   2.421   0.822   6.878  0.1448 -2.0528 -2.8459
  160DOPC  C21619324   2.429   0.910   6.682  0.2201 -0.1576  0.5264
  160DOPC  H16R19325   2.536   0.888   6.664  0.5467  0.6631  1.3838
  160DOPC  H16S19326   2.409   1.011   6.639  0.4619 -0.4543 -0.3075
  160DOPC  C21719327   2.341   0.807   6.610 -0.1227  0.4388 -0.5598
  160DOPC  H17R19328   2.233   0.832   6.618  0.1057  2.7453 -3.0988
  160DOPC  H17S19329   2.355   0.700   6.637 -1.7740 -0.4435 -2.8842
  160DOPC  C21819330   2.367   0.815   6.456 -0.1810 -0.5320 -0.5799
  160DOPC  H18R19331   2.310   0.731   6.410  0.2228 -1.0997 -0.0555
  160DOPC  H18S19332   2.477   0.806   6.442  0.0919  0.5671  0.6344
  160DOPC  H18T19333   2.333   0.915   6.422 -0.2186 -0.3443 -0.0023
  160DOPC   C3319334   1.429   0.851   8.246 -0.3681 -0.3161 -0.6917
  160DOPC   H3X19335   1.332   0.900   8.224  0.5756  1.9611 -0.0352
  160DOPC   H3Y19336   1.407   0.746   8.275 -0.5732  0.0887  0.6696
  160DOPC   C3419337   1.527   0.855   8.124  0.1078 -0.4258 -0.7936
  160DOPC   H4X19338   1.627   0.832   8.167  0.0761  0.7631 -0.0511
  160DOPC   H4Y19339   1.532   0.960   8.087 -0.4227  0.2961  1.0905
  160DOPC   C3519340   1.493   0.758   8.021 -0.4997  0.2690 -0.4452
  160DOPC   H5X19341   1.387   0.763   7.987 -0.6322 -1.7659 -0.4545
  160DOPC   H5Y19342   1.519   0.664   8.074  3.6513  1.3966 -0.1652
  160DOPC   C3619343   1.584   0.764   7.886  0.1870 -0.2511  0.1193
  160DOPC   H6X19344   1.559   0.679   7.819 -3.8980 -1.0854  2.3303
  160DOPC   H6Y19345   1.581   0.868   7.847  3.6823 -0.7215 -1.7131
  160DOPC   C3719346   1.735   0.733   7.922  0.0039  0.2555 -0.0378
  160DOPC   H7X19347   1.767   0.817   7.987 -0.3846  1.0179 -0.8020
  160DOPC   H7Y19348   1.731   0.631   7.965 -0.8220 -0.0525 -0.8189
  160DOPC   C3819349   1.817   0.734   7.791  0.5270  0.3231 -0.6930
  160DOPC   H8X19350   1.800   0.635   7.745  4.1653 -0.5048 -0.4940
  160DOPC   H8Y19351   1.924   0.720   7.818  0.8554 -2.4215 -2.9355
  160DOPC   C3919352   1.818   0.857   7.712 -0.0593  0.4892  0.1684
  160DOPC   H9X19353   1.729   0.922   7.722 -0.5378 -0.1737  0.2919
  160DOPC  C31019354   1.918   0.901   7.636  0.0332  0.5608  0.3380
  160DOPC  H10X19355   1.905   0.993   7.576  0.6577 -0.2037 -1.0193
  160DOPC  C31119356   2.035   0.819   7.601  0.0832  0.5217 -0.9437
  160DOPC  H11X19357   2.022   0.713   7.630 -0.9280  1.2044  1.2962
  160DOPC  H11Y19358   2.124   0.863   7.651 -0.9309 -0.3931  1.8259
  160DOPC  C31219359   2.076   0.821   7.456  0.1020  0.6381  0.2791
  160DOPC  H12X19360   2.172   0.768   7.438 -0.0669  0.3486  0.2156
  160DOPC  H12Y19361   2.088   0.923   7.413 -1.4954  0.3386 -0.9834
  160DOPC  C31319362   1.974   0.750   7.370 -0.1995 -0.5598  0.0354
  160DOPC  H13X19363   1.965   0.644   7.401 -0.8684 -0.5252 -0.0349
  160DOPC  H13Y19364   1.871   0.786   7.391  0.1000  0.7021 -0.5537
  160DOPC  C31419365   2.010   0.785   7.225 -0.2977 -0.2057  0.6530
  160DOPC  H14X19366   2.014   0.896   7.214 -1.2390 -0.1902  0.3476
  160DOPC  H14Y19367   2.107   0.737   7.200 -0.3255  0.8584 -1.7593
  160DOPC  C31519368   1.906   0.743   7.120  0.9040  0.5465  0.1688
  160DOPC  H15X19369   1.806   0.773   7.157 -0.1932 -0.6969 -1.6179
  160DOPC  H15Y19370   1.910   0.632   7.115 -1.4296  0.4315  0.0789
  160DOPC  C31619371   1.927   0.806   6.981 -0.2108  0.5192 -0.2813
  160DOPC  H16X19372   1.950   0.914   6.993  0.3594  0.1887  2.5236
  160DOPC  H16Y19373   2.012   0.756   6.929 -0.8011 -3.0022  1.7803
  160DOPC  C31719374   1.802   0.791   6.892 -0.6389 -0.4031 -0.2689
  160DOPC  H17X19375   1.735   0.871   6.928  0.6406  0.6320 -0.1102
  160DOPC  H17Y19376   1.834   0.815   6.788  0.8066 -1.9910 -0.2449
  160DOPC  C31819377   1.738   0.652   6.895 -0.2075  0.1937 -0.0385
  160DOPC  H18X19378   1.684   0.635   6.990  0.4567 -1.3412  0.0944
  160DOPC  H18Y19379   1.671   0.646   6.807  2.8417 -3.1388 -2.4460
  160DOPC  H18Z19380   1.815   0.572   6.892  1.2566  1.5241  0.4513
  161DOPC     N19381   3.662   1.664   8.631 -0.2047  0.2806  0.4568
  161DOPC   C1219382   3.680   1.695   8.478 -0.3853 -0.3733  0.3495
  161DOPC  H12A19383   3.697   1.601   8.426  0.0536  1.3923 -2.9689
  161DOPC  H12B19384   3.768   1.756   8.464 -1.3517  1.2125  0.9112
  161DOPC   C1319385   3.787   1.589   8.670 -0.1521  0.2226 -0.2397
  161DOPC  H13A19386   3.775   1.550   8.771 -1.1871  3.0536  0.8323
  161DOPC  H13B19387   3.814   1.509   8.604  1.5299 -0.4486  1.1841
  161DOPC  H13C19388   3.870   1.658   8.664  2.0663 -2.1767  0.8335
  161DOPC   C1419389   3.551   1.565   8.646 -0.0415 -0.0598  0.3326
  161DOPC  H14A19390   3.581   1.465   8.615  0.4424 -0.0511  0.7647
  161DOPC  H14B19391   3.525   1.556   8.750 -1.1540 -4.4435 -0.0925
  161DOPC  H14C19392   3.466   1.592   8.585 -0.6052 -0.2027  1.0389
  161DOPC   C1519393   3.639   1.788   8.714 -0.5398 -0.2517  0.5490
  161DOPC  H15A19394   3.602   1.759   8.811 -1.8180  0.9719  0.4693
  161DOPC  H15B19395   3.568   1.854   8.666  0.5164  0.4136 -0.1305
  161DOPC  H15C19396   3.739   1.827   8.722 -0.5597  0.1159 -0.7930
  161DOPC   C1119397   3.556   1.761   8.406 -0.3443  0.1508 -0.3992
  161DOPC  H11A19398   3.588   1.784   8.302 -0.9151  0.2243 -0.5617
  161DOPC  H11B19399   3.489   1.673   8.399  0.9217 -1.1484  2.4458
  161DOPC     P19400   3.526   2.020   8.447 -0.2623 -0.0172 -0.2404
  161DOPC   O1319401   3.664   2.045   8.489 -0.7573  0.1304  0.1875
  161DOPC   O1419402   3.420   2.110   8.495  0.2708  0.2391  0.2791
  161DOPC   O1219403   3.493   1.867   8.477 -0.1294 -0.0675 -0.1487
  161DOPC   O1119404   3.520   2.021   8.292 -0.5128  0.2457  0.6601
  161DOPC    C119405   3.403   2.004   8.215  0.4483 -0.2998 -0.7090
  161DOPC    HA19406   3.313   2.041   8.268  0.7642  1.5803 -1.4082
  161DOPC    HB19407   3.394   1.898   8.184  0.9228 -0.6989  0.4724
  161DOPC    C219408   3.410   2.071   8.074  0.2986 -0.6651  0.1537
  161DOPC    HS19409   3.327   2.034   8.011 -2.5123  1.3088  2.4727
  161DOPC   O2119410   3.535   2.045   8.009 -0.5755 -0.0194 -0.2690
  161DOPC   C2119411   3.555   1.918   7.971 -0.4729  0.6790 -0.4058
  161DOPC   O2219412   3.475   1.826   7.952 -0.6490  0.1356 -0.4396
  161DOPC   C2219413   3.708   1.902   7.949  0.4910 -0.4834  0.1370
  161DOPC   H2R19414   3.731   1.794   7.939  0.4573 -0.4643 -0.1685
  161DOPC   H2S19415   3.750   1.936   8.046 -0.5256 -0.4329  0.5689
  161DOPC    C319416   3.390   2.228   8.087  0.2925 -0.2504  0.2062
  161DOPC    HX19417   3.461   2.256   8.168 -1.5158  1.2552  1.3704
  161DOPC    HY19418   3.288   2.256   8.124  0.1876  1.3648 -1.1856
  161DOPC   O3119419   3.422   2.295   7.964  0.1678 -0.1389  0.5151
  161DOPC   C3119420   3.540   2.354   7.953 -0.5306 -0.5580 -0.2562
  161DOPC   O3219421   3.625   2.369   8.041  0.0150  0.3442 -0.7415
  161DOPC   C3219422   3.556   2.426   7.821 -0.9695 -0.1095  0.6636
  161DOPC   H2X19423   3.475   2.395   7.751 -0.3304  0.3427 -0.3104
  161DOPC   H2Y19424   3.542   2.535   7.837  0.9212  0.0109  1.7848
  161DOPC   C2319425   3.761   2.000   7.840 -0.2351  0.2207  0.0195
  161DOPC   H3R19426   3.871   2.011   7.841 -0.2148 -0.0064  0.5086
  161DOPC   H3S19427   3.717   2.100   7.861  0.4546  0.5600 -0.1398
  161DOPC   C2419428   3.719   1.965   7.700 -0.1278  0.2262 -0.1907
  161DOPC   H4R19429   3.609   1.966   7.691 -0.1549 -0.0534  0.0972
  161DOPC   H4S19430   3.758   1.865   7.672  1.1143  0.4874  0.5060
  161DOPC   C2519431   3.795   2.054   7.600  0.2663  0.1055 -0.0913
  161DOPC   H5R19432   3.902   2.045   7.629 -0.3087 -0.2223  2.1070
  161DOPC   H5S19433   3.751   2.155   7.612 -2.9246 -1.2140  0.3937
  161DOPC   C2619434   3.783   2.006   7.452 -0.4559  0.5679  0.0037
  161DOPC   H6R19435   3.675   2.020   7.431 -0.6339  2.7696  1.9038
  161DOPC   H6S19436   3.803   1.897   7.452 -3.8683 -0.2827  3.2531
  161DOPC   C2719437   3.876   2.080   7.351 -0.2379 -0.0999 -0.6706
  161DOPC   H7R19438   3.983   2.057   7.373 -0.0181  0.2724 -1.3161
  161DOPC   H7S19439   3.858   2.188   7.365 -0.9585 -0.1729 -0.9745
  161DOPC   C2819440   3.835   2.061   7.205  0.4800  0.1744 -0.0853
  161DOPC   H8R19441   3.892   2.136   7.146  1.5101 -1.8302 -1.7816
  161DOPC   H8S19442   3.724   2.071   7.200 -0.0958 -3.0934  2.5188
  161DOPC   C2919443   3.874   1.921   7.159  0.5609  0.0727  0.0461
  161DOPC   H9R19444   3.806   1.836   7.172  1.6538 -0.7963  0.2978
  161DOPC  C21019445   3.985   1.895   7.094  0.3732  0.8065  0.0424
  161DOPC  H10R19446   4.002   1.794   7.053  0.5480  1.8955 -2.8305
  161DOPC  C21119447   4.093   1.990   7.050  0.2757 -0.4538 -0.1020
  161DOPC  H11R19448   4.194   1.944   7.057 -0.3300 -2.1526 -1.6100
  161DOPC  H11S19449   4.085   2.085   7.106 -3.9395 -0.0546 -1.0293
  161DOPC  C21219450   4.088   2.013   6.894  0.3577 -0.2150 -0.1484
  161DOPC  H12R19451   3.983   2.011   6.861  0.4146 -0.0517 -0.3372
  161DOPC  H12S19452   4.135   1.927   6.841 -0.4481 -0.3140 -0.7146
  161DOPC  C21319453   4.144   2.150   6.853  0.1418 -0.1347 -0.8952
  161DOPC  H13R19454   4.236   2.176   6.910  0.5692 -1.8216 -0.7764
  161DOPC  H13S19455   4.060   2.217   6.883 -0.0003 -0.5630 -0.3025
  161DOPC  C21419456   4.169   2.155   6.700  0.5043 -0.1503 -0.1697
  161DOPC  H14R19457   4.072   2.191   6.660  1.0856  0.2326 -1.2650
  161DOPC  H14S19458   4.208   2.059   6.660  1.5471  0.1047  0.2035
  161DOPC  C21519459   4.260   2.275   6.656  0.9933 -0.0099 -0.1692
  161DOPC  H15R19460   4.271   2.270   6.546 -1.6429 -1.0978 -0.4545
  161DOPC  H15S19461   4.364   2.272   6.697  0.3503 -0.3611  1.5388
  161DOPC  C21619462   4.197   2.407   6.686  0.9323 -0.4106 -0.4779
  161DOPC  H16R19463   4.269   2.488   6.661 -2.3711  2.9235 -0.1113
  161DOPC  H16S19464   4.185   2.408   6.796 -0.6046  1.1216 -0.6126
  161DOPC  C21719465   4.061   2.446   6.619  0.1348  0.1591  0.4770
  161DOPC  H17R19466   4.034   2.543   6.667  0.7160  0.8411 -0.5318
  161DOPC  H17S19467   3.980   2.370   6.626 -0.2802  0.0029 -3.5564
  161DOPC  C21819468   4.076   2.475   6.461 -0.1749  0.0165 -0.0653
  161DOPC  H18R19469   4.118   2.382   6.417  1.2350  0.2294  0.7541
  161DOPC  H18S19470   4.145   2.559   6.436 -0.1830  0.2494  0.6619
  161DOPC  H18T19471   3.973   2.501   6.427 -1.1730 -0.6271  2.2809
  161DOPC   C3319472   3.685   2.406   7.757  0.6273 -0.7706  0.5517
  161DOPC   H3X19473   3.698   2.296   7.771 -0.0925 -0.7355  1.5963
  161DOPC   H3Y19474   3.763   2.457   7.819 -1.3682  0.1757  2.4255
  161DOPC   C3419475   3.684   2.462   7.617  0.0590  0.4801  0.2190
  161DOPC   H4X19476   3.611   2.415   7.548  0.0387 -1.3631  1.4087
  161DOPC   H4Y19477   3.785   2.449   7.572 -0.0735 -1.6875  0.4321
  161DOPC   C3519478   3.647   2.609   7.603 -0.2939 -0.3380  0.6858
  161DOPC   H5X19479   3.707   2.672   7.673 -0.3028  2.3448 -1.5786
  161DOPC   H5Y19480   3.540   2.619   7.629 -0.1863  1.0671  0.6942
  161DOPC   C3619481   3.673   2.663   7.460 -0.0538 -0.3445 -0.2161
  161DOPC   H6X19482   3.617   2.594   7.394 -2.0681  1.3847 -0.4313
  161DOPC   H6Y19483   3.622   2.760   7.443  0.9082  0.0023 -1.3163
  161DOPC   C3719484   3.823   2.685   7.445  0.7400  0.2245  0.3072
  161DOPC   H7X19485   3.876   2.733   7.530  0.6238  1.3624 -0.2411
  161DOPC   H7Y19486   3.870   2.585   7.445 -1.4087 -0.8921 -2.0174
  161DOPC   C3819487   3.854   2.755   7.305  0.3820 -0.0699  0.2875
  161DOPC   H8X19488   3.791   2.709   7.226  0.4176  0.2068  0.0950
  161DOPC   H8Y19489   3.959   2.724   7.287  0.6318  0.7701  0.2473
  161DOPC   C3919490   3.834   2.904   7.304  0.4831  0.2819 -0.2194
  161DOPC   H9X19491   3.918   2.958   7.350  0.1206 -0.5365  1.4721
  161DOPC  C31019492   3.731   2.977   7.249 -0.2266 -0.7657  0.3447
  161DOPC  H10X19493   3.731   3.085   7.268  0.6627 -0.7680  0.3807
  161DOPC  C31119494   3.610   2.919   7.178 -0.2908 -0.6186  0.3713
  161DOPC  H11X19495   3.512   2.919   7.231 -1.4222 -3.4275 -1.4856
  161DOPC  H11Y19496   3.625   2.810   7.162  2.9849 -0.6539  2.7255
  161DOPC  C31219497   3.592   2.979   7.033 -0.1220 -0.6393  0.1268
  161DOPC  H12X19498   3.690   2.974   6.981 -0.0143 -0.9814  0.3532
  161DOPC  H12Y19499   3.559   3.084   7.042 -2.4182 -0.9751 -2.9363
  161DOPC  C31319500   3.484   2.904   6.959 -0.5227 -0.2218 -0.1222
  161DOPC  H13X19501   3.514   2.800   6.935 -0.2640 -0.1188 -0.2538
  161DOPC  H13Y19502   3.399   2.897   7.029 -1.5270 -0.0996 -1.3065
  161DOPC  C31419503   3.431   2.982   6.834  0.5311  0.4548  0.0966
  161DOPC  H14X19504   3.362   2.910   6.785  0.1506  0.2801  0.8587
  161DOPC  H14Y19505   3.374   3.072   6.867  1.1437  0.6045  0.7770
  161DOPC  C31519506   3.533   3.035   6.735  0.1453  0.4204 -0.2692
  161DOPC  H15X19507   3.600   2.952   6.703  2.3888  1.8935  0.3511
  161DOPC  H15Y19508   3.599   3.108   6.786 -1.0006  1.8449 -0.7505
  161DOPC  C31619509   3.461   3.114   6.626  0.1026 -0.4206  0.8825
  161DOPC  H16X19510   3.383   3.050   6.580  1.6595 -0.8342 -1.4081
  161DOPC  H16Y19511   3.416   3.206   6.670  2.2134 -0.2263  2.7919
  161DOPC  C31719512   3.556   3.163   6.514 -0.7209 -0.4657 -0.1234
  161DOPC  H17X19513   3.601   3.079   6.457 -0.1278 -0.7183  0.6895
  161DOPC  H17Y19514   3.496   3.227   6.446 -0.6463  1.8645  1.8343
  161DOPC  C31819515   3.670   3.250   6.572 -0.4206 -0.4920 -0.4453
  161DOPC  H18X19516   3.718   3.288   6.479 -0.5030 -0.4746 -0.4807
  161DOPC  H18Y19517   3.645   3.348   6.618  0.6283  0.0206 -0.9363
  161DOPC  H18Z19518   3.743   3.185   6.625  0.4682 -0.4491 -1.5777
  162DOPC     N19519   2.204   6.926   8.927 -0.0250 -0.1222 -0.3449
  162DOPC   C1219520   2.236   6.860   8.795  0.3361  0.2270 -0.5596
  162DOPC  H12A19521   2.149   6.802   8.768 -0.6056 -0.2167  2.9601
  162DOPC  H12B19522   2.313   6.787   8.813 -0.9011 -0.4659  2.6440
  162DOPC   C1319523   2.183   6.833   9.039  0.4143  0.3176 -0.1165
  162DOPC  H13A19524   2.182   6.886   9.133 -1.5500 -2.1467  1.3852
  162DOPC  H13B19525   2.090   6.778   9.029  1.5046 -1.9788  1.5376
  162DOPC  H13C19526   2.264   6.762   9.045  0.9021  0.7910 -0.9222
  162DOPC   C1419527   2.091   7.008   8.927 -0.2159 -0.0989 -0.4251
  162DOPC  H14A19528   2.010   6.957   8.877 -0.8235  0.9863 -0.5795
  162DOPC  H14B19529   2.048   7.039   9.021  2.4505 -0.3992  0.9870
  162DOPC  H14C19530   2.105   7.101   8.874 -0.1231  0.8783  1.2560
  162DOPC   C1519531   2.326   7.013   8.958  0.0269 -0.2734 -0.4410
  162DOPC  H15A19532   2.324   7.052   9.059  1.3419 -0.1054 -0.4635
  162DOPC  H15B19533   2.330   7.092   8.885 -0.2641  0.3712  0.2199
  162DOPC  H15C19534   2.415   6.955   8.942 -0.5082 -0.8201 -1.5495
  162DOPC   C1119535   2.285   6.941   8.673 -0.1378 -0.2662 -0.8192
  162DOPC  H11A19536   2.374   7.002   8.697 -1.2633  1.6874 -1.4285
  162DOPC  H11B19537   2.324   6.874   8.594 -1.9088 -0.3237 -1.6863
  162DOPC     P19538   2.072   6.975   8.527  0.3885  0.0699 -0.5574
  162DOPC   O1319539   1.975   7.091   8.491 -0.3001  0.7815 -0.6297
  162DOPC   O1419540   2.009   6.858   8.588 -0.8501  0.0498 -0.1088
  162DOPC   O1219541   2.187   7.029   8.624  0.0971 -0.2713 -0.4710
  162DOPC   O1119542   2.146   6.936   8.394  0.0587 -0.0183  0.6493
  162DOPC    C119543   2.244   7.028   8.330  0.0070  0.6709  0.6979
  162DOPC    HA19544   2.343   7.020   8.380 -0.5699 -1.6946  1.6173
  162DOPC    HB19545   2.212   7.133   8.349 -2.9173  0.4709 -2.2447
  162DOPC    C219546   2.276   6.982   8.191 -0.4655  0.3533  0.4076
  162DOPC    HS19547   2.356   7.039   8.140 -0.5158  1.1960  1.2523
  162DOPC   O2119548   2.158   7.001   8.105  0.0864  0.4348 -0.3229
  162DOPC   C2119549   2.121   7.124   8.090  0.5906  0.3397 -0.2976
  162DOPC   O2219550   2.179   7.226   8.122 -0.0781 -0.0943 -0.6960
  162DOPC   C2219551   1.989   7.126   8.013 -0.3908 -0.0596  0.2937
  162DOPC   H2R19552   1.905   7.073   8.061  0.2796 -0.7759  0.6858
  162DOPC   H2S19553   2.005   7.073   7.917 -3.5858 -1.7283  0.5461
  162DOPC    C319554   2.339   6.837   8.194  0.9763  0.2934 -0.5549
  162DOPC    HX19555   2.248   6.778   8.219 -0.5579  2.9303  0.5042
  162DOPC    HY19556   2.406   6.828   8.282  1.1948  1.8787 -0.5183
  162DOPC   O3119557   2.409   6.800   8.077  0.1684 -0.1696  0.0888
  162DOPC   C3119558   2.339   6.740   7.983 -0.3478 -0.3261 -1.0042
  162DOPC   O3219559   2.221   6.705   7.989  0.0884  0.5357  0.3244
  162DOPC   C3219560   2.428   6.704   7.868 -0.0900 -0.1108 -0.7029
  162DOPC   H2X19561   2.515   6.773   7.867  0.2285 -0.4855  0.0243
  162DOPC   H2Y19562   2.471   6.603   7.885 -1.1855 -0.5248 -0.3154
  162DOPC   C2319563   1.959   7.277   7.975 -0.1258 -0.5359 -0.1954
  162DOPC   H3R19564   2.053   7.313   7.929  0.7887 -0.6614  1.4880
  162DOPC   H3S19565   1.925   7.332   8.066 -1.7371 -1.6987 -0.0476
  162DOPC   C2419566   1.850   7.289   7.867 -0.4852  0.2966  0.1788
  162DOPC   H4R19567   1.760   7.235   7.905  0.6397 -1.4394  0.4679
  162DOPC   H4S19568   1.892   7.253   7.771 -0.4357  2.3087 -0.5971
  162DOPC   C2519569   1.822   7.441   7.841 -0.2299 -0.1894 -0.4776
  162DOPC   H5R19570   1.911   7.507   7.840 -1.5481  1.7394  0.8448
  162DOPC   H5S19571   1.770   7.483   7.930 -1.1637 -2.6029  0.1882
  162DOPC   C2619572   1.745   7.453   7.704 -0.4458  0.0128  0.2268
  162DOPC   H6R19573   1.655   7.389   7.717 -0.4335  0.3818  2.4891
  162DOPC   H6S19574   1.807   7.417   7.619 -0.6018  2.5348 -1.0256
  162DOPC   C2719575   1.706   7.600   7.663 -0.4569  0.5186  0.0657
  162DOPC   H7R19576   1.808   7.646   7.657 -0.7283  0.9868 -1.0740
  162DOPC   H7S19577   1.636   7.639   7.740 -1.5347 -1.0002 -0.1046
  162DOPC   C2819578   1.626   7.599   7.532 -0.1998 -0.6108 -0.3363
  162DOPC   H8R19579   1.681   7.548   7.450  0.9673 -2.9952  1.7599
  162DOPC   H8S19580   1.627   7.706   7.504  1.5471  0.0626  1.8938
  162DOPC   C2919581   1.483   7.551   7.558 -0.1985  0.6362  0.4179
  162DOPC   H9R19582   1.448   7.513   7.655 -1.7425  3.1961  0.9650
  162DOPC  C21019583   1.390   7.570   7.464  0.2471  0.1832  0.7480
  162DOPC  H10R19584   1.285   7.538   7.474  0.1128 -0.2169 -1.5048
  162DOPC  C21119585   1.422   7.634   7.329  0.6891 -0.4551  0.7995
  162DOPC  H11R19586   1.480   7.564   7.266 -1.5625  0.2496 -2.2997
  162DOPC  H11S19587   1.474   7.731   7.340  0.4345 -0.0474 -1.1766
  162DOPC  C21219588   1.296   7.656   7.248  0.1353  0.0333  0.2978
  162DOPC  H12R19589   1.321   7.710   7.154  1.0116  1.1870  1.1737
  162DOPC  H12S19590   1.217   7.704   7.309 -0.5796 -0.7255 -0.0135
  162DOPC  C21319591   1.226   7.520   7.208 -0.6079 -0.1636  0.5272
  162DOPC  H13R19592   1.117   7.542   7.207 -0.5840  0.6824 -3.8204
  162DOPC  H13S19593   1.240   7.443   7.287  0.6547  0.6852  1.1593
  162DOPC  C21419594   1.262   7.471   7.071 -0.0463  0.0641  0.7447
  162DOPC  H14R19595   1.370   7.447   7.063 -0.0799  0.1918 -0.2316
  162DOPC  H14S19596   1.227   7.547   6.997  0.6295  0.2089  0.5709
  162DOPC  C21519597   1.196   7.330   7.037 -0.0139 -0.3134 -0.1831
  162DOPC  H15R19598   1.085   7.331   7.042 -0.0557 -2.8978  0.5473
  162DOPC  H15S19599   1.212   7.271   7.130 -0.1321 -0.6885 -0.4008
  162DOPC  C21619600   1.267   7.266   6.918 -0.3732 -0.8994  0.0220
  162DOPC  H16R19601   1.377   7.268   6.932 -0.2371 -2.8374 -0.4719
  162DOPC  H16S19602   1.239   7.324   6.827 -2.1632 -0.4181  0.8408
  162DOPC  C21719603   1.227   7.121   6.868  0.1774 -0.3831  0.4344
  162DOPC  H17R19604   1.129   7.137   6.818  0.8456  1.0809 -0.4662
  162DOPC  H17S19605   1.215   7.054   6.956 -1.2816 -0.5385  0.1366
  162DOPC  C21819606   1.314   7.065   6.752 -0.6241  0.1266 -0.2415
  162DOPC  H18R19607   1.328   7.138   6.669 -0.3115  0.3208 -0.0189
  162DOPC  H18S19608   1.282   6.968   6.707 -0.5684 -0.3488  0.7336
  162DOPC  H18T19609   1.414   7.044   6.796  0.2768  1.1924 -1.6652
  162DOPC   C3319610   2.352   6.727   7.733 -0.7858  0.3462 -0.0802
  162DOPC   H3X19611   2.363   6.834   7.704 -2.0065  0.8047  1.0508
  162DOPC   H3Y19612   2.247   6.703   7.760 -0.6277  1.6619  1.8872
  162DOPC   C3419613   2.402   6.634   7.619 -0.1872  0.2024  0.1941
  162DOPC   H4X19614   2.383   6.531   7.656  0.2240  0.2253  0.4685
  162DOPC   H4Y19615   2.507   6.636   7.583  0.3204  3.5247  1.5427
  162DOPC   C3519616   2.314   6.659   7.497  0.6343  0.0880  0.0816
  162DOPC   H5X19617   2.210   6.666   7.536  1.8413  2.0879  3.3407
  162DOPC   H5Y19618   2.319   6.579   7.420  0.0182  0.5049 -0.4128
  162DOPC   C3619619   2.347   6.788   7.420 -0.5161 -0.3275  0.3696
  162DOPC   H6X19620   2.295   6.877   7.462 -0.3697 -0.3366  0.5705
  162DOPC   H6Y19621   2.454   6.817   7.430 -0.1774 -1.8834  1.5177
  162DOPC   C3719622   2.328   6.781   7.270  0.2146 -0.2832 -0.8604
  162DOPC   H7X19623   2.372   6.692   7.221 -1.1368 -0.9808 -0.8482
  162DOPC   H7Y19624   2.221   6.774   7.241  0.2735  0.1812 -1.2059
  162DOPC   C3819625   2.387   6.904   7.193  0.8007 -0.4047  0.3003
  162DOPC   H8X19626   2.495   6.905   7.217  0.4762  0.6810  1.8190
  162DOPC   H8Y19627   2.331   6.993   7.227  1.3608  0.8295 -1.8253
  162DOPC   C3919628   2.377   6.908   7.044 -0.0519 -0.4630 -0.2488
  162DOPC   H9X19629   2.468   6.871   6.994 -1.1586 -1.3657 -1.6800
  162DOPC  C31019630   2.267   6.947   6.975 -0.0529 -0.2342 -0.2516
  162DOPC  H10X19631   2.274   6.953   6.866 -0.1494  0.9075 -0.2067
  162DOPC  C31119632   2.145   7.001   7.045 -0.5627 -0.3500  0.2348
  162DOPC  H11X19633   2.156   7.106   7.077  1.0277 -0.8348  1.3658
  162DOPC  H11Y19634   2.123   6.947   7.140  0.7545 -1.0472  0.1678
  162DOPC  C31219635   2.019   6.989   6.959  0.7223  0.2900 -0.4322
  162DOPC  H12X19636   1.933   7.010   7.026  1.1647 -0.7440  0.4949
  162DOPC  H12Y19637   2.005   6.891   6.907  1.0578  0.0224 -0.0279
  162DOPC  C31319638   1.998   7.101   6.860  0.4324 -0.2725  0.3949
  162DOPC  H13X19639   1.892   7.113   6.830  0.9362  3.5022 -0.3788
  162DOPC  H13Y19640   2.024   7.200   6.903 -1.2840  0.9610 -1.2219
  162DOPC  C31419641   2.070   7.090   6.723  0.3939 -0.8512  0.5568
  162DOPC  H14X19642   2.038   7.173   6.656 -2.3845 -4.5047 -3.1348
  162DOPC  H14Y19643   2.180   7.083   6.737  0.8515  2.8414 -0.0146
  162DOPC  C31519644   2.024   6.968   6.629  0.2791 -0.0081  0.0586
  162DOPC  H15X19645   1.917   6.947   6.650 -1.0778  2.7184 -3.1224
  162DOPC  H15Y19646   2.081   6.886   6.679  0.3164  0.6308  1.0973
  162DOPC  C31619647   2.045   6.986   6.473 -0.1634  0.3150  0.3330
  162DOPC  H16X19648   2.018   6.891   6.422  0.1910  0.8203 -0.8173
  162DOPC  H16Y19649   1.994   7.078   6.436  1.9729  1.1723 -0.6269
  162DOPC  C31719650   2.198   6.982   6.439 -0.6658 -0.1592  0.6238
  162DOPC  H17X19651   2.240   7.074   6.486  3.1885 -0.4379 -1.7903
  162DOPC  H17Y19652   2.239   6.885   6.474  2.5878  1.6838  2.4280
  162DOPC  C31819653   2.222   6.992   6.285 -0.3480 -0.0415 -0.1220
  162DOPC  H18X19654   2.167   6.903   6.246  0.8218  0.0734 -2.2187
  162DOPC  H18Y19655   2.183   7.091   6.252  0.8715 -0.0282 -1.6912
  162DOPC  H18Z19656   2.329   6.969   6.267 -0.1995 -0.5412  1.2638
  163DOPC     N19657   0.238   3.295   8.621  0.5428 -0.1268 -0.1454
  163DOPC   C1219658   0.367   3.364   8.604 -0.4767 -0.2048 -0.6396
  163DOPC  H12A19659   0.460   3.310   8.613  0.5015  0.9895 -2.7156
  163DOPC  H12B19660   0.393   3.418   8.693  0.3033  1.5376 -1.8734
  163DOPC   C1319661   0.239   3.196   8.734 -0.2857  0.0615 -0.2520
  163DOPC  H13A19662   0.262   3.239   8.831  1.7535  0.7046 -0.9679
  163DOPC  H13B19663   0.148   3.140   8.748 -0.7296  0.7619 -0.2785
  163DOPC  H13C19664   0.311   3.120   8.710  0.1722 -0.0216  1.2717
  163DOPC   C1419665   0.208   3.223   8.494 -0.1366 -0.8978  0.5165
  163DOPC  H14A19666   0.112   3.175   8.510 -0.2096 -0.0744  2.8384
  163DOPC  H14B19667   0.210   3.290   8.409  2.2565 -3.0013 -1.2584
  163DOPC  H14C19668   0.280   3.143   8.481  0.8780  0.1608 -0.5811
  163DOPC   C1519669   0.123   3.398   8.643 -0.9865  0.1382  0.0429
  163DOPC  H15A19670   0.135   3.471   8.563  0.9145 -0.2712 -0.0771
  163DOPC  H15B19671   0.143   3.450   8.735  0.6984 -0.8987  0.2975
  163DOPC  H15C19672   0.025   3.356   8.630 -0.6397 -0.1955 -1.7413
  163DOPC   C1119673   0.390   3.464   8.484 -0.5808 -0.1043  0.2562
  163DOPC  H11A19674   0.500   3.482   8.479 -0.5373 -0.5774 -0.7267
  163DOPC  H11B19675   0.366   3.426   8.382  3.1333  1.8869 -1.5746
  163DOPC     P19676   0.396   3.725   8.522  0.1623 -0.1363 -0.0370
  163DOPC   O1319677   0.490   3.716   8.634  0.5552 -0.3084  0.7585
  163DOPC   O1419678   0.299   3.832   8.538  0.4722 -0.4589  0.0480
  163DOPC   O1219679   0.319   3.592   8.498 -0.4402  0.1427  0.3865
  163DOPC   O1119680   0.486   3.725   8.390  0.3071 -0.1537 -0.3712
  163DOPC    C119681   0.462   3.797   8.276 -0.1034 -0.0997 -0.2143
  163DOPC    HA19682   0.548   3.793   8.206  1.2152  1.0070  1.2986
  163DOPC    HB19683   0.462   3.904   8.304  0.6291  0.2742 -1.5361
  163DOPC    C219684   0.329   3.762   8.199  0.2112 -0.3847  0.0294
  163DOPC    HS19685   0.245   3.794   8.264  1.3592  0.9185  0.9427
  163DOPC   O2119686   0.337   3.623   8.155  0.0206 -0.4429 -0.0643
  163DOPC   C2119687   0.220   3.576   8.115  0.2443  0.2488  0.0220
  163DOPC   O2219688   0.114   3.641   8.118 -0.4558 -0.0347  0.5254
  163DOPC   C2219689   0.234   3.435   8.054 -0.0826 -0.5306 -0.5801
  163DOPC   H2R19690   0.147   3.377   8.092 -0.3932  1.4047  1.9366
  163DOPC   H2S19691   0.330   3.391   8.090  0.0805 -0.2027 -0.6084
  163DOPC    C319692   0.328   3.847   8.076  0.0631 -0.1320  0.4881
  163DOPC    HX19693   0.230   3.842   8.025  0.7853 -0.0999 -0.9480
  163DOPC    HY19694   0.409   3.808   8.010  0.5521 -1.5546  1.8679
  163DOPC   O3119695   0.359   3.986   8.105 -0.2495 -0.3010  0.3927
  163DOPC   C3119696   0.262   4.053   8.157  0.0794  0.0602 -0.7701
  163DOPC   O3219697   0.156   4.004   8.190  0.4888 -0.3568 -0.8559
  163DOPC   C3219698   0.316   4.195   8.167  0.5187 -0.4262  0.5675
  163DOPC   H2X19699   0.230   4.266   8.175 -0.3400 -1.1424 -1.5272
  163DOPC   H2Y19700   0.380   4.209   8.256  1.4978 -2.1579  0.1775
  163DOPC   C2319701   0.237   3.435   7.905 -0.7496 -0.2248  0.3391
  163DOPC   H3R19702   0.161   3.506   7.865 -0.2305  0.0272 -0.1960
  163DOPC   H3S19703   0.215   3.332   7.868  0.0405  0.2032 -1.3902
  163DOPC   C2419704   0.384   3.453   7.847 -0.8169 -0.4845  0.5330
  163DOPC   H4R19705   0.443   3.367   7.883 -1.1903 -1.2908 -0.7066
  163DOPC   H4S19706   0.409   3.548   7.899 -0.2623  1.1313 -2.4429
  163DOPC   C2519707   0.379   3.465   7.694  0.5951 -0.1752  0.3455
  163DOPC   H5R19708   0.310   3.546   7.664  0.0167 -1.1526 -1.0681
  163DOPC   H5S19709   0.319   3.381   7.653 -0.6371  0.1556  1.3985
  163DOPC   C2619710   0.511   3.484   7.616  0.0869  0.0013  0.4427
  163DOPC   H6R19711   0.585   3.405   7.642  1.3284  0.2253 -2.0861
  163DOPC   H6S19712   0.555   3.586   7.621 -0.9998  0.6857 -1.9961
  163DOPC   C2719713   0.479   3.456   7.464 -0.0198 -0.6009  0.7624
  163DOPC   H7R19714   0.401   3.524   7.424  1.8001  0.6911 -0.7539
  163DOPC   H7S19715   0.449   3.350   7.452 -0.3244 -0.6300  1.6707
  163DOPC   C2819716   0.606   3.493   7.388  0.1614 -0.2821  0.1062
  163DOPC   H8R19717   0.679   3.421   7.430 -0.1636  0.5619  2.2822
  163DOPC   H8S19718   0.641   3.597   7.406 -0.4635  0.4757 -2.6177
  163DOPC   C2919719   0.583   3.482   7.243 -0.4270  0.0575  0.4644
  163DOPC   H9R19720   0.494   3.540   7.214  0.1763  0.6480 -0.2239
  163DOPC  C21019721   0.647   3.410   7.152 -0.1188 -0.3793 -0.1211
  163DOPC  H10R19722   0.613   3.409   7.048  1.3744  4.5706 -0.9127
  163DOPC  C21119723   0.746   3.302   7.178  0.3146 -0.1493 -0.2913
  163DOPC  H11R19724   0.738   3.232   7.093  1.1477 -1.3364  0.5727
  163DOPC  H11S19725   0.720   3.240   7.266  1.5800 -1.1216 -0.5675
  163DOPC  C21219726   0.897   3.344   7.180  0.7974 -0.7263  0.7085
  163DOPC  H12R19727   0.911   3.389   7.280  1.0314 -0.2763  0.4811
  163DOPC  H12S19728   0.927   3.422   7.107 -0.8528  1.1719  1.9399
  163DOPC  C21319729   0.989   3.222   7.140 -0.4478 -0.3014 -0.4890
  163DOPC  H13R19730   0.992   3.221   7.029 -0.2204 -1.0117 -0.4815
  163DOPC  H13S19731   0.953   3.126   7.183 -1.7755 -0.4526 -1.8640
  163DOPC  C21419732   1.128   3.237   7.201  0.3898 -0.0540  0.0397
  163DOPC  H14R19733   1.118   3.224   7.311  1.0569  0.5093  0.1699
  163DOPC  H14S19734   1.177   3.334   7.179  1.8709 -0.9162 -0.5546
  163DOPC  C21519735   1.226   3.134   7.153 -0.2394 -0.2795  1.0996
  163DOPC  H15R19736   1.241   3.141   7.043  0.2566 -2.0293  1.0112
  163DOPC  H15S19737   1.185   3.032   7.171  0.8747 -0.9052  0.2589
  163DOPC  C21619738   1.366   3.153   7.218  0.1913  0.6904 -0.1453
  163DOPC  H16R19739   1.363   3.114   7.322  1.2366 -1.9575 -1.0365
  163DOPC  H16S19740   1.389   3.262   7.225  2.6071  0.2955 -0.9404
  163DOPC  C21719741   1.472   3.083   7.135 -0.2343 -0.1986 -0.3641
  163DOPC  H17R19742   1.498   3.132   7.038 -1.7556 -0.9624 -1.1881
  163DOPC  H17S19743   1.425   2.988   7.104  1.3309 -1.0061 -0.3740
  163DOPC  C21819744   1.604   3.061   7.213 -0.0456 -0.2020 -0.1857
  163DOPC  H18R19745   1.631   3.153   7.269  0.7996 -1.1354  1.0257
  163DOPC  H18S19746   1.685   3.033   7.142  0.4741  0.1122  0.2733
  163DOPC  H18T19747   1.580   2.991   7.297 -4.1276 -0.1276 -1.0795
  163DOPC   C3319748   0.395   4.238   8.037  0.3676 -0.3623 -0.0790
  163DOPC   H3X19749   0.478   4.169   8.011  0.0501 -2.0206  2.9661
  163DOPC   H3Y19750   0.450   4.333   8.058 -0.7698  0.4962 -0.8683
  163DOPC   C3419751   0.296   4.248   7.921 -0.1507 -0.1335  0.4147
  163DOPC   H4X19752   0.207   4.302   7.959  0.1253  0.1165  0.7205
  163DOPC   H4Y19753   0.268   4.148   7.882 -0.5586  0.6076 -1.2565
  163DOPC   C3519754   0.351   4.306   7.794 -0.6847 -0.2489  0.3213
  163DOPC   H5X19755   0.437   4.242   7.766  0.8019  2.1549 -1.0035
  163DOPC   H5Y19756   0.383   4.411   7.812  0.7064 -0.5440 -0.3737
  163DOPC   C3619757   0.249   4.297   7.677 -0.4471  0.1028 -0.1523
  163DOPC   H6X19758   0.221   4.190   7.662 -0.2752 -0.2384  1.6932
  163DOPC   H6Y19759   0.161   4.363   7.693  1.1690  2.1259  0.6871
  163DOPC   C3719760   0.308   4.333   7.539 -0.3055  0.3533  0.5032
  163DOPC   H7X19761   0.331   4.441   7.522 -3.3862  1.1006  0.5071
  163DOPC   H7Y19762   0.408   4.285   7.533 -0.3903  0.3393 -2.6593
  163DOPC   C3819763   0.215   4.282   7.421  0.7428  0.5518 -0.0229
  163DOPC   H8X19764   0.205   4.175   7.448  1.2042  0.7654  1.0625
  163DOPC   H8Y19765   0.277   4.296   7.330  2.1177 -0.8010  0.6644
  163DOPC   C3919766   0.082   4.353   7.428  0.2312 -0.6034 -0.1297
  163DOPC   H9X19767   0.028   4.326   7.519 -3.3990  1.5135 -1.4650
  163DOPC  C31019768   0.027   4.440   7.335  0.1243  0.1273 -0.4184
  163DOPC  H10X19769  -0.076   4.470   7.356  0.3837  1.4757 -0.9565
  163DOPC  C31119770   0.078   4.487   7.205 -0.3009 -0.4384  0.5317
  163DOPC  H11X19771  -0.004   4.500   7.132  1.8976  0.9060 -1.8655
  163DOPC  H11Y19772   0.151   4.414   7.164  0.4865  0.5924  0.0422
  163DOPC  C31219773   0.153   4.619   7.219 -0.1653  0.7133 -0.5370
  163DOPC  H12X19774   0.210   4.611   7.314 -0.5705 -2.2893 -0.4496
  163DOPC  H12Y19775   0.082   4.704   7.209 -1.2337 -0.0833  0.0598
  163DOPC  C31319776   0.252   4.627   7.097  0.4353  0.1448 -0.0636
  163DOPC  H13X19777   0.332   4.550   7.106 -0.1379 -0.4973 -0.3621
  163DOPC  H13Y19778   0.198   4.608   7.002  1.3932 -0.3621 -0.5289
  163DOPC  C31419779   0.331   4.759   7.090 -0.0198  0.9985  0.2171
  163DOPC  H14X19780   0.276   4.848   7.127  0.9601  1.2872  1.0400
  163DOPC  H14Y19781   0.420   4.745   7.155  0.1810 -0.5039 -0.3434
  163DOPC  C31519782   0.370   4.788   6.948 -0.0068 -0.4575  1.0671
  163DOPC  H15X19783   0.285   4.807   6.879  0.7518  0.7614  0.4265
  163DOPC  H15Y19784   0.423   4.696   6.915 -1.1424 -1.1180  1.0307
  163DOPC  C31619785   0.481   4.892   6.934  0.0782 -0.1560  0.4490
  163DOPC  H16X19786   0.568   4.859   6.996 -0.0581  1.4167  1.5369
  163DOPC  H16Y19787   0.505   4.889   6.826 -3.0492 -0.0053 -0.3307
  163DOPC  C31719788   0.438   5.029   6.981 -0.1942 -1.0684  0.3206
  163DOPC  H17X19789   0.363   5.076   6.914 -0.7606  0.0781  1.7172
  163DOPC  H17Y19790   0.390   5.022   7.080  1.5245  1.0907  1.3944
  163DOPC  C31819791   0.562   5.118   6.977  0.6455  0.1921 -0.3721
  163DOPC  H18X19792   0.548   5.224   7.004  1.6861  0.5198 -1.0590
  163DOPC  H18Y19793   0.639   5.078   7.047 -1.0074  2.0196  2.7260
  163DOPC  H18Z19794   0.592   5.126   6.871 -2.2452  2.1221 -1.1524
  164DOPC     N19795   0.655   1.978   8.550 -0.0227  0.3547 -0.0769
  164DOPC   C1219796   0.806   2.027   8.564 -0.8362  0.7202 -0.0874
  164DOPC  H12A19797   0.863   1.936   8.552  0.5082  0.9546  3.3104
  164DOPC  H12B19798   0.827   2.052   8.667 -2.1430  1.7286 -0.0390
  164DOPC   C1319799   0.618   1.898   8.669  0.2285 -0.0053 -0.6202
  164DOPC  H13A19800   0.577   1.947   8.756  1.8333 -1.7834  1.2431
  164DOPC  H13B19801   0.544   1.824   8.641 -0.8088 -0.4396  2.8862
  164DOPC  H13C19802   0.698   1.836   8.707 -0.4323 -0.0849  0.6906
  164DOPC   C1419803   0.649   1.889   8.425  0.3234 -0.1374  0.4646
  164DOPC  H14A19804   0.720   1.809   8.437  2.6424  1.8816  0.9969
  164DOPC  H14B19805   0.545   1.860   8.432  0.1306  0.3013 -0.3895
  164DOPC  H14C19806   0.679   1.942   8.336  0.3288  1.9399  1.6455
  164DOPC   C1519807   0.555   2.088   8.535 -0.0320 -0.0472  0.4989
  164DOPC  H15A19808   0.558   2.168   8.607  0.8940 -0.7061  1.2177
  164DOPC  H15B19809   0.462   2.035   8.525  2.1283 -3.7682 -4.6281
  164DOPC  H15C19810   0.569   2.131   8.436  1.0564 -2.9848 -0.7213
  164DOPC   C1119811   0.850   2.143   8.469 -0.1902 -0.6353 -0.1774
  164DOPC  H11A19812   0.776   2.226   8.471 -3.3140 -3.2177  1.2896
  164DOPC  H11B19813   0.949   2.174   8.508 -0.5271 -0.7488  0.8204
  164DOPC     P19814   0.985   2.033   8.271 -0.0741 -0.1045  0.5557
  164DOPC   O1319815   0.991   1.889   8.309 -0.0412  0.0428  0.0724
  164DOPC   O1419816   1.104   2.107   8.307  0.9663 -0.0422 -0.3822
  164DOPC   O1219817   0.862   2.099   8.336 -0.5578 -0.1760 -0.0351
  164DOPC   O1119818   0.953   2.054   8.113 -0.3245 -0.0229  0.5140
  164DOPC    C119819   0.837   1.994   8.052 -0.0845  0.0201 -0.3608
  164DOPC    HA19820   0.803   2.073   7.981 -0.3680 -0.3149 -0.6074
  164DOPC    HB19821   0.759   1.963   8.125 -0.6945 -0.6830 -1.2734
  164DOPC    C219822   0.872   1.878   7.960 -0.3447 -0.4054 -0.1093
  164DOPC    HS19823   0.897   1.796   8.031 -1.0053 -0.5007  0.0258
  164DOPC   O2119824   0.979   1.921   7.875 -0.1578  0.1938  0.3962
  164DOPC   C2119825   1.094   1.848   7.886 -0.0172  0.0610 -0.1929
  164DOPC   O2219826   1.104   1.747   7.949 -0.0689 -0.2191  0.2164
  164DOPC   C2219827   1.207   1.920   7.822 -0.6733  0.1435  0.7847
  164DOPC   H2R19828   1.278   1.967   7.894  0.1095  1.4741 -0.7769
  164DOPC   H2S19829   1.166   2.004   7.762 -0.3182 -0.5513 -0.4831
  164DOPC    C319830   0.750   1.825   7.883  0.2236 -0.2558 -0.5065
  164DOPC    HX19831   0.726   1.905   7.810  0.9966  0.9558  0.5198
  164DOPC    HY19832   0.666   1.813   7.955  2.1990 -1.6631  1.7355
  164DOPC   O3119833   0.781   1.710   7.804  0.5614  0.6871 -0.0039
  164DOPC   C3119834   0.753   1.597   7.868 -0.4860 -0.4987  0.0538
  164DOPC   O3219835   0.723   1.594   7.988 -0.4867  0.2071 -0.1687
  164DOPC   C3219836   0.781   1.480   7.771  0.1696 -0.0794 -0.1895
  164DOPC   H2X19837   0.691   1.416   7.784  0.3215 -0.0659  1.0138
  164DOPC   H2Y19838   0.779   1.517   7.666 -0.5272 -1.5459 -0.7176
  164DOPC   C2319839   1.279   1.827   7.721  0.8542  0.6109 -0.6367
  164DOPC   H3R19840   1.211   1.810   7.635 -1.0013  1.7181  0.5632
  164DOPC   H3S19841   1.304   1.729   7.768 -2.0641 -1.0356 -2.2279
  164DOPC   C2419842   1.414   1.883   7.657  0.6717  0.0162 -0.4843
  164DOPC   H4R19843   1.489   1.878   7.739 -1.1457 -1.6880  1.1991
  164DOPC   H4S19844   1.419   1.990   7.626  4.0005  0.7446  1.9629
  164DOPC   C2519845   1.463   1.799   7.536 -0.8530  0.3663 -0.2498
  164DOPC   H5R19846   1.392   1.797   7.450 -1.6695 -0.0717  0.4218
  164DOPC   H5S19847   1.465   1.692   7.565 -2.7524  0.5800  0.8278
  164DOPC   C2619848   1.604   1.846   7.481  0.3362  0.0620  0.5407
  164DOPC   H6R19849   1.637   1.781   7.397 -1.2121 -0.1072  0.0297
  164DOPC   H6S19850   1.666   1.841   7.573 -0.8347 -1.7144  1.2953
  164DOPC   C2719851   1.609   1.991   7.411 -0.0900 -0.4690 -0.2085
  164DOPC   H7R19852   1.549   2.064   7.469  0.5437  1.9716 -2.4091
  164DOPC   H7S19853   1.576   1.977   7.306  0.6387  0.3870 -0.5679
  164DOPC   C2819854   1.754   2.039   7.397  0.2440 -0.1079 -0.6868
  164DOPC   H8R19855   1.803   2.023   7.495 -0.7589  0.1119 -0.1433
  164DOPC   H8S19856   1.744   2.149   7.384 -0.1448 -0.1122 -0.4179
  164DOPC   C2919857   1.837   1.978   7.290  0.2856  0.6292 -0.4549
  164DOPC   H9R19858   1.850   1.870   7.308  0.0198  0.9384  1.7792
  164DOPC  C21019859   1.892   2.030   7.176 -1.0772 -0.2498 -0.3743
  164DOPC  H10R19860   1.945   1.957   7.114  0.3358  0.0918  0.3759
  164DOPC  C21119861   1.891   2.170   7.129  0.5509  0.1281 -0.5716
  164DOPC  H11R19862   1.814   2.231   7.181  0.0946 -0.1498 -0.9061
  164DOPC  H11S19863   1.859   2.183   7.023 -3.0197  1.0132  0.4796
  164DOPC  C21219864   2.020   2.249   7.160 -0.1815  0.3269  0.0403
  164DOPC  H12R19865   2.102   2.191   7.114 -1.5175 -1.2859 -0.4265
  164DOPC  H12S19866   2.052   2.241   7.266 -2.4960 -1.7431  0.6943
  164DOPC  C21319867   2.015   2.402   7.122  0.3586 -0.1118  0.8642
  164DOPC  H13R19868   1.933   2.458   7.172  0.2098  0.5415 -0.0913
  164DOPC  H13S19869   1.994   2.403   7.013  0.2658 -0.5895  0.8735
  164DOPC  C21419870   2.148   2.479   7.132 -0.8448 -0.0328  0.0410
  164DOPC  H14R19871   2.195   2.469   7.232 -0.9945  0.2738  0.1443
  164DOPC  H14S19872   2.118   2.585   7.118 -0.5899 -0.2505 -2.5650
  164DOPC  C21519873   2.252   2.443   7.029 -0.3164  0.2447 -0.0350
  164DOPC  H15R19874   2.221   2.453   6.923  0.7345 -2.0001 -0.6039
  164DOPC  H15S19875   2.273   2.334   7.032  1.5005  0.5418 -0.9167
  164DOPC  C21619876   2.384   2.525   7.046 -0.3183  0.6607 -0.3470
  164DOPC  H16R19877   2.448   2.487   7.128  0.9815 -0.0885 -1.6581
  164DOPC  H16S19878   2.360   2.632   7.063  0.2860  0.6065  0.9951
  164DOPC  C21719879   2.469   2.509   6.916  0.1098  0.1730 -0.0263
  164DOPC  H17R19880   2.558   2.575   6.918 -0.1776  0.5355  1.1237
  164DOPC  H17S19881   2.403   2.544   6.833 -1.0071 -0.9179  0.3719
  164DOPC  C21819882   2.509   2.360   6.892  0.2547 -0.6718  0.3620
  164DOPC  H18R19883   2.430   2.287   6.863  0.2815 -0.7550  0.4964
  164DOPC  H18S19884   2.556   2.312   6.980 -0.9606 -1.4386  0.6224
  164DOPC  H18T19885   2.596   2.354   6.823 -0.0701  2.9800 -0.6016
  164DOPC   C3319886   0.909   1.396   7.800  0.4699 -0.7742  0.6478
  164DOPC   H3X19887   0.901   1.349   7.901  0.9992  0.2846  1.1930
  164DOPC   H3Y19888   0.995   1.466   7.801 -1.2607  1.4619  1.3782
  164DOPC   C3419889   0.929   1.293   7.690  0.3302 -0.1500 -0.7132
  164DOPC   H4X19890   0.919   1.335   7.588 -1.7732  2.8522  0.5481
  164DOPC   H4Y19891   0.847   1.219   7.704  1.3117 -1.0021  0.8363
  164DOPC   C3519892   1.059   1.212   7.704 -0.0601  0.1320 -0.7804
  164DOPC   H5X19893   1.073   1.156   7.799  1.6665 -3.0128 -2.6961
  164DOPC   H5Y19894   1.139   1.284   7.680  0.3279 -0.5165 -1.4758
  164DOPC   C3619895   1.061   1.106   7.590  0.0321 -0.9565  0.4996
  164DOPC   H6X19896   0.972   1.040   7.604 -0.9417 -0.6019 -3.0231
  164DOPC   H6Y19897   1.059   1.143   7.486  0.9981  0.3623  0.9341
  164DOPC   C3719898   1.198   1.027   7.597 -0.2458  0.3719  0.8069
  164DOPC   H7X19899   1.282   1.089   7.561  0.5032 -0.3225  1.3090
  164DOPC   H7Y19900   1.211   0.995   7.703  0.7204  0.0277  0.6007
  164DOPC   C3819901   1.179   0.908   7.503  0.0874  0.7693 -0.0074
  164DOPC   H8X19902   1.118   0.936   7.414 -1.1443 -0.5667  0.3668
  164DOPC   H8Y19903   1.122   0.825   7.551  1.0669  1.0636  1.7054
  164DOPC   C3919904   1.314   0.851   7.466  0.3206  0.0328  0.0383
  164DOPC   H9X19905   1.361   0.793   7.546  0.8937  1.2303  0.6043
  164DOPC  C31019906   1.381   0.861   7.351 -0.0837 -0.4097 -0.2776
  164DOPC  H10X19907   1.488   0.835   7.346  0.7354  2.4295  0.4929
  164DOPC  C31119908   1.330   0.940   7.234  0.1858  0.2992 -0.3596
  164DOPC  H11X19909   1.220   0.951   7.243  0.2345  0.8223 -0.3907
  164DOPC  H11Y19910   1.338   0.867   7.150 -0.8060 -0.0817 -0.1400
  164DOPC  C31219911   1.410   1.054   7.180 -0.4723 -0.6502  0.7647
  164DOPC  H12X19912   1.510   1.019   7.147 -0.7085  0.4729 -1.3740
  164DOPC  H12Y19913   1.433   1.130   7.257  2.0812 -1.9853  1.4327
  164DOPC  C31319914   1.349   1.124   7.057 -0.7202  0.2767  0.1296
  164DOPC  H13X19915   1.423   1.201   7.027 -0.4746 -0.3177 -0.8242
  164DOPC  H13Y19916   1.354   1.049   6.976 -0.9031  0.5014 -0.0879
  164DOPC  C31419917   1.198   1.171   7.078  0.5623  0.6739  0.0746
  164DOPC  H14X19918   1.140   1.077   7.075  2.3830 -0.4583 -1.1210
  164DOPC  H14Y19919   1.161   1.234   6.994  1.7394  1.7366  0.3160
  164DOPC  C31519920   1.175   1.250   7.215  0.0470 -0.1939 -0.1623
  164DOPC  H15X19921   1.208   1.183   7.297  1.0116  0.0925 -0.3045
  164DOPC  H15Y19922   1.071   1.284   7.230 -0.5146 -1.4498 -1.0596
  164DOPC  C31619923   1.263   1.376   7.231 -0.3178  0.1932 -0.2441
  164DOPC  H16X19924   1.372   1.359   7.223  0.2370  3.3689 -0.5904
  164DOPC  H16Y19925   1.228   1.445   7.151  0.8011  1.8801  0.6699
  164DOPC  C31719926   1.248   1.460   7.362 -0.2903 -0.6298  0.0815
  164DOPC  H17X19927   1.299   1.405   7.444 -2.0525 -1.2631  0.8171
  164DOPC  H17Y19928   1.291   1.561   7.348 -1.5151  0.1363  1.5036
  164DOPC  C31819929   1.101   1.481   7.398 -0.6717  0.1332 -0.3274
  164DOPC  H18X19930   1.077   1.533   7.493 -0.2260 -1.9735  1.0087
  164DOPC  H18Y19931   1.056   1.541   7.316 -2.0943 -0.1812  0.1807
  164DOPC  H18Z19932   1.054   1.380   7.397  1.2009 -0.7877  0.1478
  165DOPC     N19933   4.773   0.161   9.317  0.5097 -0.3775  0.6019
  165DOPC   C1219934   4.745   0.041   9.225 -0.4532 -0.5658 -0.1359
  165DOPC  H12A19935   4.639   0.023   9.239 -0.1847 -1.1195  1.2908
  165DOPC  H12B19936   4.805  -0.043   9.256  2.6648  1.8093  0.8171
  165DOPC   C1319937   4.713   0.287   9.272 -0.2657 -0.2869 -0.2052
  165DOPC  H13A19938   4.773   0.311   9.184  0.8898 -1.6324  0.1814
  165DOPC  H13B19939   4.611   0.275   9.239 -1.3615  0.5238  2.6341
  165DOPC  H13C19940   4.722   0.375   9.334 -4.1406 -0.3870  0.7617
  165DOPC   C1419941   4.918   0.174   9.332 -0.8395  0.0238  0.1851
  165DOPC  H14A19942   4.964   0.176   9.234  0.0121  0.9994  0.5854
  165DOPC  H14B19943   4.941   0.265   9.386 -0.3363  0.0964 -0.1426
  165DOPC  H14C19944   4.966   0.092   9.384  2.6164 -0.2959 -3.0908
  165DOPC   C1519945   4.719   0.141   9.453 -0.0779 -0.6771 -0.7956
  165DOPC  H15A19946   4.616   0.112   9.458  0.1970 -1.4318  1.6477
  165DOPC  H15B19947   4.733   0.231   9.510  2.5108 -1.0526 -0.7003
  165DOPC  H15C19948   4.760   0.053   9.501 -0.0646 -0.4996 -0.4792
  165DOPC   C1119949   4.790   0.070   9.083  0.4780 -0.2669  1.0795
  165DOPC  H11A19950   4.748  -0.012   9.021  1.4251 -0.7014  0.9859
  165DOPC  H11B19951   4.739   0.162   9.047  1.5227  0.7141  2.0050
  165DOPC     P19952   5.016  -0.041   9.005 -0.1381  0.1576  0.2696
  165DOPC   O1319953   5.000  -0.165   9.081 -0.4414 -0.6398 -0.5136
  165DOPC   O1419954   5.161  -0.002   8.989  0.5281  0.2859 -0.8190
  165DOPC   O1219955   4.933   0.080   9.070  0.4716 -0.2322 -0.1145
  165DOPC   O1119956   4.955  -0.051   8.867  0.6635  0.4904  0.3308
  165DOPC    C119957   4.940   0.065   8.781 -0.7889 -0.5507 -0.3256
  165DOPC    HA19958   5.026   0.135   8.792  0.4965 -1.6294 -2.8356
  165DOPC    HB19959   4.853   0.131   8.803  0.4891  1.3720 -0.7628
  165DOPC    C219960   4.927   0.007   8.637  0.0458  0.0879 -0.4340
  165DOPC    HS19961   4.842  -0.063   8.656  1.3405 -1.1957  0.8948
  165DOPC   O2119962   5.036  -0.072   8.601  0.1347 -0.1525  0.5829
  165DOPC   C2119963   5.017  -0.155   8.507 -0.0934  0.0076 -0.3043
  165DOPC   O2219964   4.925  -0.159   8.429  0.2872  0.1382  0.5612
  165DOPC   C2219965   5.143  -0.243   8.488  0.3353 -0.0067 -0.1194
  165DOPC   H2R19966   5.179  -0.272   8.589  1.9785 -2.6212 -1.3474
  165DOPC   H2S19967   5.213  -0.183   8.426  0.0729 -1.4289 -1.8851
  165DOPC    C319968   4.895   0.126   8.545 -0.4567 -0.2598  0.0316
  165DOPC    HX19969   4.795   0.161   8.580 -1.1675 -1.2782 -0.8929
  165DOPC    HY19970   4.884   0.082   8.443 -1.5854  1.1266 -0.4953
  165DOPC   O3119971   4.982   0.241   8.542 -0.4099  0.2964 -0.1030
  165DOPC   C3119972   4.980   0.318   8.434  0.7245 -0.1396 -0.6543
  165DOPC   O3219973   4.904   0.314   8.345 -0.1826 -0.7131  0.2096
  165DOPC   C3219974   5.090   0.426   8.461  0.4376  0.0078 -1.0994
  165DOPC   H2X19975   5.066   0.487   8.551  1.1958 -0.0474 -0.8481
  165DOPC   H2Y19976   5.179   0.374   8.504 -0.8705 -0.8207  0.7709
  165DOPC   C2319977   5.101  -0.379   8.416 -0.1733 -0.9459  0.7601
  165DOPC   H3R19978   5.062  -0.353   8.314  0.5824 -2.7794 -0.0354
  165DOPC   H3S19979   5.028  -0.433   8.480  1.8671  0.0680  4.1745
  165DOPC   C2419980   5.225  -0.467   8.384 -0.5470 -0.2046 -1.1242
  165DOPC   H4R19981   5.269  -0.468   8.485  0.8492  1.8273 -1.6554
  165DOPC   H4S19982   5.307  -0.422   8.324  0.6149  0.3894  0.8482
  165DOPC   C2519983   5.189  -0.597   8.320 -0.3497 -0.6691  0.2150
  165DOPC   H5R19984   5.146  -0.591   8.218  0.0445 -0.9086  0.0340
  165DOPC   H5S19985   5.122  -0.641   8.397  1.3473 -1.9611  1.0222
  165DOPC   C2619986   5.298  -0.706   8.314  0.2414 -0.5112 -0.3398
  165DOPC   H6R19987   5.250  -0.799   8.276 -0.6411 -0.7756  1.3060
  165DOPC   H6S19988   5.331  -0.726   8.418 -0.3357 -0.4615 -0.1450
  165DOPC   C2719989   5.413  -0.654   8.231 -0.7320  0.1293  0.1597
  165DOPC   H7R19990   5.494  -0.730   8.237  0.9462  1.9226  2.3757
  165DOPC   H7S19991   5.450  -0.557   8.270 -0.3606 -0.2288  0.7171
  165DOPC   C2819992   5.370  -0.648   8.081 -0.1564 -0.4747  0.4457
  165DOPC   H8R19993   5.285  -0.581   8.060  1.4068  1.3010 -0.5520
  165DOPC   H8S19994   5.339  -0.749   8.047 -0.6290 -0.0659 -0.3633
  165DOPC   C2919995   5.488  -0.602   7.999 -0.4309  0.0331 -0.0304
  165DOPC   H9R19996   5.500  -0.492   7.996 -1.0917  0.1439  0.9254
  165DOPC  C21019997   5.569  -0.683   7.927 -0.0334  0.2130 -0.1314
  165DOPC  H10R19998   5.652  -0.647   7.865  0.9910 -1.2163  0.3485
  165DOPC  C21119999   5.559  -0.840   7.910 -0.3241  0.4093 -0.7119
  165DOPC  H11R20000   5.504  -0.888   7.994  0.6076 -2.2852 -1.5458
  165DOPC  H11S20001   5.660  -0.884   7.917  0.2808  1.7062 -1.0224
  165DOPC  C21220002   5.486  -0.875   7.776 -0.2547  0.4798 -0.7739
  165DOPC  H12R20003   5.461  -0.983   7.785  2.6208 -0.1729  0.6927
  165DOPC  H12S20004   5.552  -0.874   7.686 -0.8761  0.9840 -1.2379
  165DOPC  C21320005   5.377  -0.791   7.734  0.4118  0.8097  0.3121
  165DOPC  H13R20006   5.404  -0.686   7.711  2.6712  0.3427  0.6414
  165DOPC  H13S20007   5.304  -0.790   7.818  1.8832 -0.4281  1.6812
  165DOPC  C21420008   5.312  -0.863   7.616 -0.5305  0.0539 -0.1193
  165DOPC  H14R20009   5.293  -0.966   7.651 -1.1655  0.7479  1.7175
  165DOPC  H14S20010   5.391  -0.854   7.538  0.1200 -0.4845  0.4674
  165DOPC  C21520011   5.193  -0.800   7.556 -0.1355  0.4397  0.2414
  165DOPC  H15R20012   5.217  -0.693   7.540  0.3268  0.1884 -0.8725
  165DOPC  H15S20013   5.116  -0.802   7.636  1.0481  0.6705  1.4337
  165DOPC  C21620014   5.147  -0.873   7.424 -0.4716 -0.3285  0.3815
  165DOPC  H16R20015   5.238  -0.896   7.364 -0.4728 -2.1817  1.0286
  165DOPC  H16S20016   5.073  -0.817   7.363  1.3136  2.1541  0.3272
  165DOPC  C21720017   5.103  -1.012   7.460  0.0390  0.7376 -0.0534
  165DOPC  H17R20018   5.012  -1.001   7.522  0.9239  0.0860  1.4221
  165DOPC  H17S20019   5.184  -1.066   7.515 -1.6401  0.5564  2.4144
  165DOPC  C21820020   5.068  -1.085   7.338  1.2676  0.2239  0.7447
  165DOPC  H18R20021   5.151  -1.093   7.264  0.8338  0.9774  0.1603
  165DOPC  H18S20022   4.991  -1.022   7.290  0.4935  0.9293  2.8184
  165DOPC  H18T20023   5.030  -1.185   7.367  2.1680  0.4136  2.7244
  165DOPC   C3320024   5.135   0.502   8.333 -0.7476 -1.2018 -0.1028
  165DOPC   H3X20025   5.203   0.585   8.358  0.6807 -1.4439 -2.7635
  165DOPC   H3Y20026   5.053   0.555   8.281  0.8442  0.0790 -1.3888
  165DOPC   C3420027   5.193   0.401   8.229  0.0293  0.3539 -0.0532
  165DOPC   H4X20028   5.127   0.314   8.207  0.0652  0.7968 -2.1145
  165DOPC   H4Y20029   5.289   0.358   8.265  1.9832  1.2746 -3.6866
  165DOPC   C3520030   5.225   0.463   8.092  0.2849 -0.0361 -0.0019
  165DOPC   H5X20031   5.307   0.537   8.105 -0.7631  0.9226  1.3442
  165DOPC   H5Y20032   5.140   0.523   8.055 -0.1903 -1.0652 -0.6343
  165DOPC   C3620033   5.271   0.350   7.995 -0.1880  0.2404  0.0905
  165DOPC   H6X20034   5.341   0.394   7.920  0.3546 -1.5512 -0.5114
  165DOPC   H6Y20035   5.329   0.274   8.051  4.0375  0.8375 -2.9861
  165DOPC   C3720036   5.158   0.283   7.911  0.0780 -0.1122 -0.2474
  165DOPC   H7X20037   5.111   0.349   7.835  0.7636  1.1889  0.4151
  165DOPC   H7Y20038   5.080   0.256   7.986 -0.3772  0.1689 -0.6130
  165DOPC   C3820039   5.188   0.154   7.835  0.7292  0.9526  0.0203
  165DOPC   H8X20040   5.216   0.084   7.916 -2.6827  0.0929  0.5965
  165DOPC   H8Y20041   5.264   0.186   7.761  1.9487  0.9189  1.2231
  165DOPC   C3920042   5.072   0.077   7.782  0.7659  0.4875  0.2988
  165DOPC   H9X20043   5.038   0.006   7.859  1.1142  1.2599  1.1818
  165DOPC  C31020044   5.029   0.067   7.658  0.1928  0.3431  0.0151
  165DOPC  H10X20045   4.939   0.006   7.645  0.7216 -0.7422  1.2165
  165DOPC  C31120046   5.059   0.165   7.546 -0.5846 -0.4999 -0.0228
  165DOPC  H11X20047   5.098   0.258   7.591 -3.8888 -0.2324  2.7536
  165DOPC  H11Y20048   4.973   0.188   7.479  2.2647  3.4398 -2.7730
  165DOPC  C31220049   5.182   0.110   7.457  0.0321  0.0941  0.0200
  165DOPC  H12X20050   5.146   0.013   7.417 -0.0994 -0.4891  1.4739
  165DOPC  H12Y20051   5.271   0.087   7.519 -0.3805 -1.6605  0.0163
  165DOPC  C31320052   5.226   0.203   7.337 -0.2213 -0.2175  0.0563
  165DOPC  H13X20053   5.143   0.238   7.272 -0.6741 -0.0610  0.7055
  165DOPC  H13Y20054   5.262   0.303   7.371  2.6296 -0.7244 -1.1349
  165DOPC  C31420055   5.340   0.149   7.255  0.0479 -0.5169  0.4912
  165DOPC  H14X20056   5.429   0.154   7.323  0.8920 -0.9632 -0.5484
  165DOPC  H14Y20057   5.330   0.046   7.215  1.0763 -0.1222 -0.8316
  165DOPC  C31520058   5.372   0.243   7.142  0.2929  0.0060  0.4397
  165DOPC  H15X20059   5.361   0.350   7.171  1.9510 -0.1107  1.6297
  165DOPC  H15Y20060   5.309   0.223   7.053  1.3385  1.3383 -0.6549
  165DOPC  C31620061   5.518   0.239   7.097  0.2727  0.3100 -0.3106
  165DOPC  H16X20062   5.579   0.256   7.188 -1.3487  0.5899  0.7520
  165DOPC  H16Y20063   5.521   0.130   7.075 -1.8763  0.0419  0.5329
  165DOPC  C31720064   5.558   0.319   6.974  0.0453  0.0364 -0.6421
  165DOPC  H17X20065   5.468   0.336   6.911 -1.0209 -0.1291  0.7727
  165DOPC  H17Y20066   5.582   0.418   7.018 -0.3999 -0.7844  1.5828
  165DOPC  C31820067   5.674   0.253   6.907 -0.4962 -0.1924  0.7630
  165DOPC  H18X20068   5.715   0.312   6.822 -1.1740 -1.8694 -0.8114
  165DOPC  H18Y20069   5.760   0.246   6.977  1.0542 -1.0883 -1.1228
  165DOPC  H18Z20070   5.634   0.155   6.872 -0.2805  0.1458 -0.4959
  166DOPC     N20071   6.668   4.204   8.672  0.1313  0.1670  0.5355
  166DOPC   C1220072   6.787   4.283   8.611 -0.2523  0.0357  0.5403
  166DOPC  H12A20073   6.810   4.372   8.668  0.1739  1.7219 -2.1258
  166DOPC  H12B20074   6.762   4.315   8.511 -1.3893  0.7240  1.0241
  166DOPC   C1320075   6.716   4.134   8.795  0.2859  0.6015  0.0195
  166DOPC  H13A20076   6.734   4.191   8.885 -0.1762 -1.7148  1.6708
  166DOPC  H13B20077   6.638   4.067   8.827 -2.4503  2.9641 -1.3162
  166DOPC  H13C20078   6.811   4.085   8.776  1.4903  1.6760  2.6566
  166DOPC   C1420079   6.631   4.100   8.578  0.2671 -0.6949  0.1664
  166DOPC  H14A20080   6.717   4.041   8.552  0.1428 -2.0866  2.6707
  166DOPC  H14B20081   6.556   4.040   8.626 -0.3641 -0.8512 -0.9726
  166DOPC  H14C20082   6.596   4.145   8.486 -0.1441 -2.1236 -0.4007
  166DOPC   C1520083   6.553   4.298   8.706  0.2138  0.7299  0.8706
  166DOPC  H15A20084   6.576   4.378   8.774 -0.2208  3.4633 -1.9623
  166DOPC  H15B20085   6.461   4.249   8.734  0.3507  0.2566  0.5197
  166DOPC  H15C20086   6.529   4.349   8.614  1.4527 -2.8068 -1.6551
  166DOPC   C1120087   6.923   4.203   8.602 -0.3192 -0.2863  0.6132
  166DOPC  H11A20088   6.986   4.285   8.561 -2.0565  1.1662  0.7120
  166DOPC  H11B20089   6.962   4.174   8.702  1.4783  1.0231  0.3504
  166DOPC     P20090   6.960   3.947   8.531  0.2820 -0.1958  0.4232
  166DOPC   O1320091   6.845   3.869   8.587  0.4374  0.0618  0.5571
  166DOPC   O1420092   7.083   3.940   8.613 -0.1347 -0.3101 -0.0544
  166DOPC   O1220093   6.913   4.094   8.504 -0.5033 -0.1341 -0.6107
  166DOPC   O1120094   6.996   3.903   8.385 -0.4211 -0.2510 -0.3409
  166DOPC    C120095   7.127   3.903   8.337 -0.0188  0.7813  0.3116
  166DOPC    HA20096   7.201   3.849   8.399  1.2022  0.1352 -1.6004
  166DOPC    HB20097   7.170   4.006   8.339  0.6196  0.5192  2.5224
  166DOPC    C220098   7.132   3.825   8.203  0.6062  0.9555 -0.0199
  166DOPC    HS20099   7.238   3.822   8.169  0.3012  1.2409 -1.0313
  166DOPC   O2120100   7.041   3.894   8.111 -0.5061  0.5891 -0.8936
  166DOPC   C2120101   7.100   4.002   8.065 -0.3426  0.0469  0.5124
  166DOPC   O2220102   7.208   4.045   8.086 -0.0210  0.0658  0.0762
  166DOPC   C2220103   6.999   4.085   7.984  0.1323 -0.7001  0.3485
  166DOPC   H2R20104   7.055   4.167   7.934 -1.3760 -0.1666 -0.5213
  166DOPC   H2S20105   6.930   4.125   8.061  2.5582  0.9121  1.8094
  166DOPC    C320106   7.084   3.681   8.217  0.3163 -0.3459  0.2365
  166DOPC    HX20107   6.982   3.680   8.261  0.5073  0.0502  0.7035
  166DOPC    HY20108   7.159   3.638   8.287  2.0995 -2.9298 -2.9445
  166DOPC   O3120109   7.089   3.606   8.093 -0.6044  0.8692 -0.3550
  166DOPC   C3120110   6.980   3.596   8.026 -0.6707  0.5792  0.0718
  166DOPC   O3220111   6.869   3.636   8.051 -0.1031 -0.4258 -0.0880
  166DOPC   C3220112   7.014   3.516   7.897 -0.3641 -0.2542 -0.5012
  166DOPC   H2X20113   7.095   3.442   7.916  0.0908  0.7554  1.8670
  166DOPC   H2Y20114   6.922   3.464   7.862 -0.0332 -0.0162 -1.7915
  166DOPC   C2320115   6.905   4.006   7.882 -0.3825  0.0747 -0.0755
  166DOPC   H3R20116   6.809   4.059   7.865 -0.2450 -0.0410 -1.2951
  166DOPC   H3S20117   6.882   3.905   7.921 -1.6600  0.9002  1.4673
  166DOPC   C2420118   6.974   4.000   7.742 -0.1332  0.3303 -0.1544
  166DOPC   H4R20119   7.064   3.936   7.751 -0.1360  0.0118 -1.9353
  166DOPC   H4S20120   7.004   4.105   7.719 -1.6735  0.9574  0.5492
  166DOPC   C2520121   6.881   3.953   7.626  0.6735 -0.1533 -0.5869
  166DOPC   H5R20122   6.856   3.849   7.657  0.6006  0.3240  1.0584
  166DOPC   H5S20123   6.952   3.951   7.541  1.1912  1.2328 -0.2141
  166DOPC   C2620124   6.764   4.045   7.595  0.3673 -0.0390  0.0250
  166DOPC   H6R20125   6.802   4.149   7.590  0.9838 -0.3052 -1.6944
  166DOPC   H6S20126   6.686   4.040   7.674  0.2703 -1.0248 -0.1165
  166DOPC   C2720127   6.689   4.022   7.460 -0.6824  0.4573  0.2595
  166DOPC   H7R20128   6.620   4.109   7.453 -2.6129 -1.1050 -1.2664
  166DOPC   H7S20129   6.616   3.939   7.458  0.9144 -1.0255  1.0134
  166DOPC   C2820130   6.773   4.023   7.338 -0.3789  0.6970 -0.3213
  166DOPC   H8R20131   6.825   3.926   7.323  0.9141  1.5012 -1.2778
  166DOPC   H8S20132   6.851   4.100   7.358  0.7003 -0.3766 -0.3170
  166DOPC   C2920133   6.701   4.051   7.206 -0.2936  0.2374  0.4124
  166DOPC   H9R20134   6.648   4.147   7.198 -0.2108  0.3708  1.3432
  166DOPC  C21020135   6.708   3.969   7.098  0.0371  0.0221  0.1645
  166DOPC  H10R20136   6.667   4.012   7.006 -0.8588  0.6828  0.8544
  166DOPC  C21120137   6.788   3.841   7.089  0.5687 -0.3755  0.2182
  166DOPC  H11R20138   6.735   3.787   7.008 -0.6279 -0.9318  1.3308
  166DOPC  H11S20139   6.780   3.781   7.182 -1.3647  0.0581  0.3820
  166DOPC  C21220140   6.932   3.868   7.054  0.2352 -0.4728  0.5148
  166DOPC  H12R20141   6.972   3.922   7.143  0.7828  1.1932 -0.6986
  166DOPC  H12S20142   6.928   3.933   6.964 -0.7601 -0.8155  0.2964
  166DOPC  C21320143   7.006   3.740   7.031 -0.4391 -0.2257  0.3751
  166DOPC  H13R20144   6.966   3.695   6.937 -0.1723  0.3382 -0.0095
  166DOPC  H13S20145   6.974   3.672   7.112 -2.3868  1.1674  0.8357
  166DOPC  C21420146   7.159   3.743   7.010  0.3075  0.9316  0.0225
  166DOPC  H14R20147   7.205   3.802   7.092  1.6699 -0.5604  0.3873
  166DOPC  H14S20148   7.172   3.794   6.912  1.1694 -0.3672 -0.5716
  166DOPC  C21520149   7.239   3.612   7.010  0.1644 -0.2638  0.8279
  166DOPC  H15R20150   7.201   3.556   6.922 -1.3120  1.3229  0.4053
  166DOPC  H15S20151   7.216   3.549   7.099 -1.8727 -2.0256 -0.8256
  166DOPC  C21620152   7.390   3.636   6.999 -0.1384 -0.3364  0.3546
  166DOPC  H16R20153   7.428   3.677   7.095 -0.2915  0.9748 -0.1258
  166DOPC  H16S20154   7.411   3.708   6.918 -0.2838  0.0531  0.6582
  166DOPC  C21720155   7.464   3.499   6.970 -0.0540 -0.2896 -0.3777
  166DOPC  H17R20156   7.466   3.469   6.863 -1.9947  1.5012 -0.9820
  166DOPC  H17S20157   7.405   3.420   7.021 -0.7239 -0.0208 -0.7314
  166DOPC  C21820158   7.604   3.505   7.033 -0.2699 -0.1460 -0.0697
  166DOPC  H18R20159   7.662   3.592   6.996  0.2478 -0.7029 -0.5915
  166DOPC  H18S20160   7.672   3.417   7.021  0.2532  0.5267 -2.5200
  166DOPC  H18T20161   7.600   3.519   7.143  1.7191  1.4728 -0.1336
  166DOPC   C3320162   7.063   3.607   7.788  0.5294  0.0945  0.0957
  166DOPC   H3X20163   7.153   3.659   7.826  0.3503  1.9121 -1.7837
  166DOPC   H3Y20164   6.981   3.680   7.767  2.2646  1.5709 -2.0161
  166DOPC   C3420165   7.103   3.527   7.660  0.3279 -0.4200  0.4497
  166DOPC   H4X20166   7.044   3.434   7.644  1.9714 -1.3340 -0.6895
  166DOPC   H4Y20167   7.206   3.485   7.663  0.1328 -0.9655 -0.1127
  166DOPC   C3520168   7.084   3.614   7.533 -0.1858 -0.5454  0.4272
  166DOPC   H5X20169   7.149   3.703   7.528 -0.0050 -0.7126 -0.2973
  166DOPC   H5Y20170   6.982   3.659   7.536  0.3471  0.6356  1.5339
  166DOPC   C3620171   7.102   3.541   7.399  1.0662 -0.0741  0.7033
  166DOPC   H6X20172   7.077   3.621   7.327 -0.8911  0.6073  2.0342
  166DOPC   H6Y20173   7.202   3.495   7.390  1.0356 -0.8662  3.3492
  166DOPC   C3720174   7.006   3.423   7.365 -0.4697  0.2680 -0.1779
  166DOPC   H7X20175   7.019   3.341   7.439  0.1034  0.0567 -0.5032
  166DOPC   H7Y20176   6.904   3.461   7.387 -1.5095 -3.7816  3.3926
  166DOPC   C3820177   7.024   3.376   7.220 -0.0717 -0.0530  0.0560
  166DOPC   H8X20178   7.128   3.339   7.206 -0.0907  0.1212 -0.6010
  166DOPC   H8Y20179   7.013   3.467   7.157 -2.3037 -2.2080 -2.9972
  166DOPC   C3920180   6.905   3.286   7.181 -0.2372 -0.2780  0.3919
  166DOPC   H9X20181   6.807   3.332   7.200  0.6669  1.7397  0.4250
  166DOPC  C31020182   6.923   3.172   7.115  0.5004 -0.6825 -0.1572
  166DOPC  H10X20183   6.838   3.121   7.068 -1.2945  0.2090  1.9317
  166DOPC  C31120184   7.050   3.112   7.069 -0.2131  0.2095  0.4276
  166DOPC  H11X20185   7.050   3.001   7.074 -1.1693  0.2383  1.2306
  166DOPC  H11Y20186   7.143   3.152   7.115  0.6462 -1.7688  0.5572
  166DOPC  C31220187   7.069   3.154   6.920  0.2124  0.8217  0.3358
  166DOPC  H12X20188   7.157   3.093   6.887 -1.1527 -1.4984  0.7175
  166DOPC  H12Y20189   7.099   3.260   6.907  0.5897  1.2884  4.0108
  166DOPC  C31320190   6.958   3.109   6.822 -0.3529 -0.2243  0.5503
  166DOPC  H13X20191   6.920   3.011   6.859  2.1428 -1.4682  0.0864
  166DOPC  H13Y20192   6.872   3.178   6.832  0.2470  0.3629  1.8971
  166DOPC  C31420193   7.008   3.106   6.677  0.4136  0.4347  0.5315
  166DOPC  H14X20194   6.929   3.114   6.599  2.1135  1.4710 -1.1653
  166DOPC  H14Y20195   7.065   3.201   6.667  3.5389 -1.5141 -1.7311
  166DOPC  C31520196   7.093   2.982   6.643 -0.6583  0.2839 -0.0689
  166DOPC  H15X20197   7.038   2.888   6.619  0.1446 -0.1602 -0.1902
  166DOPC  H15Y20198   7.146   2.960   6.738 -0.0024  3.4370  0.4053
  166DOPC  C31620199   7.193   3.004   6.533 -0.1949 -0.5501 -0.4613
  166DOPC  H16X20200   7.138   3.043   6.444 -3.5716 -0.2703  1.5732
  166DOPC  H16Y20201   7.256   3.092   6.558 -0.0982 -0.7345 -0.0588
  166DOPC  C31720202   7.274   2.880   6.495  0.4434  0.3659 -0.0870
  166DOPC  H17X20203   7.202   2.804   6.460 -0.9910 -0.6253  4.3468
  166DOPC  H17Y20204   7.346   2.905   6.414  0.1852 -0.4439 -0.5727
  166DOPC  C31820205   7.350   2.809   6.612  0.3548 -0.0106  0.1597
  166DOPC  H18X20206   7.274   2.766   6.681 -0.2179  2.3185  1.0992
  166DOPC  H18Y20207   7.401   2.715   6.582  0.5105  0.5071 -1.2469
  166DOPC  H18Z20208   7.415   2.878   6.670 -0.7573  0.4950  0.8313
  167DOPC     N20209   6.344   0.747   9.149  0.4702 -0.2850 -0.1619
  167DOPC   C1220210   6.264   0.823   9.045  0.4770 -0.3307 -0.1225
  167DOPC  H12A20211   6.310   0.920   9.036 -2.6766  1.3708  0.7710
  167DOPC  H12B20212   6.167   0.848   9.085  2.0918  0.7998  3.4734
  167DOPC   C1320213   6.265   0.634   9.207 -1.2738 -0.4247  0.5090
  167DOPC  H13A20214   6.167   0.667   9.236  0.0528  4.0639  0.6915
  167DOPC  H13B20215   6.248   0.552   9.138  0.5828  0.8954 -1.6803
  167DOPC  H13C20216   6.325   0.592   9.286 -1.4433 -1.7229 -0.0154
  167DOPC   C1420217   6.377   0.846   9.264 -0.1950  0.2809  0.1123
  167DOPC  H14A20218   6.444   0.800   9.335  0.6016 -0.8184 -1.2681
  167DOPC  H14B20219   6.428   0.934   9.228  0.6012 -0.1065  0.2588
  167DOPC  H14C20220   6.282   0.874   9.306  0.0474  0.4399  0.5504
  167DOPC   C1520221   6.475   0.688   9.102  0.0034 -0.4739 -0.3833
  167DOPC  H15A20222   6.460   0.637   9.008  1.7284  1.8754 -2.0398
  167DOPC  H15B20223   6.528   0.618   9.165 -0.1187 -0.8805 -0.7263
  167DOPC  H15C20224   6.547   0.766   9.082  0.7515 -1.0642 -0.0125
  167DOPC   C1120225   6.252   0.766   8.902  0.4973  0.8660 -0.0932
  167DOPC  H11A20226   6.205   0.834   8.828  1.5125 -0.7042 -2.2939
  167DOPC  H11B20227   6.356   0.754   8.865  0.6516 -0.7267  0.7439
  167DOPC     P20228   6.034   0.634   8.904  0.1106  0.3274  0.1505
  167DOPC   O1320229   5.989   0.714   9.022  0.2119 -0.6643  0.0222
  167DOPC   O1420230   6.004   0.489   8.892  0.8361 -0.4102 -0.7604
  167DOPC   O1220231   6.188   0.635   8.906 -1.0143 -0.1756 -0.0020
  167DOPC   O1120232   5.999   0.718   8.778 -0.4642  0.2959 -0.2865
  167DOPC    C120233   6.047   0.683   8.646 -0.2489  0.0424 -0.2766
  167DOPC    HA20234   6.108   0.590   8.635  0.0545  0.4405 -2.5259
  167DOPC    HB20235   6.106   0.769   8.609  0.2127 -0.2046 -0.1163
  167DOPC    C220236   5.927   0.657   8.546  0.0008 -0.4018 -0.3724
  167DOPC    HS20237   5.970   0.589   8.469  2.1971 -0.2323  0.6384
  167DOPC   O2120238   5.890   0.785   8.479  0.1270 -0.0266 -0.2574
  167DOPC   C2120239   5.975   0.832   8.386  0.8324 -0.7455  0.1306
  167DOPC   O2220240   6.077   0.774   8.358 -0.3329 -0.0672  0.0978
  167DOPC   C2220241   5.927   0.968   8.321  0.6712 -0.3992  0.4909
  167DOPC   H2R20242   5.997   0.989   8.237  0.6429 -1.0197  0.3044
  167DOPC   H2S20243   5.940   1.044   8.400  1.7769 -0.7266  0.6389
  167DOPC    C320244   5.785   0.602   8.594 -0.3208 -0.0926  0.7067
  167DOPC    HX20245   5.740   0.688   8.647 -0.1302  0.0363  0.6628
  167DOPC    HY20246   5.802   0.515   8.662 -2.0931 -1.4283 -0.4780
  167DOPC   O3120247   5.711   0.554   8.477  0.4677 -0.1117 -0.3852
  167DOPC   C3120248   5.586   0.538   8.510  0.1132 -0.1126 -0.3619
  167DOPC   O3220249   5.539   0.552   8.623 -0.5924  0.3916 -0.0901
  167DOPC   C3220250   5.508   0.513   8.387  0.5824 -0.1764 -0.2791
  167DOPC   H2X20251   5.531   0.414   8.342  0.6028 -0.6138  0.6734
  167DOPC   H2Y20252   5.405   0.491   8.423  1.6248 -0.8032  2.6369
  167DOPC   C2320253   5.780   0.969   8.288  0.6144 -0.4317  0.5771
  167DOPC   H3R20254   5.712   0.930   8.366  2.0864 -0.5036  1.8582
  167DOPC   H3S20255   5.764   0.916   8.191 -1.3196  1.1686 -0.0588
  167DOPC   C2420256   5.739   1.121   8.263 -0.7929 -0.1647 -0.7041
  167DOPC   H4R20257   5.718   1.164   8.363 -0.4646 -0.3917 -0.5350
  167DOPC   H4S20258   5.639   1.118   8.214 -2.1398  1.7873  1.7235
  167DOPC   C2520259   5.834   1.207   8.182 -0.5071 -0.7194 -0.2571
  167DOPC   H5R20260   5.935   1.222   8.227 -0.5105  0.1463 -0.5246
  167DOPC   H5S20261   5.797   1.312   8.180  0.1090 -0.5019 -1.9632
  167DOPC   C2620262   5.844   1.150   8.037 -0.1364 -0.2244 -0.5728
  167DOPC   H6R20263   5.746   1.132   7.989 -0.7069  0.6124  0.2555
  167DOPC   H6S20264   5.891   1.049   8.036  0.8140  0.2028 -1.4345
  167DOPC   C2720265   5.918   1.248   7.946 -0.4967  0.6064 -0.4845
  167DOPC   H7R20266   6.016   1.270   7.993 -1.4005 -0.2931  1.9901
  167DOPC   H7S20267   5.870   1.348   7.942  1.6516  1.7930  1.1910
  167DOPC   C2820268   5.920   1.183   7.802  0.3845 -0.2593 -0.3788
  167DOPC   H8R20269   5.823   1.129   7.806 -0.0555  0.2851 -2.3661
  167DOPC   H8S20270   5.994   1.100   7.795 -1.0588 -1.4958 -1.6012
  167DOPC   C2920271   5.933   1.281   7.686 -0.4783 -0.5576 -0.1131
  167DOPC   H9R20272   5.928   1.387   7.715 -1.4762 -0.3307 -1.0512
  167DOPC  C21020273   5.965   1.271   7.559 -0.1893  0.4023 -0.5417
  167DOPC  H10R20274   5.968   1.358   7.492  1.0770 -0.6763 -1.9402
  167DOPC  C21120275   5.999   1.136   7.503 -0.5170 -0.1322 -0.4629
  167DOPC  H11R20276   5.997   1.053   7.578  1.3095 -0.3266 -0.5944
  167DOPC  H11S20277   6.104   1.136   7.467 -0.9473  1.8955 -1.8795
  167DOPC  C21220278   5.906   1.098   7.392  0.5017 -0.5721  0.1853
  167DOPC  H12R20279   5.910   0.987   7.381 -1.6166 -0.6887  0.2332
  167DOPC  H12S20280   5.802   1.121   7.422 -0.2005 -1.1911 -1.6573
  167DOPC  C21320281   5.924   1.175   7.260  0.5244  0.1383  0.3871
  167DOPC  H13R20282   5.893   1.281   7.272 -0.6831 -0.1473 -0.1178
  167DOPC  H13S20283   5.851   1.129   7.190 -1.5296 -0.0490  2.5161
  167DOPC  C21420284   6.071   1.187   7.203  0.1469 -0.1271  0.1792
  167DOPC  H14R20285   6.134   1.100   7.231  3.0977  1.9846  0.5780
  167DOPC  H14S20286   6.119   1.273   7.255  1.4322 -1.0411  0.5537
  167DOPC  C21520287   6.068   1.208   7.052 -0.3989  0.0087  0.2082
  167DOPC  H15R20288   6.161   1.260   7.022 -1.0092  2.3799  2.0573
  167DOPC  H15S20289   5.975   1.263   7.024 -0.6480 -0.0134  0.9585
  167DOPC  C21620290   6.062   1.078   6.970 -0.3936 -0.4138  0.5242
  167DOPC  H16R20291   5.968   1.021   6.988 -0.3418 -0.5191  0.4626
  167DOPC  H16S20292   6.154   1.019   6.990  0.7552  0.4675 -1.8054
  167DOPC  C21720293   6.073   1.106   6.821 -0.2028  0.4315  0.8762
  167DOPC  H17R20294   6.156   1.179   6.821  1.7783 -1.6707 -0.0979
  167DOPC  H17S20295   5.977   1.150   6.787 -0.3093 -0.6739 -0.3612
  167DOPC  C21820296   6.105   0.985   6.737  0.9991  0.6054 -1.2262
  167DOPC  H18R20297   6.118   1.013   6.630 -0.9920 -2.4066 -2.3813
  167DOPC  H18S20298   6.028   0.905   6.735  0.8263  0.7299 -0.0591
  167DOPC  H18T20299   6.202   0.938   6.765 -0.1311 -0.5721  0.9981
  167DOPC   C3320300   5.516   0.630   8.291 -0.0823  0.5208  0.3797
  167DOPC   H3X20301   5.453   0.600   8.204  0.2683  0.2835  0.2071
  167DOPC   H3Y20302   5.613   0.656   8.244  0.6108  1.8500  2.4171
  167DOPC   C3420303   5.465   0.757   8.357  0.2344  0.3795  0.2588
  167DOPC   H4X20304   5.543   0.774   8.434  1.2619 -1.5596 -0.3086
  167DOPC   H4Y20305   5.365   0.735   8.401 -0.2870  2.0023 -0.0462
  167DOPC   C3520306   5.431   0.873   8.259 -0.0430 -0.3107  0.6028
  167DOPC   H5X20307   5.505   0.860   8.178 -0.7328 -1.2075  0.0962
  167DOPC   H5Y20308   5.441   0.970   8.312 -0.4275  0.4942 -0.7743
  167DOPC   C3620309   5.284   0.847   8.212  0.4007 -0.7652 -0.2134
  167DOPC   H6X20310   5.262   0.751   8.160 -1.8204  0.5063 -1.8101
  167DOPC   H6Y20311   5.211   0.845   8.295  0.0050 -0.0693 -0.5290
  167DOPC   C3720312   5.221   0.940   8.102  0.0683  0.5095  0.1132
  167DOPC   H7X20313   5.145   0.883   8.044 -0.2668 -1.2232  2.1397
  167DOPC   H7Y20314   5.169   1.021   8.157  0.6440 -0.0329  1.4786
  167DOPC   C3820315   5.317   1.011   8.006 -0.1460  0.1126 -0.2964
  167DOPC   H8X20316   5.387   1.076   8.062  0.9938 -2.4488  1.4847
  167DOPC   H8Y20317   5.247   1.063   7.937  2.0242  1.0427 -1.9002
  167DOPC   C3920318   5.404   0.926   7.915 -0.7013 -0.1656  0.3834
  167DOPC   H9X20319   5.433   0.827   7.954  0.5246 -0.4410 -1.1101
  167DOPC  C31020320   5.467   0.973   7.802 -0.3228  0.5210 -0.3514
  167DOPC  H10X20321   5.542   0.902   7.764  0.4867  0.8853  0.5410
  167DOPC  C31120322   5.461   1.108   7.734  0.0232 -0.0979  0.2898
  167DOPC  H11X20323   5.555   1.147   7.688 -1.6701  1.1826 -2.3385
  167DOPC  H11Y20324   5.448   1.174   7.822 -1.0467 -3.9218  3.2435
  167DOPC  C31220325   5.347   1.134   7.634 -0.5138 -0.4088 -0.1121
  167DOPC  H12X20326   5.334   1.243   7.616 -1.0695 -0.4707 -0.1012
  167DOPC  H12Y20327   5.252   1.104   7.682 -0.9446 -0.9890 -1.2956
  167DOPC  C31320328   5.371   1.066   7.499 -0.2271 -0.3568 -0.1099
  167DOPC  H13X20329   5.401   0.960   7.516  0.4228 -0.4645 -1.7767
  167DOPC  H13Y20330   5.281   1.077   7.436 -0.2009  0.5622 -0.0029
  167DOPC  C31420331   5.487   1.129   7.415  0.8321 -0.1042 -0.4895
  167DOPC  H14X20332   5.453   1.235   7.410 -3.1900 -1.2379 -0.4246
  167DOPC  H14Y20333   5.584   1.123   7.469 -0.0297 -1.4352  0.9907
  167DOPC  C31520334   5.495   1.069   7.272 -0.6232  0.5286  0.0269
  167DOPC  H15X20335   5.586   1.124   7.238 -0.6243  1.4924  1.4743
  167DOPC  H15Y20336   5.413   1.084   7.199  0.8669 -1.0482 -2.0816
  167DOPC  C31620337   5.540   0.923   7.256 -0.3678 -0.6434  0.0562
  167DOPC  H16X20338   5.625   0.921   7.327 -2.5860  1.3690  2.9772
  167DOPC  H16Y20339   5.474   0.846   7.301  0.5183 -0.1416  2.3279
  167DOPC  C31720340   5.590   0.868   7.121 -0.1910 -0.2491 -0.2746
  167DOPC  H17X20341   5.559   0.943   7.045 -2.0889  0.7610  1.3830
  167DOPC  H17Y20342   5.699   0.851   7.118 -0.2105 -0.3243 -0.5719
  167DOPC  C31820343   5.531   0.732   7.073  0.2196 -0.1180  0.0774
  167DOPC  H18X20344   5.548   0.716   6.964 -2.1071 -1.7641 -0.1217
  167DOPC  H18Y20345   5.593   0.655   7.123 -0.2502 -0.4759  0.1074
  167DOPC  H18Z20346   5.424   0.728   7.099  0.0035  1.7816 -0.3707
  168DOPC     N20347   1.719   1.660   8.310  0.6785 -0.5926  0.8993
  168DOPC   C1220348   1.822   1.765   8.339 -0.4993  0.3527  0.9132
  168DOPC  H12A20349   1.926   1.739   8.333 -0.2563  1.5832 -2.3976
  168DOPC  H12B20350   1.808   1.787   8.444  3.6107 -0.0234  1.7071
  168DOPC   C1320351   1.757   1.533   8.375 -0.0839 -0.3406 -0.4618
  168DOPC  H13A20352   1.782   1.561   8.476 -1.9222  1.2553 -0.4100
  168DOPC  H13B20353   1.675   1.465   8.362 -0.7191  0.6600 -1.9236
  168DOPC  H13C20354   1.837   1.489   8.317  0.4175 -1.3424  0.9179
  168DOPC   C1420355   1.701   1.638   8.160 -0.2773 -0.2892 -0.2921
  168DOPC  H14A20356   1.799   1.609   8.125  0.3828 -0.3257  1.4564
  168DOPC  H14B20357   1.637   1.553   8.141  2.0665 -2.3578  0.4635
  168DOPC  H14C20358   1.667   1.729   8.112 -0.8583  1.7389  3.5558
  168DOPC   C1520359   1.577   1.693   8.361  0.8122  0.4487 -0.1462
  168DOPC  H15A20360   1.525   1.604   8.329 -0.2283  1.7164 -2.2068
  168DOPC  H15B20361   1.516   1.768   8.312 -0.1501 -0.9035 -1.0872
  168DOPC  H15C20362   1.574   1.706   8.468 -1.5740  1.3240 -0.2400
  168DOPC   C1120363   1.811   1.898   8.265 -0.3576 -0.4002 -0.5990
  168DOPC  H11A20364   1.900   1.955   8.299 -0.4112 -0.2626 -0.6887
  168DOPC  H11B20365   1.819   1.898   8.154 -0.7712  3.3736 -0.7499
  168DOPC     P20366   1.681   2.043   8.442  0.0992  0.7683 -0.0432
  168DOPC   O1320367   1.753   1.971   8.553 -0.2431  0.1296 -0.3848
  168DOPC   O1420368   1.541   2.077   8.457 -0.1173 -0.3335 -0.3319
  168DOPC   O1220369   1.685   1.962   8.307  0.5592  0.2418 -0.0590
  168DOPC   O1120370   1.748   2.174   8.404  0.0579 -0.3621 -0.4024
  168DOPC    C120371   1.697   2.276   8.321 -0.1781  0.5103 -0.2387
  168DOPC    HA20372   1.739   2.377   8.341 -2.5353  1.4647  0.1216
  168DOPC    HB20373   1.588   2.279   8.340 -0.5170  0.6076 -1.9767
  168DOPC    C220374   1.717   2.250   8.173 -0.2354  0.4820  0.1792
  168DOPC    HS20375   1.696   2.142   8.154 -3.2107  1.0907 -0.5051
  168DOPC   O2120376   1.846   2.291   8.133 -0.3808  0.0142  0.4376
  168DOPC   C2120377   1.905   2.206   8.052  0.0799  0.3516  0.2889
  168DOPC   O2220378   1.857   2.101   8.013 -0.0363  0.1068 -0.1791
  168DOPC   C2220379   2.055   2.247   8.026  0.1935  0.3274  0.5100
  168DOPC   H2R20380   2.096   2.287   8.121 -0.2225  2.9258 -0.3249
  168DOPC   H2S20381   2.057   2.329   7.952  1.0069  0.4465  0.6575
  168DOPC    C320382   1.615   2.329   8.094  0.1994  0.6877 -0.4477
  168DOPC    HX20383   1.627   2.435   8.126  1.0220  0.0217  1.6276
  168DOPC    HY20384   1.512   2.299   8.123  0.9159 -0.8077  0.7178
  168DOPC   O3120385   1.642   2.318   7.951  0.2288  0.0600 -0.4922
  168DOPC   C3120386   1.603   2.213   7.884  0.2924 -0.3271  0.5921
  168DOPC   O3220387   1.524   2.126   7.916 -0.0125  0.1568  0.3463
  168DOPC   C3220388   1.665   2.227   7.741  0.0589  0.4052 -0.1480
  168DOPC   H2X20389   1.773   2.204   7.744 -0.0102  0.1372  0.5544
  168DOPC   H2Y20390   1.606   2.151   7.684 -0.3526  0.2690  0.4446
  168DOPC   C2320391   2.132   2.127   7.974 -0.2110  0.4441  0.2945
  168DOPC   H3R20392   2.225   2.166   7.929 -0.0106 -0.7440 -0.3732
  168DOPC   H3S20393   2.076   2.075   7.893  0.5339  0.2006 -0.0725
  168DOPC   C2420394   2.153   2.023   8.084 -0.6941 -0.4426 -0.0841
  168DOPC   H4R20395   2.063   1.978   8.132 -0.4059 -1.1436 -0.1982
  168DOPC   H4S20396   2.202   2.071   8.172  1.3692 -1.0590 -0.8386
  168DOPC   C2520397   2.246   1.917   8.039  0.9327 -0.6087  0.5766
  168DOPC   H5R20398   2.289   1.859   8.123  2.3672 -1.5881 -0.7681
  168DOPC   H5S20399   2.325   1.965   7.978  0.6316 -1.0538 -0.1803
  168DOPC   C2620400   2.172   1.818   7.941 -0.8634 -0.9032 -0.1979
  168DOPC   H6R20401   2.238   1.733   7.910  0.3180 -1.0769  2.5136
  168DOPC   H6S20402   2.156   1.887   7.855  2.0416  0.4699  0.2264
  168DOPC   C2720403   2.042   1.758   7.988  0.4808 -0.4080 -0.2852
  168DOPC   H7R20404   1.967   1.834   8.016 -0.1706 -0.4388 -1.8447
  168DOPC   H7S20405   2.050   1.689   8.075 -0.4843  0.1594  0.2726
  168DOPC   C2820406   1.982   1.670   7.873  0.2309 -0.0109  0.2509
  168DOPC   H8R20407   1.906   1.601   7.915 -0.9838  2.2902  2.1081
  168DOPC   H8S20408   2.068   1.607   7.844  0.9327 -0.8380  3.6673
  168DOPC   C2920409   1.927   1.758   7.767  0.1833  0.0207  0.3679
  168DOPC   H9R20410   1.837   1.812   7.801 -0.2175 -0.4365  0.0485
  168DOPC  C21020411   1.945   1.773   7.636  0.0766 -0.5624  0.6322
  168DOPC  H10R20412   1.898   1.853   7.577  1.2440  0.0979  0.5700
  168DOPC  C21120413   2.066   1.705   7.566 -0.2967  0.0918 -0.1428
  168DOPC  H11R20414   2.034   1.652   7.474  0.3949 -2.1416  0.8348
  168DOPC  H11S20415   2.106   1.620   7.625 -1.5229 -0.7341 -0.4802
  168DOPC  C21220416   2.175   1.808   7.529 -0.0095 -0.1737 -0.1026
  168DOPC  H12R20417   2.209   1.856   7.623  1.8571  0.6274 -1.1197
  168DOPC  H12S20418   2.144   1.891   7.461 -0.4549 -0.5428 -0.3490
  168DOPC  C21320419   2.303   1.734   7.485  0.1721 -0.1011 -0.2351
  168DOPC  H13R20420   2.315   1.637   7.539  1.2682 -0.0872 -0.4425
  168DOPC  H13S20421   2.397   1.790   7.502  0.5503 -1.3870  2.5939
  168DOPC  C21420422   2.281   1.697   7.337  0.4329  0.3044 -0.1341
  168DOPC  H14R20423   2.256   1.788   7.279  2.1419  0.0200 -1.4065
  168DOPC  H14S20424   2.190   1.634   7.328  0.3542  0.2925  0.7421
  168DOPC  C21520425   2.416   1.642   7.289 -0.0301  0.2697  0.0869
  168DOPC  H15R20426   2.456   1.563   7.356 -1.2302 -1.8696 -1.5944
  168DOPC  H15S20427   2.490   1.724   7.288 -0.0016  0.3465  2.7255
  168DOPC  C21620428   2.415   1.589   7.149  0.8619  1.1605  0.6779
  168DOPC  H16R20429   2.371   1.665   7.081 -1.9112 -0.8213  0.0742
  168DOPC  H16S20430   2.349   1.500   7.163  0.8050  1.3404  1.6510
  168DOPC  C21720431   2.550   1.551   7.093 -0.0016 -0.1347  0.0833
  168DOPC  H17R20432   2.588   1.467   7.155 -0.1028  0.9219  1.6403
  168DOPC  H17S20433   2.623   1.632   7.114  1.1788 -0.9736 -0.6920
  168DOPC  C21820434   2.535   1.499   6.947  0.1834  0.0667 -0.8291
  168DOPC  H18R20435   2.507   1.580   6.876 -0.0473  0.4094 -0.3539
  168DOPC  H18S20436   2.458   1.419   6.945 -0.0943  0.3411 -1.5516
  168DOPC  H18T20437   2.632   1.461   6.908  0.4285 -1.6856  1.3144
  168DOPC   C3320438   1.642   2.375   7.684 -0.7729 -0.1726  0.1345
  168DOPC   H3X20439   1.710   2.454   7.722 -2.3254  0.9811  0.6079
  168DOPC   H3Y20440   1.544   2.401   7.727 -0.6542 -0.3701  0.5291
  168DOPC   C3420441   1.641   2.399   7.534 -0.1448  1.0592  0.1340
  168DOPC   H4X20442   1.557   2.333   7.502 -1.5082  2.5312  0.6027
  168DOPC   H4Y20443   1.739   2.367   7.492  0.3498  1.3592  1.0376
  168DOPC   C3520444   1.623   2.538   7.469  0.4588 -0.7921 -0.1908
  168DOPC   H5X20445   1.706   2.602   7.505  0.6764 -1.6462  0.8622
  168DOPC   H5Y20446   1.534   2.587   7.515 -0.3719 -1.3019 -1.2059
  168DOPC   C3620447   1.615   2.555   7.316 -0.1465  0.3293 -0.5396
  168DOPC   H6X20448   1.704   2.506   7.269 -0.4728  0.3005 -1.1315
  168DOPC   H6Y20449   1.527   2.495   7.286  1.1117 -2.4070  0.8688
  168DOPC   C3720450   1.617   2.699   7.273 -0.5295  0.1233  0.9065
  168DOPC   H7X20451   1.524   2.740   7.317 -0.2787  0.7301  0.8753
  168DOPC   H7Y20452   1.700   2.750   7.327  0.7870  0.5026 -1.3565
  168DOPC   C3820453   1.610   2.713   7.121 -1.3729 -0.0379 -0.1420
  168DOPC   H8X20454   1.675   2.631   7.086  1.0394  2.1289 -1.0165
  168DOPC   H8Y20455   1.664   2.805   7.089  0.5100 -1.4205 -1.0701
  168DOPC   C3920456   1.478   2.673   7.059 -0.1623 -0.0930 -0.6763
  168DOPC   H9X20457   1.426   2.602   7.125 -1.0562 -0.9182 -2.2029
  168DOPC  C31020458   1.427   2.718   6.938 -0.0186  0.0675 -0.8604
  168DOPC  H10X20459   1.329   2.677   6.909 -1.8998  0.2183  4.3037
  168DOPC  C31120460   1.485   2.817   6.848 -0.1006  0.4721  0.1083
  168DOPC  H11X20461   1.569   2.872   6.895 -1.0219  0.9279  1.2754
  168DOPC  H11Y20462   1.403   2.889   6.826 -0.1952  0.7263  1.2345
  168DOPC  C31220463   1.526   2.753   6.716  0.8486 -0.6881 -0.4131
  168DOPC  H12X20464   1.442   2.725   6.650  2.2488  0.4930 -2.8441
  168DOPC  H12Y20465   1.576   2.658   6.745  0.6182 -0.4692  0.7744
  168DOPC  C31320466   1.631   2.836   6.648  0.0492 -0.2516 -0.3190
  168DOPC  H13X20467   1.621   2.946   6.662 -0.0272  0.1963 -3.3592
  168DOPC  H13Y20468   1.731   2.801   6.683 -0.4178 -1.6993 -0.3665
  168DOPC  C31420469   1.625   2.806   6.500  0.3085  0.2163 -0.3718
  168DOPC  H14X20470   1.637   2.695   6.499 -2.8596 -0.2392  0.0895
  168DOPC  H14Y20471   1.523   2.831   6.462  0.4181  0.4380 -0.5173
  168DOPC  C31520472   1.726   2.877   6.403  0.0942 -0.4076  0.3085
  168DOPC  H15X20473   1.823   2.885   6.456  1.4657  0.8494 -2.2093
  168DOPC  H15Y20474   1.681   2.976   6.378 -0.9337 -1.0019 -0.2488
  168DOPC  C31620475   1.719   2.795   6.272 -0.0671 -0.2132  0.0217
  168DOPC  H16X20476   1.768   2.696   6.279 -0.6696 -0.4368  1.3572
  168DOPC  H16Y20477   1.614   2.764   6.253 -0.9486  1.1144  2.2401
  168DOPC  C31720478   1.782   2.861   6.143  0.2801  0.2091  0.1593
  168DOPC  H17X20479   1.768   2.800   6.050  1.8613 -0.5997  0.4103
  168DOPC  H17Y20480   1.708   2.939   6.118 -0.2538 -0.0686  0.8349
  168DOPC  C31820481   1.927   2.913   6.166  0.4499 -0.3214 -0.2563
  168DOPC  H18X20482   1.978   2.957   6.079  0.7298  0.2780  0.2034
  168DOPC  H18Y20483   1.926   2.995   6.242  1.4165 -2.5115  2.3062
  168DOPC  H18Z20484   1.982   2.829   6.214 -1.5474 -0.3897  2.1530
  169DOPC     N20485   7.432   3.542   8.865  0.2977  0.0761  0.2404
  169DOPC   C1220486   7.357   3.475   8.752 -0.0767 -0.1104  0.1279
  169DOPC  H12A20487   7.292   3.548   8.706  1.1163  0.3364 -0.8919
  169DOPC  H12B20488   7.300   3.394   8.795  0.7582 -1.2153 -0.7796
  169DOPC   C1320489   7.330   3.591   8.953 -0.0119  0.8277 -1.0582
  169DOPC  H13A20490   7.274   3.506   8.989  1.6798 -0.0329 -0.3428
  169DOPC  H13B20491   7.378   3.638   9.038  0.3103 -0.8339 -0.2831
  169DOPC  H13C20492   7.265   3.661   8.903 -0.8718 -0.0005 -1.0978
  169DOPC   C1420493   7.513   3.657   8.818 -0.8916 -0.5520  0.4048
  169DOPC  H14A20494   7.596   3.617   8.760 -0.4464 -1.4709  1.6269
  169DOPC  H14B20495   7.448   3.729   8.771  0.9307  0.7435 -0.2291
  169DOPC  H14C20496   7.557   3.714   8.899 -1.0223 -1.8281  1.4071
  169DOPC   C1520497   7.508   3.437   8.931 -0.9022  0.4712 -0.0456
  169DOPC  H15A20498   7.590   3.405   8.868 -0.3901  1.9672 -0.1780
  169DOPC  H15B20499   7.444   3.354   8.955 -0.5439  0.8146  2.2746
  169DOPC  H15C20500   7.563   3.466   9.019  0.8685 -0.6427 -0.7144
  169DOPC   C1120501   7.443   3.422   8.634  0.3451 -0.1602 -0.3917
  169DOPC  H11A20502   7.370   3.397   8.554 -0.0670 -0.7229  0.1505
  169DOPC  H11B20503   7.504   3.506   8.594  0.1804 -0.0210 -0.3512
  169DOPC     P20504   7.461   3.158   8.666 -0.2263 -0.1928 -0.2815
  169DOPC   O1320505   7.367   3.131   8.775  0.3463 -0.2564 -0.1157
  169DOPC   O1420506   7.570   3.062   8.656 -0.4426 -0.6227  0.6380
  169DOPC   O1220507   7.524   3.309   8.683  0.4930 -0.4496 -0.1502
  169DOPC   O1120508   7.385   3.170   8.537 -0.0534  0.1379 -0.1795
  169DOPC    C120509   7.407   3.100   8.416  0.6610  0.0991 -0.3342
  169DOPC    HA20510   7.314   3.082   8.357 -0.2262  1.3939  0.6125
  169DOPC    HB20511   7.428   2.993   8.436 -2.3868 -0.3444  1.0380
  169DOPC    C220512   7.510   3.175   8.335  0.2438  0.0645 -0.5060
  169DOPC    HS20513   7.591   3.200   8.408 -0.3921  0.3962  0.0951
  169DOPC   O2120514   7.452   3.307   8.306  0.0267  0.2792  0.3752
  169DOPC   C2120515   7.547   3.391   8.264  0.7471 -0.4332  0.8888
  169DOPC   O2220516   7.669   3.379   8.272  0.3287  0.0368  0.1356
  169DOPC   C2220517   7.474   3.499   8.186  0.3465 -0.3472 -0.0306
  169DOPC   H2R20518   7.541   3.587   8.175  2.4059 -1.7535  0.6371
  169DOPC   H2S20519   7.392   3.527   8.255 -0.7509 -2.6233 -0.3051
  169DOPC    C320520   7.582   3.103   8.215  0.0360  0.0409 -0.3227
  169DOPC    HX20521   7.596   3.004   8.263  1.1409  0.6902  0.7517
  169DOPC    HY20522   7.681   3.146   8.189  0.2618 -1.3675 -2.0399
  169DOPC   O3120523   7.493   3.104   8.098 -0.7540  0.4252 -0.1837
  169DOPC   C3120524   7.467   2.991   8.041  0.6255  0.1923  0.1140
  169DOPC   O3220525   7.480   2.883   8.093  0.2878  0.5381  0.1338
  169DOPC   C3220526   7.416   3.023   7.894 -0.4359  0.3046 -0.1669
  169DOPC   H2X20527   7.329   3.092   7.900 -0.6454  0.1084 -0.8160
  169DOPC   H2Y20528   7.500   3.078   7.846  3.3270 -2.0329  3.1213
  169DOPC   C2320529   7.412   3.458   8.052  0.1619  0.3457 -0.1179
  169DOPC   H3R20530   7.344   3.539   8.019 -0.2738 -0.0459 -0.1882
  169DOPC   H3S20531   7.356   3.364   8.072  2.7868 -1.0920  1.0844
  169DOPC   C2420532   7.514   3.442   7.945 -0.1274 -0.3448 -0.3163
  169DOPC   H4R20533   7.570   3.349   7.969  0.1830 -0.2019 -0.4889
  169DOPC   H4S20534   7.577   3.530   7.968 -1.0479 -0.0562  1.2661
  169DOPC   C2520535   7.449   3.452   7.811  0.2502 -0.6682 -0.3260
  169DOPC   H5R20536   7.392   3.548   7.813  2.0962  0.4682 -0.2894
  169DOPC   H5S20537   7.373   3.374   7.790 -0.9275  0.3356  0.0441
  169DOPC   C2620538   7.561   3.464   7.703  0.6047 -0.0218 -0.8549
  169DOPC   H6R20539   7.629   3.546   7.734 -1.5192  1.4797  0.0500
  169DOPC   H6S20540   7.511   3.503   7.612  1.1586  1.8452 -0.4142
  169DOPC   C2720541   7.637   3.338   7.668 -0.2275 -0.5831 -0.2877
  169DOPC   H7R20542   7.649   3.275   7.759 -3.4638 -2.6910 -1.1437
  169DOPC   H7S20543   7.724   3.377   7.612 -0.0603 -1.7341 -0.8531
  169DOPC   C2820544   7.542   3.244   7.581  0.2214 -0.4056  0.0288
  169DOPC   H8R20545   7.456   3.228   7.648 -0.3168  1.9534 -0.0086
  169DOPC   H8S20546   7.598   3.148   7.576  0.2973 -0.2972 -2.9903
  169DOPC   C2920547   7.510   3.297   7.444 -0.0564  0.2640  0.7198
  169DOPC   H9R20548   7.502   3.406   7.438  2.3983  0.8118  4.2957
  169DOPC  C21020549   7.496   3.223   7.331 -0.6061 -0.1378  0.0148
  169DOPC  H10R20550   7.474   3.268   7.233 -0.7223  0.7954  0.4529
  169DOPC  C21120551   7.515   3.081   7.308 -0.0850  0.5408 -0.4543
  169DOPC  H11R20552   7.437   3.051   7.234  0.0893  0.3480 -0.5608
  169DOPC  H11S20553   7.508   3.025   7.404 -0.6997  3.1533  1.1126
  169DOPC  C21220554   7.655   3.057   7.254  0.1526 -0.5162 -0.2338
  169DOPC  H12R20555   7.682   2.952   7.277  2.5060 -0.4097 -2.1165
  169DOPC  H12S20556   7.719   3.117   7.323 -1.3176  0.5923  0.2162
  169DOPC  C21320557   7.669   3.096   7.107  1.0610 -0.5167  0.2021
  169DOPC  H13R20558   7.656   3.206   7.097  0.8289 -0.2388  2.7836
  169DOPC  H13S20559   7.593   3.048   7.042 -0.1020  0.9894  0.4046
  169DOPC  C21420560   7.811   3.064   7.051 -0.3100  0.4519 -0.0769
  169DOPC  H14R20561   7.830   3.066   6.941  2.2408  0.1565  0.2784
  169DOPC  H14S20562   7.839   2.959   7.077  1.7508  0.8875 -0.3272
  169DOPC  C21520563   7.905   3.173   7.107  0.1605 -0.0144  0.4774
  169DOPC  H15R20564   7.880   3.187   7.215 -1.4477 -1.3399  0.3222
  169DOPC  H15S20565   7.898   3.265   7.045  2.8400  0.1807  0.3764
  169DOPC  C21620566   8.059   3.129   7.111  0.1376 -0.4173 -0.5819
  169DOPC  H16R20567   8.128   3.209   7.146  0.2774 -0.8633  0.1856
  169DOPC  H16S20568   8.099   3.100   7.011 -0.1959  0.8580 -1.1001
  169DOPC  C21720569   8.072   3.009   7.201 -0.0134  0.7784 -0.7214
  169DOPC  H17R20570   8.013   2.925   7.159  0.8111 -0.4889  0.5566
  169DOPC  H17S20571   8.035   3.023   7.305 -3.6190 -3.4655 -1.1484
  169DOPC  C21820572   8.211   2.957   7.216  0.6042  0.0061  0.4579
  169DOPC  H18R20573   8.282   3.033   7.254  0.5883  1.9182 -2.9336
  169DOPC  H18S20574   8.252   2.912   7.123 -0.4204  0.8016 -0.3994
  169DOPC  H18T20575   8.205   2.872   7.287  0.7396 -0.5679 -0.2045
  169DOPC   C3320576   7.397   2.885   7.822 -0.1237 -0.3431  0.4136
  169DOPC   H3X20577   7.349   2.904   7.723 -0.8685  0.8313  0.9687
  169DOPC   H3Y20578   7.324   2.817   7.872 -0.7389  0.5258  0.7291
  169DOPC   C3420579   7.528   2.805   7.790 -0.4045 -0.1279 -0.5639
  169DOPC   H4X20580   7.508   2.715   7.729  2.6947  0.8624 -3.2849
  169DOPC   H4Y20581   7.570   2.769   7.886  1.2301 -0.7760 -1.4799
  169DOPC   C3520582   7.626   2.880   7.700 -0.4482 -0.2820  0.3059
  169DOPC   H5X20583   7.662   2.970   7.754 -0.3433  0.2636 -0.6680
  169DOPC   H5Y20584   7.575   2.922   7.611  2.2654  1.2056 -0.6475
  169DOPC   C3620585   7.744   2.789   7.661 -0.1113  1.0086 -0.3705
  169DOPC   H6X20586   7.794   2.748   7.751 -0.7791  0.2189 -0.3474
  169DOPC   H6Y20587   7.711   2.699   7.605  0.9744  0.5430 -0.2814
  169DOPC   C3720588   7.838   2.845   7.558 -0.6021  0.6135  0.3568
  169DOPC   H7X20589   7.889   2.759   7.509  0.0201 -0.0601  2.0683
  169DOPC   H7Y20590   7.782   2.909   7.487 -1.5977 -1.5227 -0.8691
  169DOPC   C3820591   7.949   2.942   7.605  0.4835 -0.1140  0.1480
  169DOPC   H8X20592   7.899   3.030   7.650 -1.8096 -1.1304 -0.2395
  169DOPC   H8Y20593   8.004   2.971   7.513 -1.8261  1.1361 -0.9104
  169DOPC   C3920594   8.045   2.877   7.710 -0.0074 -0.3046  0.0490
  169DOPC   H9X20595   8.040   2.768   7.721  1.5412 -0.4750 -0.5357
  169DOPC  C31020596   8.121   2.947   7.796  0.3159  0.1196 -0.4258
  169DOPC  H10X20597   8.187   2.885   7.858 -1.0753  0.6737  1.7460
  169DOPC  C31120598   8.131   3.095   7.805 -0.3397 -0.2903  0.0624
  169DOPC  H11X20599   8.076   3.136   7.892  2.6672 -0.0534  1.9898
  169DOPC  H11Y20600   8.081   3.137   7.714  1.9317  1.8822 -0.2933
  169DOPC  C31220601   8.277   3.143   7.817  0.0565 -0.5318  0.0022
  169DOPC  H12X20602   8.317   3.115   7.917  0.3590 -0.5092 -0.1117
  169DOPC  H12Y20603   8.282   3.253   7.803  0.5969 -0.5428  0.1136
  169DOPC  C31320604   8.362   3.078   7.711  0.1809  0.5296  0.0472
  169DOPC  H13X20605   8.357   2.967   7.718  0.8394  0.5410  0.9032
  169DOPC  H13Y20606   8.331   3.113   7.611 -1.4190  0.5138  0.5145
  169DOPC  C31420607   8.512   3.110   7.724  0.1099  0.2767  0.4366
  169DOPC  H14X20608   8.549   3.054   7.813  0.6127  0.7753  0.5454
  169DOPC  H14Y20609   8.563   3.066   7.636 -0.4204 -1.2492  0.8487
  169DOPC  C31520610   8.540   3.255   7.751  0.2787  0.2595 -0.1695
  169DOPC  H15X20611   8.507   3.292   7.851 -0.2116  1.0067 -0.6009
  169DOPC  H15Y20612   8.479   3.302   7.671  0.6322 -1.7704 -1.7171
  169DOPC  C31620613   8.687   3.294   7.745  0.5456  0.2468 -0.3962
  169DOPC  H16X20614   8.684   3.405   7.751 -0.3757  0.2395 -0.6632
  169DOPC  H16Y20615   8.728   3.245   7.836 -2.6591 -3.7876 -0.8929
  169DOPC  C31720616   8.757   3.256   7.621  1.3122  0.0370  0.1476
  169DOPC  H17X20617   8.751   3.146   7.606  0.1219  0.3080 -1.5760
  169DOPC  H17Y20618   8.704   3.302   7.535  0.3566  0.4485  0.9433
  169DOPC  C31820619   8.905   3.289   7.622  0.0003 -0.4243 -0.0285
  169DOPC  H18X20620   8.923   3.398   7.638 -0.3218 -0.4357  0.4131
  169DOPC  H18Y20621   8.961   3.229   7.696 -2.3496 -2.2809  0.3496
  169DOPC  H18Z20622   8.941   3.263   7.520  1.8401 -0.2542  0.5261
  170DOPC     N20623   6.901   7.561   8.982  0.2718  0.3415 -0.1210
  170DOPC   C1220624   6.981   7.547   8.855 -0.1631  0.4603 -0.2103
  170DOPC  H12A20625   6.996   7.441   8.839 -2.9954 -0.2195  0.8791
  170DOPC  H12B20626   7.079   7.587   8.873 -0.2082  1.6840 -2.3483
  170DOPC   C1320627   6.759   7.504   8.977 -0.5378 -0.2651  0.1622
  170DOPC  H13A20628   6.706   7.547   8.893 -0.5601 -0.0204  0.2984
  170DOPC  H13B20629   6.754   7.397   8.961 -3.0798 -0.2057  0.0492
  170DOPC  H13C20630   6.706   7.538   9.064  1.5589  1.2628  0.9082
  170DOPC   C1420631   6.902   7.700   9.025  0.1331 -0.5376  0.5109
  170DOPC  H14A20632   6.879   7.720   9.129 -0.3055 -1.7600  0.6560
  170DOPC  H14B20633   6.988   7.753   8.985  0.0064  0.6924  1.7510
  170DOPC  H14C20634   6.819   7.748   8.976 -1.1465 -2.5668  0.6026
  170DOPC   C1520635   6.972   7.485   9.096 -0.4532 -0.5036  0.2287
  170DOPC  H15A20636   7.064   7.536   9.116 -1.7276  1.6646  0.9174
  170DOPC  H15B20637   6.989   7.380   9.077 -0.2231 -0.1489 -1.7010
  170DOPC  H15C20638   6.912   7.502   9.184  1.0880  2.7677  0.7723
  170DOPC   C1120639   6.925   7.607   8.725  0.4124 -0.0176 -0.3169
  170DOPC  H11A20640   6.966   7.549   8.640  1.8455  2.9020 -1.7641
  170DOPC  H11B20641   6.815   7.589   8.721  0.4927 -0.4499 -0.5659
  170DOPC     P20642   7.087   7.805   8.647 -0.4882  0.0783  0.1953
  170DOPC   O1320643   7.208   7.733   8.690  0.3945  0.5292 -0.2311
  170DOPC   O1420644   7.091   7.951   8.664  0.1258  0.1948 -0.2112
  170DOPC   O1220645   6.959   7.747   8.712  0.3094 -0.3276 -0.9708
  170DOPC   O1120646   7.061   7.762   8.498 -0.4110  0.4210  0.3097
  170DOPC    C120647   6.944   7.797   8.427  0.5186  0.1048  0.1418
  170DOPC    HA20648   6.863   7.840   8.491 -1.2083 -1.1308 -1.1290
  170DOPC    HB20649   6.891   7.707   8.390  1.2387 -0.3576  0.2055
  170DOPC    C220650   6.980   7.889   8.309  0.3991  0.8430 -1.3323
  170DOPC    HS20651   6.884   7.909   8.255 -0.1771  0.5696 -0.4302
  170DOPC   O2120652   7.076   7.822   8.231  0.2888  0.3682 -0.0865
  170DOPC   C2120653   7.023   7.750   8.133 -1.0142 -0.5629  0.2523
  170DOPC   O2220654   6.910   7.764   8.083 -0.8063  0.5155  0.6396
  170DOPC   C2220655   7.123   7.652   8.087 -0.0779 -1.0755  0.3208
  170DOPC   H2R20656   7.220   7.685   8.130 -0.4087  0.6270 -0.1684
  170DOPC   H2S20657   7.130   7.652   7.976  0.8602 -1.5810  0.3733
  170DOPC    C320658   7.031   8.021   8.374  0.0971 -0.2430  0.3407
  170DOPC    HX20659   7.133   7.993   8.409 -0.0789 -0.6745  0.5141
  170DOPC    HY20660   6.966   8.045   8.461  0.6930 -0.6176  0.9009
  170DOPC   O3120661   7.034   8.140   8.285 -0.2422 -0.4429 -0.6599
  170DOPC   C3120662   7.157   8.188   8.250 -0.2742  0.0809 -0.4765
  170DOPC   O3220663   7.258   8.133   8.283 -0.1273  0.4143 -0.1695
  170DOPC   C3220664   7.145   8.304   8.152 -0.8192  0.8453  0.2358
  170DOPC   H2X20665   7.039   8.313   8.119 -0.1774 -0.8518 -2.6113
  170DOPC   H2Y20666   7.178   8.394   8.208 -1.0933 -0.1350  2.0466
  170DOPC   C2320667   7.085   7.507   8.113  0.1169 -0.3092 -0.8077
  170DOPC   H3R20668   7.034   7.496   8.211 -2.0453 -1.3340 -1.9700
  170DOPC   H3S20669   7.176   7.444   8.127  0.2864  0.0982 -0.0162
  170DOPC   C2420670   6.994   7.447   8.004  0.0091 -0.0964  0.0129
  170DOPC   H4R20671   7.052   7.452   7.909  0.1997  1.0709  0.1886
  170DOPC   H4S20672   6.900   7.506   7.998 -0.2232 -0.4366  0.2148
  170DOPC   C2520673   6.973   7.292   8.033 -0.2215 -0.7636 -0.1925
  170DOPC   H5R20674   6.950   7.290   8.142 -0.2907 -2.3037 -0.2213
  170DOPC   H5S20675   7.077   7.253   8.026  1.1858  2.1667  1.8924
  170DOPC   C2620676   6.856   7.234   7.954 -0.4532  0.3079  0.0772
  170DOPC   H6R20677   6.758   7.260   7.999 -1.2701 -2.3804 -0.0243
  170DOPC   H6S20678   6.860   7.124   7.965 -0.5248  0.3548  0.6130
  170DOPC   C2720679   6.853   7.261   7.801 -0.2941 -0.3325 -0.3836
  170DOPC   H7R20680   6.956   7.248   7.762 -0.1522 -0.1017 -0.0894
  170DOPC   H7S20681   6.829   7.369   7.806  2.8712  0.4058  2.2118
  170DOPC   C2820682   6.741   7.193   7.727  0.8279  0.7837  0.4621
  170DOPC   H8R20683   6.647   7.221   7.779  0.4466 -0.6400  0.5772
  170DOPC   H8S20684   6.749   7.083   7.721 -1.1487  0.6068  0.5042
  170DOPC   C2920685   6.719   7.248   7.587  0.2884  0.5960 -0.4685
  170DOPC   H9R20686   6.671   7.346   7.598  3.3618  2.0792  0.9495
  170DOPC  C21020687   6.746   7.199   7.462 -0.9410 -0.6114  0.5005
  170DOPC  H10R20688   6.722   7.264   7.377 -0.6118 -0.9508  0.1390
  170DOPC  C21120689   6.806   7.064   7.428  0.5774  0.0558 -0.3633
  170DOPC  H11R20690   6.816   6.999   7.518  1.2642  1.3480  0.5265
  170DOPC  H11S20691   6.907   7.082   7.385 -0.2183  0.8884 -1.9726
  170DOPC  C21220692   6.711   7.003   7.322 -1.0183 -0.6091  0.1680
  170DOPC  H12R20693   6.771   6.924   7.271 -2.3023 -0.0665 -2.3075
  170DOPC  H12S20694   6.674   7.076   7.247 -4.4728 -1.2993  1.0275
  170DOPC  C21320695   6.591   6.938   7.384  0.2239  0.5494  0.4379
  170DOPC  H13R20696   6.529   7.018   7.430  1.0028  0.6291  1.3565
  170DOPC  H13S20697   6.618   6.869   7.466 -2.0892  0.1326  0.9254
  170DOPC  C21420698   6.501   6.858   7.282  0.4292  0.5211  0.2429
  170DOPC  H14R20699   6.556   6.780   7.224 -1.3008  1.4780 -2.9323
  170DOPC  H14S20700   6.472   6.932   7.204  0.2879 -0.5296 -0.7305
  170DOPC  C21520701   6.378   6.790   7.338 -0.3372 -0.6295  0.1199
  170DOPC  H15R20702   6.333   6.862   7.410  0.3850 -2.4142  2.4726
  170DOPC  H15S20703   6.407   6.702   7.399  0.6953 -1.0661 -0.9571
  170DOPC  C21620704   6.283   6.747   7.224  0.4446 -0.0139 -0.4372
  170DOPC  H16R20705   6.206   6.680   7.270  0.7660  0.3340  0.6469
  170DOPC  H16S20706   6.336   6.683   7.150  0.4330 -0.2923 -0.2102
  170DOPC  C21720707   6.204   6.853   7.153 -0.5526  0.0313 -0.1086
  170DOPC  H17R20708   6.273   6.925   7.104  1.2079 -0.4980  1.4860
  170DOPC  H17S20709   6.168   6.922   7.233  1.2068  0.2234  0.5646
  170DOPC  C21820710   6.092   6.801   7.058  0.3041  0.3068 -0.3735
  170DOPC  H18R20711   6.029   6.715   7.091 -1.8647  1.1388 -2.0516
  170DOPC  H18S20712   6.143   6.765   6.967  1.1602 -2.0632  0.9387
  170DOPC  H18T20713   6.023   6.879   7.020  0.6137  1.0934  0.6290
  170DOPC   C3320714   7.236   8.282   8.023  0.6968 -0.4869  0.7217
  170DOPC   H3X20715   7.320   8.212   8.044  2.5855  1.3001 -0.4589
  170DOPC   H3Y20716   7.277   8.385   8.013  0.1094  0.0606  3.2188
  170DOPC   C3420717   7.149   8.244   7.911 -0.6343 -0.0613 -0.8472
  170DOPC   H4X20718   7.205   8.247   7.815 -1.8021  2.2389 -1.5217
  170DOPC   H4Y20719   7.070   8.319   7.892 -1.5111 -0.7329  0.0289
  170DOPC   C3520720   7.089   8.103   7.918 -0.5058  0.3048  0.0051
  170DOPC   H5X20721   7.016   8.102   8.003  0.5252  1.0138  0.9178
  170DOPC   H5Y20722   7.164   8.023   7.936 -0.7269 -0.4372 -2.1402
  170DOPC   C3620723   7.018   8.065   7.792  1.0578  0.4823  0.1051
  170DOPC   H6X20724   6.926   8.127   7.781  1.1023  0.8803  1.6519
  170DOPC   H6Y20725   7.072   8.087   7.698  0.3945  1.3760 -0.0828
  170DOPC   C3720726   6.979   7.916   7.794 -0.2798  0.1725  0.2701
  170DOPC   H7X20727   7.065   7.866   7.845  0.6900  1.1514 -0.3511
  170DOPC   H7Y20728   6.887   7.890   7.850 -0.0339  0.3570  0.7646
  170DOPC   C3820729   6.957   7.845   7.658 -0.0080  0.3164  0.5017
  170DOPC   H8X20730   7.055   7.861   7.608  0.0504  1.3525  0.9137
  170DOPC   H8Y20731   6.879   7.907   7.610 -0.0774 -0.3916 -0.3234
  170DOPC   C3920732   6.933   7.694   7.667  0.5608 -0.2648 -0.0014
  170DOPC   H9X20733   6.834   7.662   7.703  0.1171  1.6203  0.5535
  170DOPC  C31020734   7.024   7.601   7.632 -0.1069  1.0850  0.3599
  170DOPC  H10X20735   7.006   7.495   7.650  3.3461 -0.0468 -1.8233
  170DOPC  C31120736   7.159   7.629   7.579 -0.0160 -0.1491  0.5608
  170DOPC  H11X20737   7.227   7.663   7.660  1.5441 -3.1467  0.6551
  170DOPC  H11Y20738   7.155   7.700   7.494  2.5567  0.0921  0.5651
  170DOPC  C31220739   7.221   7.498   7.542 -0.0820 -0.0355  0.9804
  170DOPC  H12X20740   7.214   7.424   7.625  2.3804  0.8839  2.1129
  170DOPC  H12Y20741   7.328   7.514   7.513 -0.6361 -1.2943 -2.1864
  170DOPC  C31320742   7.159   7.432   7.420  0.3460  0.8078  0.3639
  170DOPC  H13X20743   7.057   7.395   7.441  1.6721 -2.0576  2.4471
  170DOPC  H13Y20744   7.157   7.509   7.340 -0.6748 -2.0732 -2.6163
  170DOPC  C31420745   7.243   7.307   7.370 -0.5220 -0.1824 -0.1932
  170DOPC  H14X20746   7.266   7.254   7.465  0.2687 -0.2305 -0.3992
  170DOPC  H14Y20747   7.181   7.250   7.299  0.4024 -1.0092 -0.3620
  170DOPC  C31520748   7.371   7.357   7.305  0.2186  0.1170  0.1262
  170DOPC  H15X20749   7.442   7.373   7.389 -0.4811  1.6951  0.4627
  170DOPC  H15Y20750   7.361   7.456   7.254  0.6927  1.0394  1.7339
  170DOPC  C31620751   7.424   7.257   7.201  0.0320  0.3110 -0.1821
  170DOPC  H16X20752   7.476   7.173   7.252  3.0505  2.0770 -0.1321
  170DOPC  H16Y20753   7.343   7.231   7.130 -1.0651 -0.0794  1.1794
  170DOPC  C31720754   7.539   7.316   7.122 -0.4092  0.3451 -0.2269
  170DOPC  H17X20755   7.545   7.254   7.030  1.8595 -1.6929  1.1570
  170DOPC  H17Y20756   7.533   7.423   7.091  2.1536  0.5294 -0.3532
  170DOPC  C31820757   7.678   7.320   7.194 -0.0306  0.0158  0.4482
  170DOPC  H18X20758   7.699   7.226   7.250 -1.5752 -0.6262 -0.0101
  170DOPC  H18Y20759   7.757   7.336   7.118 -0.4530 -0.5469 -0.1180
  170DOPC  H18Z20760   7.679   7.394   7.277 -0.2650 -0.0480  0.5098
  171DOPC     N20761   4.016   3.797   4.310 -0.0957 -0.1858  0.0515
  171DOPC   C1220762   4.111   3.874   4.217  0.1894 -0.6437 -0.0863
  171DOPC  H12A20763   4.049   3.950   4.173 -0.6913 -0.7720  0.9038
  171DOPC  H12B20764   4.129   3.802   4.138  0.2149 -1.9071  1.0432
  171DOPC   C1320765   3.892   3.744   4.236  0.3122  0.5152 -0.0410
  171DOPC  H13A20766   3.913   3.676   4.155 -2.9437  0.3502 -0.9034
  171DOPC  H13B20767   3.835   3.675   4.297 -1.5214  0.9714 -1.1398
  171DOPC  H13C20768   3.825   3.819   4.195  1.3847  1.3654 -0.2884
  171DOPC   C1420769   3.969   3.878   4.421 -0.5640  0.2259  0.3954
  171DOPC  H14A20770   3.912   3.962   4.385 -0.5549  0.6144  1.2700
  171DOPC  H14B20771   3.916   3.814   4.488 -0.7316 -1.8723 -1.6251
  171DOPC  H14C20772   4.056   3.912   4.476  0.4494 -1.4080 -0.1185
  171DOPC   C1520773   4.090   3.676   4.368  0.1306  0.3196  0.6005
  171DOPC  H15A20774   4.025   3.604   4.415 -1.7433  1.0831 -0.7176
  171DOPC  H15B20775   4.175   3.706   4.428  1.4800  0.2102 -1.1805
  171DOPC  H15C20776   4.129   3.628   4.279 -1.6639  3.2257 -1.9299
  171DOPC   C1120777   4.246   3.938   4.268 -0.0210  0.3461  0.7282
  171DOPC  H11A20778   4.301   3.851   4.310  0.1051 -2.0349 -3.7804
  171DOPC  H11B20779   4.305   3.970   4.180 -2.2212  1.3265 -0.4563
  171DOPC     P20780   4.142   4.167   4.322  0.2810  0.1556  0.7784
  171DOPC   O1320781   4.046   4.141   4.205 -0.2767 -0.0036 -0.2462
  171DOPC   O1420782   4.230   4.280   4.304  0.4967  0.2953  0.2953
  171DOPC   O1220783   4.228   4.046   4.361 -0.6411  1.0744 -0.5537
  171DOPC   O1120784   4.051   4.181   4.450 -0.3906 -0.3738 -0.0352
  171DOPC    C120785   4.120   4.226   4.568 -0.5932 -1.0888  0.1292
  171DOPC    HA20786   4.087   4.331   4.586 -2.2790 -1.3878 -1.0099
  171DOPC    HB20787   4.231   4.225   4.563 -0.5387  1.1091 -0.0633
  171DOPC    C220788   4.081   4.141   4.687 -0.2138 -0.3807  0.1688
  171DOPC    HS20789   4.119   4.183   4.783 -0.7748  0.1018  0.1866
  171DOPC   O2120790   4.121   4.006   4.664 -0.1057  0.0139  0.4982
  171DOPC   C2120791   4.238   3.978   4.716  0.2334  0.1996  0.5142
  171DOPC   O2220792   4.293   4.047   4.798 -0.0747  0.1154 -0.6016
  171DOPC   C2220793   4.288   3.836   4.668  0.8457  0.8720 -0.1004
  171DOPC   H2R20794   4.398   3.827   4.682  1.0177  1.0320 -1.2488
  171DOPC   H2S20795   4.283   3.830   4.558  0.8937  0.1567 -0.0675
  171DOPC    C320796   3.929   4.150   4.694 -0.6116 -0.4257 -0.4241
  171DOPC    HX20797   3.910   4.090   4.786 -1.3054 -0.8477 -0.8393
  171DOPC    HY20798   3.888   4.097   4.606 -0.6861  0.9153 -1.2271
  171DOPC   O3120799   3.882   4.287   4.710 -0.1261 -0.4974 -0.4212
  171DOPC   C3120800   3.756   4.302   4.758 -0.1654  0.2191 -0.5624
  171DOPC   O3220801   3.685   4.204   4.794  0.2496  0.5071 -0.1178
  171DOPC   C3220802   3.716   4.450   4.765  0.2533  0.0004  0.4638
  171DOPC   H2X20803   3.778   4.505   4.838 -0.4344  1.3149  0.0913
  171DOPC   H2Y20804   3.734   4.490   4.663  2.4577  1.7288  1.4563
  171DOPC   C2320805   4.216   3.723   4.733  0.0654 -0.3368  0.0143
  171DOPC   H3R20806   4.240   3.629   4.678 -1.4066 -1.0190  0.4697
  171DOPC   H3S20807   4.108   3.723   4.707  0.2745  4.4615 -1.6774
  171DOPC   C2420808   4.250   3.694   4.879 -0.1029 -0.3890  0.0855
  171DOPC   H4R20809   4.217   3.778   4.945 -1.4428 -0.2988 -0.6435
  171DOPC   H4S20810   4.360   3.688   4.894 -0.1982  0.2135  1.1304
  171DOPC   C2520811   4.188   3.564   4.929 -0.0153  0.0908 -0.2984
  171DOPC   H5R20812   4.245   3.485   4.875  0.5962  0.8409 -0.7631
  171DOPC   H5S20813   4.078   3.556   4.919 -0.2073  1.5564  0.3783
  171DOPC   C2620814   4.214   3.544   5.080  0.3110 -0.4337 -0.5069
  171DOPC   H6R20815   4.149   3.617   5.133  2.6812  0.7857  0.8702
  171DOPC   H6S20816   4.320   3.556   5.110  0.4279 -1.0958 -0.6339
  171DOPC   C2720817   4.173   3.403   5.136  0.3177 -0.1962  0.2866
  171DOPC   H7R20818   4.247   3.325   5.109  0.0988 -1.1835  2.3155
  171DOPC   H7S20819   4.074   3.376   5.094 -0.1220  1.2170  0.3627
  171DOPC   C2820820   4.172   3.403   5.289  0.0126 -0.1490  0.6518
  171DOPC   H8R20821   4.267   3.449   5.325  0.0019 -0.8058  1.5560
  171DOPC   H8S20822   4.186   3.300   5.329  1.1207 -0.2210  0.1351
  171DOPC   C2920823   4.049   3.476   5.342 -0.4490  0.0669 -0.2099
  171DOPC   H9R20824   4.021   3.571   5.296 -0.2652  0.0244 -0.4120
  171DOPC  C21020825   3.964   3.432   5.438 -0.1356  0.1403 -0.1130
  171DOPC  H10R20826   3.884   3.500   5.472  0.4792  1.1666 -0.6605
  171DOPC  C21120827   3.969   3.299   5.512  0.0990  0.5065 -0.4470
  171DOPC  H11R20828   4.031   3.225   5.457 -0.0327 -0.7012  0.9556
  171DOPC  H11S20829   3.864   3.263   5.506  0.0320  0.5263  0.3989
  171DOPC  C21220830   4.023   3.320   5.659  1.0151  0.0577 -0.6787
  171DOPC  H12R20831   3.971   3.406   5.706 -1.2418 -1.8393  0.5325
  171DOPC  H12S20832   4.131   3.341   5.668  0.8652  0.4993  0.2050
  171DOPC  C21320833   3.968   3.194   5.734 -0.3369 -0.2318 -0.0716
  171DOPC  H13R20834   3.967   3.109   5.662  0.4970 -2.3064  2.2275
  171DOPC  H13S20835   3.865   3.218   5.766 -0.5416 -0.6630 -0.3837
  171DOPC  C21420836   4.058   3.172   5.851  0.3705  0.0069 -0.1871
  171DOPC  H14R20837   4.013   3.120   5.938 -1.7284  0.6916 -0.8217
  171DOPC  H14S20838   4.083   3.272   5.892  0.7058 -0.2192  0.1712
  171DOPC  C21520839   4.192   3.102   5.813 -0.9240 -0.0781  0.5082
  171DOPC  H15R20840   4.245   3.167   5.739 -2.0761 -0.0318 -0.3053
  171DOPC  H15S20841   4.167   3.006   5.764 -0.8037  0.0807  0.1256
  171DOPC  C21620842   4.291   3.060   5.927  0.4613  0.0305  0.1166
  171DOPC  H16R20843   4.347   2.970   5.893  1.0923  0.5292 -0.1641
  171DOPC  H16S20844   4.227   3.037   6.016  1.1836 -4.1316 -0.2303
  171DOPC  C21720845   4.377   3.169   5.980 -0.4352  0.4203 -0.3507
  171DOPC  H17R20846   4.308   3.247   6.018  0.4664  1.6420 -1.1363
  171DOPC  H17S20847   4.435   3.209   5.894 -0.2629  2.0052  0.4541
  171DOPC  C21820848   4.469   3.125   6.096 -0.0816  0.6517  0.3351
  171DOPC  H18R20849   4.531   3.042   6.053 -0.5551  0.6030 -0.2731
  171DOPC  H18S20850   4.412   3.068   6.172 -0.2440 -1.0697 -0.9920
  171DOPC  H18T20851   4.520   3.210   6.147 -0.9161  1.4040 -0.0632
  171DOPC   C3320852   3.563   4.458   4.800  0.0305 -0.2240 -0.6182
  171DOPC   H3X20853   3.495   4.387   4.750  0.0929 -1.1227  0.5210
  171DOPC   H3Y20854   3.526   4.558   4.771 -2.1724 -0.4196  1.2097
  171DOPC   C3420855   3.539   4.439   4.953 -0.6268 -0.6434 -0.0746
  171DOPC   H4X20856   3.616   4.490   5.016 -1.7850 -0.0773  0.9055
  171DOPC   H4Y20857   3.544   4.331   4.979  1.4533 -0.5447  0.1279
  171DOPC   C3520858   3.409   4.511   5.005 -0.0411  0.1015 -0.6862
  171DOPC   H5X20859   3.320   4.449   4.980 -1.4347  1.9012 -0.3351
  171DOPC   H5Y20860   3.410   4.610   4.954  0.2165 -0.9182 -2.7794
  171DOPC   C3620861   3.404   4.514   5.162  0.1219  0.0676  0.2568
  171DOPC   H6X20862   3.423   4.411   5.198  2.6081 -0.3808 -1.9799
  171DOPC   H6Y20863   3.490   4.559   5.216 -0.1953 -1.6171  2.2988
  171DOPC   C3720864   3.279   4.583   5.214 -0.5088  0.2364 -0.0435
  171DOPC   H7X20865   3.269   4.692   5.193 -0.8793  0.5940  1.8103
  171DOPC   H7Y20866   3.192   4.528   5.173 -1.9265 -0.4465  3.5511
  171DOPC   C3820867   3.271   4.570   5.369 -0.2628  0.4214  0.7810
  171DOPC   H8X20868   3.353   4.633   5.410  1.0214  1.2142 -2.6897
  171DOPC   H8Y20869   3.292   4.462   5.382 -0.0648  0.2176 -0.9395
  171DOPC   C3920870   3.149   4.614   5.436  0.6411 -0.4266 -0.1376
  171DOPC   H9X20871   3.107   4.703   5.387  1.9645 -0.7373 -1.9462
  171DOPC  C31020872   3.100   4.563   5.550  0.4138 -0.3577 -0.3853
  171DOPC  H10X20873   3.019   4.627   5.588  0.7506  1.4902 -2.5567
  171DOPC  C31120874   3.147   4.454   5.634  1.0219 -0.0363  0.5266
  171DOPC  H11X20875   3.245   4.408   5.609  1.6043 -0.8778  3.8326
  171DOPC  H11Y20876   3.070   4.376   5.618 -0.5546  1.5352  0.1625
  171DOPC  C31220877   3.150   4.482   5.786 -0.2712  0.7616  0.1116
  171DOPC  H12X20878   3.050   4.509   5.828  0.7423  0.9756  2.5249
  171DOPC  H12Y20879   3.210   4.571   5.814  1.0589 -0.2874  0.6964
  171DOPC  C31320880   3.189   4.357   5.878 -0.0785 -0.1154  0.3776
  171DOPC  H13X20881   3.135   4.268   5.840  4.5249 -2.6099 -1.1037
  171DOPC  H13Y20882   3.296   4.338   5.856 -0.0537 -2.0438  1.8711
  171DOPC  C31420883   3.153   4.371   6.023 -0.0351 -0.4251  0.0591
  171DOPC  H14X20884   3.188   4.473   6.050  1.1905  0.0987 -3.0626
  171DOPC  H14Y20885   3.042   4.374   6.021 -0.0155  0.9658 -0.5391
  171DOPC  C31520886   3.220   4.267   6.115 -0.4496 -0.1697 -0.5025
  171DOPC  H15X20887   3.328   4.252   6.098 -0.1767  1.0647  0.0356
  171DOPC  H15Y20888   3.166   4.172   6.096 -2.5573  1.1335 -1.4465
  171DOPC  C31620889   3.197   4.307   6.261 -0.4745  0.3644  0.5288
  171DOPC  H16X20890   3.252   4.232   6.323  1.3497  3.0243  2.3394
  171DOPC  H16Y20891   3.244   4.404   6.287  1.1859  1.0401 -4.0511
  171DOPC  C31720892   3.048   4.306   6.292  0.1638 -0.1492  0.5429
  171DOPC  H17X20893   2.991   4.395   6.257 -1.0785 -0.8544  0.6955
  171DOPC  H17Y20894   3.001   4.215   6.249  2.0322 -0.9457  0.1038
  171DOPC  C31820895   3.031   4.311   6.442  0.0627  1.0316 -0.0560
  171DOPC  H18X20896   3.048   4.213   6.491  1.5139  1.6917  0.8455
  171DOPC  H18Y20897   3.101   4.380   6.494  0.7395  0.0637  0.3431
  171DOPC  H18Z20898   2.924   4.337   6.459 -0.0392 -0.0311  1.1147
  172DOPC     N20899   3.673   6.217   4.773 -0.8185 -0.3350  0.3080
  172DOPC   C1220900   3.600   6.173   4.653  0.2551  0.5084  0.2959
  172DOPC  H12A20901   3.662   6.112   4.589  0.2072  1.7084 -0.9547
  172DOPC  H12B20902   3.573   6.261   4.596 -0.8183  0.9804  1.5065
  172DOPC   C1320903   3.737   6.348   4.740  0.0192 -0.3347  0.1681
  172DOPC  H13A20904   3.797   6.339   4.650  2.1469  0.8639  1.3875
  172DOPC  H13B20905   3.670   6.430   4.721 -3.0046 -2.8839 -1.0413
  172DOPC  H13C20906   3.808   6.382   4.814  0.9508 -1.4847 -0.1648
  172DOPC   C1420907   3.779   6.120   4.810  0.4626  0.3906 -0.4303
  172DOPC  H14A20908   3.821   6.153   4.904 -1.2172 -0.5091  0.6991
  172DOPC  H14B20909   3.745   6.020   4.831  0.4394 -0.3796 -3.6539
  172DOPC  H14C20910   3.857   6.113   4.736  1.0702 -0.6893  0.2967
  172DOPC   C1520911   3.594   6.252   4.887 -0.7604 -0.3079  0.1170
  172DOPC  H15A20912   3.564   6.166   4.944  1.1999 -0.4417  1.0129
  172DOPC  H15B20913   3.507   6.315   4.877  0.7440  1.9861  0.9353
  172DOPC  H15C20914   3.641   6.310   4.964 -0.7220  0.2826 -0.3419
  172DOPC   C1120915   3.473   6.086   4.678  0.2040 -0.1387 -0.0639
  172DOPC  H11A20916   3.504   5.994   4.730 -1.4226 -0.8454 -0.2647
  172DOPC  H11B20917   3.407   6.141   4.749 -0.4135 -1.4670  0.4192
  172DOPC     P20918   3.302   5.957   4.528  0.1905 -0.1513  0.2858
  172DOPC   O1320919   3.365   5.855   4.445  0.3209 -0.2981  0.4140
  172DOPC   O1420920   3.179   6.019   4.470 -0.3571  0.3126  0.1718
  172DOPC   O1220921   3.407   6.073   4.557 -0.1504  0.1606  0.6037
  172DOPC   O1120922   3.267   5.894   4.668  0.5718 -0.0466 -0.0960
  172DOPC    C120923   3.185   5.949   4.775  0.1942  0.3019 -0.7636
  172DOPC    HA20924   3.077   5.956   4.748 -0.3332  1.1768  1.3629
  172DOPC    HB20925   3.212   6.055   4.794 -0.4251 -0.0489  2.7777
  172DOPC    C220926   3.202   5.867   4.904 -0.7639  0.7590 -0.7734
  172DOPC    HS20927   3.165   5.921   4.993  0.8107  2.8590 -1.3273
  172DOPC   O2120928   3.338   5.829   4.924  0.2714  0.2536 -0.3806
  172DOPC   C2120929   3.409   5.910   4.995 -0.3063 -0.1854 -0.0540
  172DOPC   O2220930   3.376   6.018   5.040  0.4940 -0.4681 -0.6216
  172DOPC   C2220931   3.545   5.836   5.021 -0.3301  0.6349  0.9290
  172DOPC   H2R20932   3.584   5.806   4.921 -2.5911  1.9595 -0.4345
  172DOPC   H2S20933   3.536   5.745   5.084  3.3299 -1.1047 -0.7221
  172DOPC    C320934   3.130   5.737   4.892  0.0254 -0.1536 -0.0930
  172DOPC    HX20935   3.151   5.679   4.799  0.7757  1.1832 -0.7914
  172DOPC    HY20936   3.023   5.766   4.880  0.3655  1.1679 -0.1202
  172DOPC   O3120937   3.138   5.655   5.010  0.3846  0.1472 -0.2010
  172DOPC   C3120938   3.221   5.555   5.008 -0.4277  0.1299 -0.1363
  172DOPC   O3220939   3.307   5.531   4.919  0.2006  0.4429  0.3962
  172DOPC   C3220940   3.208   5.456   5.129 -0.2477 -0.5140 -0.2728
  172DOPC   H2X20941   3.118   5.394   5.110 -1.5483  1.5925 -1.3944
  172DOPC   H2Y20942   3.290   5.382   5.122  1.1480  0.8348  0.8218
  172DOPC   C2320943   3.645   5.924   5.097  0.5570  0.1854 -0.3531
  172DOPC   H3R20944   3.655   6.027   5.057 -2.5496  0.7904  0.1817
  172DOPC   H3S20945   3.740   5.867   5.097  0.4169 -0.0524 -0.7589
  172DOPC   C2420946   3.608   5.954   5.246 -0.5706 -0.6389 -0.4752
  172DOPC   H4R20947   3.508   5.998   5.270 -1.0686 -1.8855 -0.1691
  172DOPC   H4S20948   3.680   6.031   5.279  1.9934 -2.0927 -2.3536
  172DOPC   C2520949   3.631   5.829   5.330  0.3268  0.8489 -0.0965
  172DOPC   H5R20950   3.741   5.809   5.338  0.2504 -0.3900 -1.5508
  172DOPC   H5S20951   3.585   5.742   5.279  0.1282  1.1285 -0.3920
  172DOPC   C2620952   3.582   5.843   5.473  0.4896  0.5136  0.2090
  172DOPC   H6R20953   3.473   5.864   5.476  0.6841  1.4675  2.3134
  172DOPC   H6S20954   3.633   5.936   5.506  2.6608 -0.0301 -1.3422
  172DOPC   C2720955   3.645   5.735   5.554  0.0850  0.2957 -0.3854
  172DOPC   H7R20956   3.749   5.760   5.584  0.2216 -0.2839 -0.3555
  172DOPC   H7S20957   3.654   5.648   5.485 -1.2659  0.8546 -1.3151
  172DOPC   C2820958   3.562   5.699   5.682  0.3163 -1.5567 -0.0072
  172DOPC   H8R20959   3.606   5.606   5.724  0.0390 -1.1007  1.3576
  172DOPC   H8S20960   3.464   5.676   5.636 -0.3629 -0.9609  1.0826
  172DOPC   C2920961   3.555   5.806   5.798 -0.4462  0.4356  0.2856
  172DOPC   H9R20962   3.512   5.904   5.769 -3.8139  0.0688  3.2554
  172DOPC  C21020963   3.613   5.803   5.923 -0.6346  0.2228 -0.0774
  172DOPC  H10R20964   3.595   5.885   5.994  1.5318  2.5683 -2.0143
  172DOPC  C21120965   3.672   5.676   5.975  0.0542 -0.1681 -0.2829
  172DOPC  H11R20966   3.747   5.634   5.905  1.2507 -0.1346  0.9144
  172DOPC  H11S20967   3.592   5.599   5.979 -1.6533  1.4856 -1.2263
  172DOPC  C21220968   3.735   5.684   6.113  0.4592  0.6555 -0.5529
  172DOPC  H12R20969   3.798   5.774   6.135 -1.0279  1.2442  1.6279
  172DOPC  H12S20970   3.797   5.593   6.126 -0.7237 -0.0704  0.1441
  172DOPC  C21320971   3.632   5.687   6.224  0.1502 -0.3973  0.0302
  172DOPC  H13R20972   3.597   5.582   6.235  1.6705 -0.9834 -0.5520
  172DOPC  H13S20973   3.543   5.749   6.201  2.4768  2.1991 -2.8467
  172DOPC  C21420974   3.699   5.733   6.357  0.1751 -0.5662 -0.5374
  172DOPC  H14R20975   3.750   5.829   6.332 -0.7018  0.2047  0.5266
  172DOPC  H14S20976   3.773   5.655   6.381 -0.1338 -0.9107 -0.6904
  172DOPC  C21520977   3.609   5.749   6.478  0.4691  0.6444  0.2127
  172DOPC  H15R20978   3.562   5.653   6.506 -0.0902 -0.4853 -4.0017
  172DOPC  H15S20979   3.535   5.822   6.440  1.8550  0.9760 -2.0111
  172DOPC  C21620980   3.697   5.804   6.595  0.3683 -0.0709 -0.4017
  172DOPC  H16R20981   3.758   5.891   6.562  0.9237 -1.2125 -2.5599
  172DOPC  H16S20982   3.757   5.722   6.640  0.5572  0.6006  0.6002
  172DOPC  C21720983   3.596   5.854   6.709 -0.8053 -0.0837 -0.1771
  172DOPC  H17R20984   3.518   5.924   6.671  0.1066  0.2396 -1.5130
  172DOPC  H17S20985   3.658   5.911   6.782  0.3647 -0.4246 -0.8689
  172DOPC  C21820986   3.512   5.739   6.770  0.6465 -0.0279 -0.7214
  172DOPC  H18R20987   3.453   5.793   6.848 -1.3863 -1.1393 -1.4265
  172DOPC  H18S20988   3.581   5.667   6.820  0.5723  0.6834  0.4481
  172DOPC  H18T20989   3.435   5.695   6.703  1.3340  2.2928 -3.2234
  172DOPC   C3320990   3.201   5.528   5.269  0.3302  0.2101  0.4213
  172DOPC   H3X20991   3.100   5.574   5.273  0.3577  0.4343 -1.1578
  172DOPC   H3Y20992   3.277   5.608   5.264 -0.6173  1.0852 -0.3455
  172DOPC   C3420993   3.224   5.445   5.396 -0.5110  0.2346 -0.1394
  172DOPC   H4X20994   3.332   5.463   5.415 -0.1524 -1.7266 -0.0821
  172DOPC   H4Y20995   3.201   5.338   5.377 -3.3816  0.8175 -0.3704
  172DOPC   C3520996   3.153   5.495   5.523 -0.7771 -0.6770  0.3850
  172DOPC   H5X20997   3.045   5.472   5.509 -0.7257 -0.6525 -0.0568
  172DOPC   H5Y20998   3.162   5.605   5.532  0.3590 -0.9342  3.4340
  172DOPC   C3620999   3.198   5.419   5.643 -0.1160 -0.0415  0.0651
  172DOPC   H6X21000   3.212   5.313   5.612 -0.1893 -0.3693  1.1226
  172DOPC   H6Y21001   3.292   5.462   5.682 -0.3171  0.2814  0.1932
  172DOPC   C3721002   3.107   5.431   5.765  0.0550  0.1013 -1.0761
  172DOPC   H7X21003   3.006   5.395   5.738 -0.1757  0.3313 -0.5276
  172DOPC   H7Y21004   3.144   5.358   5.840 -2.2315  0.0206  0.0226
  172DOPC   C3821005   3.093   5.565   5.836 -0.0675  0.8875  0.5758
  172DOPC   H8X21006   3.015   5.550   5.913  0.8889  2.9690  2.0250
  172DOPC   H8Y21007   3.057   5.647   5.770 -0.1163  1.4324  1.2755
  172DOPC   C3921008   3.222   5.605   5.908 -0.3019 -0.2934 -0.3293
  172DOPC   H9X21009   3.308   5.619   5.842 -1.2005  0.1128 -1.4271
  172DOPC  C31021010   3.248   5.612   6.042  0.4754 -0.3892  0.0333
  172DOPC  H10X21011   3.352   5.625   6.074 -0.5994  1.0113  3.2653
  172DOPC  C31121012   3.154   5.568   6.148  0.6133 -0.3256 -0.0858
  172DOPC  H11X21013   3.138   5.459   6.159 -0.2313 -0.0798  1.6240
  172DOPC  H11Y21014   3.050   5.600   6.124  0.8445 -1.0451 -2.1886
  172DOPC  C31221015   3.180   5.615   6.296 -1.0772  0.0030  0.1187
  172DOPC  H12X21016   3.263   5.548   6.323  0.4614  0.7564 -2.3670
  172DOPC  H12Y21017   3.091   5.584   6.354  0.1430 -1.5604  1.2358
  172DOPC  C31321018   3.238   5.752   6.308  0.0115 -0.5508  0.0605
  172DOPC  H13X21019   3.347   5.765   6.287 -0.2287  0.1469 -0.8426
  172DOPC  H13Y21020   3.190   5.826   6.241 -0.8665 -0.1955  1.0508
  172DOPC  C31421021   3.224   5.810   6.459 -0.0828 -0.1025  0.4269
  172DOPC  H14X21022   3.121   5.793   6.496 -1.0918 -0.0429 -2.1427
  172DOPC  H14Y21023   3.284   5.750   6.531 -2.5282 -1.3368  1.5927
  172DOPC  C31521024   3.267   5.957   6.484 -0.6027  0.5226  0.3402
  172DOPC  H15X21025   3.230   6.014   6.396  1.1687 -1.1050 -1.5426
  172DOPC  H15Y21026   3.377   5.966   6.497 -0.5809  0.2967  0.3089
  172DOPC  C31621027   3.206   6.027   6.608 -0.2688  0.0688  0.1932
  172DOPC  H16X21028   3.096   6.017   6.597 -0.2270 -0.0847 -0.0798
  172DOPC  H16Y21029   3.240   5.967   6.696 -0.1898  1.3983  1.1018
  172DOPC  C31721030   3.251   6.169   6.618 -0.2291  0.4077  0.2427
  172DOPC  H17X21031   3.356   6.163   6.654  0.3548 -0.1172 -1.4492
  172DOPC  H17Y21032   3.252   6.218   6.518 -1.2079  0.2543  0.1469
  172DOPC  C31821033   3.164   6.242   6.713 -0.1054 -0.5749  0.2312
  172DOPC  H18X21034   3.192   6.350   6.705  0.6793 -0.7844  0.0913
  172DOPC  H18Y21035   3.057   6.229   6.687 -0.1335 -2.0440  0.9651
  172DOPC  H18Z21036   3.179   6.196   6.813  2.3579 -1.6401 -0.5516
  173DOPC     N21037   2.603   4.999   4.295 -0.0653 -0.2847 -0.1384
  173DOPC   C1221038   2.610   5.017   4.450  0.0563 -0.0217 -0.5985
  173DOPC  H12A21039   2.641   5.117   4.476 -1.3998  0.2136  0.3712
  173DOPC  H12B21040   2.687   4.952   4.489 -0.3134 -1.7805 -2.6206
  173DOPC   C1321041   2.737   5.008   4.230 -0.6135 -0.1751  0.5406
  173DOPC  H13A21042   2.798   4.927   4.267 -0.1706  0.2827  0.8209
  173DOPC  H13B21043   2.728   4.993   4.124  0.3879 -2.6367  0.7312
  173DOPC  H13C21044   2.787   5.101   4.254 -2.4408  0.9963 -0.0337
  173DOPC   C1421045   2.522   5.113   4.237  0.5306  0.3287 -0.6730
  173DOPC  H14A21046   2.434   5.118   4.300  0.1363 -1.1785 -1.0574
  173DOPC  H14B21047   2.572   5.208   4.234 -1.6744  1.5445 -3.0629
  173DOPC  H14C21048   2.483   5.100   4.137 -0.5600  0.3407 -0.2749
  173DOPC   C1521049   2.540   4.868   4.258  0.2797 -0.2382  0.3745
  173DOPC  H15A21050   2.499   4.882   4.159 -0.0617  0.5537  0.6177
  173DOPC  H15B21051   2.459   4.840   4.323 -0.9859  0.7054 -0.7639
  173DOPC  H15C21052   2.616   4.791   4.259  0.3015 -0.2296 -0.1794
  173DOPC   C1121053   2.478   4.986   4.538  0.0397 -0.7374 -0.2944
  173DOPC  H11A21054   2.461   4.877   4.528 -1.3191 -0.8969  2.4982
  173DOPC  H11B21055   2.480   5.022   4.644 -1.4281 -3.0417  0.6019
  173DOPC     P21056   2.210   5.015   4.499  0.0401 -0.1019  0.3324
  173DOPC   O1321057   2.178   4.908   4.400  0.0128 -0.4331 -0.0674
  173DOPC   O1421058   2.122   5.134   4.504  1.4146  0.0872 -0.5090
  173DOPC   O1221059   2.369   5.046   4.478  0.6414  0.0521 -0.4272
  173DOPC   O1121060   2.205   4.954   4.642 -0.1669  0.2320  0.0357
  173DOPC    C121061   2.114   4.854   4.679 -0.6462  0.1931  0.0370
  173DOPC    HA21062   2.148   4.797   4.768 -1.7310 -0.5087  0.0108
  173DOPC    HB21063   2.087   4.777   4.604 -3.9991 -0.9645  2.1931
  173DOPC    C221064   1.978   4.918   4.728  0.7167  0.6541 -0.3415
  173DOPC    HS21065   1.932   4.957   4.635 -2.3062 -1.4963  0.1145
  173DOPC   O2121066   2.015   5.014   4.822  0.5510  0.1199 -0.6336
  173DOPC   C2121067   1.927   5.107   4.846 -0.3430  0.4478 -0.6915
  173DOPC   O2221068   1.835   5.139   4.779 -0.1559 -0.0728 -0.8706
  173DOPC   C2221069   1.957   5.167   4.983  0.2960 -0.5653  0.1322
  173DOPC   H2R21070   2.006   5.265   4.965  3.4753 -1.5738  2.4135
  173DOPC   H2S21071   2.046   5.114   5.025  0.5440  0.6947  1.2886
  173DOPC    C321072   1.882   4.801   4.780 -0.5359  0.6876  0.0371
  173DOPC    HX21073   1.880   4.719   4.705 -3.5224 -0.2324  0.9980
  173DOPC    HY21074   1.779   4.840   4.790 -1.4195 -1.4784 -0.1727
  173DOPC   O3121075   1.931   4.757   4.916 -0.4877 -0.2219  0.2108
  173DOPC   C3121076   1.854   4.755   5.025  0.0039 -0.0312  0.0302
  173DOPC   O3221077   1.744   4.809   5.039 -0.0436  0.1874 -0.6082
  173DOPC   C3221078   1.923   4.659   5.131  0.2151 -0.0869 -0.1609
  173DOPC   H2X21079   1.841   4.605   5.184 -0.6386 -1.6226 -2.8567
  173DOPC   H2Y21080   1.983   4.590   5.067 -1.6216 -0.6443 -1.3410
  173DOPC   C2321081   1.833   5.185   5.073 -0.2451  0.3596  0.6873
  173DOPC   H3R21082   1.783   5.086   5.076  0.6968 -0.1898 -0.9238
  173DOPC   H3S21083   1.761   5.252   5.021  1.7721  0.9169 -1.5563
  173DOPC   C2421084   1.860   5.239   5.218 -0.1492 -0.5354  0.3936
  173DOPC   H4R21085   1.956   5.295   5.212 -1.0704  1.1769  0.8518
  173DOPC   H4S21086   1.873   5.157   5.291 -2.1704 -0.5998  0.7433
  173DOPC   C2521087   1.738   5.333   5.256  0.1546 -0.3493 -0.0456
  173DOPC   H5R21088   1.646   5.273   5.240 -1.2586  2.0496 -1.3990
  173DOPC   H5S21089   1.733   5.411   5.178 -0.2051 -1.2826 -0.9716
  173DOPC   C2621090   1.748   5.390   5.395 -0.0231  0.7123  0.1209
  173DOPC   H6R21091   1.761   5.312   5.472 -0.5142  0.9201  0.4199
  173DOPC   H6S21092   1.648   5.436   5.413 -1.1200 -1.2822 -0.6194
  173DOPC   C2721093   1.865   5.491   5.410  0.5038  0.0238 -0.8551
  173DOPC   H7R21094   1.913   5.516   5.313  0.7814 -3.1213 -1.6596
  173DOPC   H7S21095   1.955   5.459   5.467  0.6937  0.9431 -0.6230
  173DOPC   C2821096   1.814   5.621   5.477 -0.8581 -0.4630  0.0257
  173DOPC   H8R21097   1.729   5.661   5.418 -1.3660 -0.2205  0.9005
  173DOPC   H8S21098   1.889   5.702   5.464 -1.0850 -0.0804  0.9390
  173DOPC   C2921099   1.778   5.601   5.623  0.0207  0.2865 -0.0836
  173DOPC   H9R21100   1.862   5.578   5.690 -0.7238 -2.0910  0.1253
  173DOPC  C21021101   1.655   5.610   5.680  0.6920 -0.0503  0.0727
  173DOPC  H10R21102   1.648   5.603   5.789  1.8384  0.8163  0.2147
  173DOPC  C21121103   1.523   5.626   5.606  0.1709  0.1157  0.3001
  173DOPC  H11R21104   1.534   5.621   5.496 -0.7059  0.2479  0.1987
  173DOPC  H11S21105   1.479   5.725   5.632  3.1123  1.6423 -0.1598
  173DOPC  C21221106   1.424   5.527   5.665  0.4851  0.8005 -0.3361
  173DOPC  H12R21107   1.411   5.525   5.775 -0.7009  0.9215 -0.4640
  173DOPC  H12S21108   1.446   5.422   5.635 -1.8297  0.9562 -2.9601
  173DOPC  C21321109   1.288   5.545   5.608  0.2121 -0.1492 -0.1269
  173DOPC  H13R21110   1.290   5.559   5.498 -1.0066  0.5627 -0.0820
  173DOPC  H13S21111   1.240   5.639   5.644  1.8927  0.4195  0.7616
  173DOPC  C21421112   1.194   5.424   5.630  0.3174  0.2619  0.9196
  173DOPC  H14R21113   1.203   5.389   5.735 -0.4364 -0.8616  0.6297
  173DOPC  H14S21114   1.229   5.341   5.565  0.2141  1.4967 -0.7806
  173DOPC  C21521115   1.048   5.456   5.601 -0.1908 -0.3313  0.8869
  173DOPC  H15R21116   1.019   5.533   5.676  0.3521  1.2832 -0.5014
  173DOPC  H15S21117   0.981   5.367   5.609  2.0929 -2.2518 -0.1170
  173DOPC  C21621118   1.031   5.514   5.459 -0.1469  0.4615 -0.6744
  173DOPC  H16R21119   1.041   5.437   5.379  1.2861  0.3746 -0.4361
  173DOPC  H16S21120   1.094   5.606   5.448 -2.0078  1.8288 -0.3533
  173DOPC  C21721121   0.886   5.563   5.431  0.4700 -0.0162 -0.5171
  173DOPC  H17R21122   0.811   5.482   5.440  2.3315 -1.5840  2.2954
  173DOPC  H17S21123   0.884   5.599   5.326  1.2902  2.5550  0.2843
  173DOPC  C21821124   0.839   5.686   5.510 -0.9180  0.6981 -0.3187
  173DOPC  H18R21125   0.812   5.653   5.613  0.7343 -0.3285 -0.1701
  173DOPC  H18S21126   0.744   5.728   5.469 -1.9096  0.2850  1.4159
  173DOPC  H18T21127   0.918   5.763   5.507 -0.0601 -0.1081  0.7441
  173DOPC   C3321128   2.023   4.727   5.231  0.6827 -0.0853 -0.0931
  173DOPC   H3X21129   2.091   4.787   5.167 -0.6290 -0.5253 -1.9958
  173DOPC   H3Y21130   2.085   4.645   5.272 -1.4717 -0.7127  2.1471
  173DOPC   C3421131   1.951   4.795   5.338  0.0937 -0.7393 -0.0144
  173DOPC   H4X21132   1.895   4.714   5.391  1.2099 -2.2358 -1.0465
  173DOPC   H4Y21133   1.880   4.868   5.294  1.2242 -0.0712 -0.7549
  173DOPC   C3521134   2.049   4.870   5.433 -0.1811  0.0908 -0.5431
  173DOPC   H5X21135   2.108   4.951   5.384 -1.8048  1.5675 -0.1339
  173DOPC   H5Y21136   2.112   4.796   5.488 -1.1390  0.5164  1.1873
  173DOPC   C3621137   1.974   4.935   5.548 -0.2623 -0.3739  0.0386
  173DOPC   H6X21138   1.895   5.009   5.521 -0.6158  0.1597  2.2703
  173DOPC   H6Y21139   1.907   4.857   5.591 -1.4388  1.5369  1.8687
  173DOPC   C3721140   2.056   4.988   5.668 -0.7560  0.0660 -0.0577
  173DOPC   H7X21141   2.126   4.906   5.694  0.0048  1.7828  4.1674
  173DOPC   H7Y21142   2.114   5.079   5.643  0.8085 -0.3449  1.8204
  173DOPC   C3821143   1.970   4.998   5.799 -0.0411  0.4700 -0.0859
  173DOPC   H8X21144   2.050   5.009   5.875  0.9051 -0.2811 -0.9450
  173DOPC   H8Y21145   1.911   4.905   5.818 -0.3651  0.7047  0.0599
  173DOPC   C3921146   1.870   5.113   5.789 -0.1056  0.4882 -1.1134
  173DOPC   H9X21147   1.836   5.126   5.685  0.1982  1.7545 -1.0686
  173DOPC  C31021148   1.842   5.206   5.886 -0.6697 -0.2115  0.6166
  173DOPC  H10X21149   1.768   5.280   5.853 -2.1774 -1.5215  0.9554
  173DOPC  C31121150   1.901   5.194   6.023  0.4088  0.3511  0.1330
  173DOPC  H11X21151   1.916   5.087   6.047 -3.1750 -0.1002  0.9122
  173DOPC  H11Y21152   1.822   5.235   6.090 -1.1098 -2.2897  0.0687
  173DOPC  C31221153   2.036   5.259   6.023 -0.0818 -0.3499 -0.0721
  173DOPC  H12X21154   2.098   5.229   5.935 -1.2551  0.2615 -1.1370
  173DOPC  H12Y21155   2.091   5.223   6.113 -2.4427 -0.1991  1.5072
  173DOPC  C31321156   2.027   5.418   6.037  0.4262 -0.3581  0.3708
  173DOPC  H13X21157   2.133   5.448   6.051 -0.1917  1.6010  1.1728
  173DOPC  H13Y21158   1.988   5.479   5.952 -1.3492 -0.3295  1.1627
  173DOPC  C31421159   1.946   5.477   6.155 -0.1084  0.7960  0.0811
  173DOPC  H14X21160   1.836   5.468   6.139 -0.2600  1.1409  0.8884
  173DOPC  H14Y21161   1.963   5.415   6.245  0.6273 -0.8268 -1.1199
  173DOPC  C31521162   1.981   5.625   6.190 -0.0192 -0.4962  0.3687
  173DOPC  H15X21163   1.980   5.682   6.094  0.9791 -0.0360  0.6136
  173DOPC  H15Y21164   2.090   5.631   6.211  0.2983  0.4108 -1.3240
  173DOPC  C31621165   1.884   5.687   6.292 -0.3640  0.3089  0.7384
  173DOPC  H16X21166   1.781   5.649   6.274 -0.9163  1.8988  0.3749
  173DOPC  H16Y21167   1.924   5.647   6.387 -0.4856 -1.1653  0.2018
  173DOPC  C31721168   1.885   5.837   6.271 -0.3014 -0.1190 -0.2167
  173DOPC  H17X21169   1.990   5.863   6.248 -0.1457 -1.0832 -0.6663
  173DOPC  H17Y21170   1.824   5.853   6.180  1.0743 -0.0384 -1.1404
  173DOPC  C31821171   1.826   5.921   6.384 -0.3906 -0.2656 -0.5343
  173DOPC  H18X21172   1.730   5.875   6.413 -1.1563  0.8726 -1.1700
  173DOPC  H18Y21173   1.890   5.921   6.475 -1.1212  0.9130 -0.0006
  173DOPC  H18Z21174   1.803   6.026   6.355  0.8136  0.5364  1.2025
  174DOPC     N21175   5.656   2.705   4.302  0.6631 -0.6937  0.8293
  174DOPC   C1221176   5.692   2.652   4.439  0.4139  0.0544  0.7332
  174DOPC  H12A21177   5.748   2.560   4.432  0.3931  0.1122 -0.2262
  174DOPC  H12B21178   5.601   2.628   4.493 -0.0223  1.0312  0.4498
  174DOPC   C1321179   5.614   2.598   4.206  0.1419  1.4259  0.3462
  174DOPC  H13A21180   5.520   2.554   4.236  1.5133 -0.5250  2.0537
  174DOPC  H13B21181   5.613   2.635   4.105 -0.5228  1.7340  0.4589
  174DOPC  H13C21182   5.684   2.516   4.210 -0.0621  1.1330 -1.4449
  174DOPC   C1421183   5.771   2.777   4.243 -0.5625  0.2136 -0.2791
  174DOPC  H14A21184   5.798   2.873   4.285  0.4655 -0.1215 -0.1427
  174DOPC  H14B21185   5.861   2.717   4.250 -0.3518  0.7062  2.4597
  174DOPC  H14C21186   5.762   2.799   4.138 -1.8735  0.7788 -0.0650
  174DOPC   C1521187   5.551   2.816   4.304 -0.3490 -0.4390 -0.6391
  174DOPC  H15A21188   5.519   2.848   4.206 -1.4487 -1.6160 -0.6984
  174DOPC  H15B21189   5.584   2.906   4.354 -0.1010  0.1538 -1.8560
  174DOPC  H15C21190   5.463   2.780   4.356  0.0782  1.3085  1.4336
  174DOPC   C1121191   5.769   2.756   4.531 -0.7188 -0.3406  0.1562
  174DOPC  H11A21192   5.714   2.850   4.557 -0.3895 -0.8666  3.1352
  174DOPC  H11B21193   5.767   2.706   4.630 -0.2542  1.6576  1.2296
  174DOPC     P21194   6.024   2.692   4.522 -0.2480 -0.1662 -0.0403
  174DOPC   O1321195   6.144   2.774   4.511  0.7453 -0.4573 -0.2615
  174DOPC   O1421196   6.006   2.568   4.446 -0.1175 -0.2325 -0.4022
  174DOPC   O1221197   5.902   2.794   4.496  0.3047  0.1659 -0.6848
  174DOPC   O1121198   6.007   2.658   4.673  0.0054  0.6019  0.1548
  174DOPC    C121199   6.021   2.761   4.768 -0.2140  0.7098 -0.3195
  174DOPC    HA21200   5.950   2.844   4.748 -2.7304 -1.1139  0.5344
  174DOPC    HB21201   6.121   2.808   4.757  0.2226  0.0275  0.6372
  174DOPC    C221202   6.018   2.722   4.923 -0.3455 -0.1976  0.2083
  174DOPC    HS21203   6.046   2.816   4.974 -1.4897 -0.5179  1.5068
  174DOPC   O2121204   6.105   2.618   4.954  0.9762  0.8703  0.7746
  174DOPC   C2121205   6.238   2.631   4.939  0.2733  0.3315 -0.3179
  174DOPC   O2221206   6.291   2.733   4.900 -0.0176 -0.1316  0.2390
  174DOPC   C2221207   6.304   2.503   4.981 -0.2854 -0.2397 -1.0103
  174DOPC   H2R21208   6.380   2.468   4.908  0.7380 -0.8109  0.2856
  174DOPC   H2S21209   6.224   2.426   4.987 -0.8410  0.4241  0.4612
  174DOPC    C321210   5.876   2.681   4.961 -0.4026  0.0853  0.7706
  174DOPC    HX21211   5.847   2.583   4.917 -1.9493  0.9831 -0.2832
  174DOPC    HY21212   5.813   2.760   4.915  0.5186  0.2357 -0.2786
  174DOPC   O3121213   5.850   2.698   5.101 -0.0549  0.0133  0.3037
  174DOPC   C3121214   5.850   2.592   5.164  0.6640  0.2851 -0.0193
  174DOPC   O3221215   5.857   2.477   5.117 -0.3623  0.0844 -0.3322
  174DOPC   C3221216   5.824   2.618   5.312 -0.3191 -0.0956  0.8072
  174DOPC   H2X21217   5.888   2.706   5.337 -0.2120 -0.0403  0.3399
  174DOPC   H2Y21218   5.716   2.640   5.325 -1.3870 -2.5872 -2.5527
  174DOPC   C2321219   6.367   2.513   5.131  0.3419  0.1225  0.7646
  174DOPC   H3R21220   6.436   2.599   5.142  1.3319 -0.0952 -2.7296
  174DOPC   H3S21221   6.424   2.420   5.146  0.5518  0.1524  0.1676
  174DOPC   C2421222   6.251   2.528   5.237  0.0334 -0.0875 -0.0951
  174DOPC   H4R21223   6.188   2.437   5.247 -1.7511  1.3094  2.8674
  174DOPC   H4S21224   6.181   2.611   5.212  0.5443  0.6466  0.8474
  174DOPC   C2521225   6.312   2.543   5.375  0.8382 -0.2903 -0.3956
  174DOPC   H5R21226   6.238   2.581   5.448  1.2824  0.9710 -0.5887
  174DOPC   H5S21227   6.393   2.618   5.359  0.8279 -0.2856 -0.4272
  174DOPC   C2621228   6.368   2.413   5.440  0.0090  0.0183  1.0960
  174DOPC   H6R21229   6.439   2.368   5.368 -0.2029  2.4609 -0.7812
  174DOPC   H6S21230   6.282   2.343   5.443  0.8380 -1.1876 -1.1886
  174DOPC   C2721231   6.442   2.436   5.568  0.4966 -0.3963  0.6732
  174DOPC   H7R21232   6.524   2.506   5.542 -1.2165  1.0669 -1.0763
  174DOPC   H7S21233   6.487   2.336   5.589 -1.0942 -1.2683  0.1333
  174DOPC   C2821234   6.362   2.472   5.700  0.3533  0.4556 -0.0181
  174DOPC   H8R21235   6.349   2.582   5.714  0.4805  0.3270  1.1474
  174DOPC   H8S21236   6.423   2.460   5.792 -1.1611  3.0498  1.4405
  174DOPC   C2921237   6.236   2.388   5.705 -0.2711  0.2778 -0.8306
  174DOPC   H9R21238   6.164   2.401   5.623 -0.7417 -0.2349 -0.5061
  174DOPC  C21021239   6.197   2.304   5.800 -0.2879 -0.6165 -0.3953
  174DOPC  H10R21240   6.103   2.248   5.792 -0.8612 -0.1624  2.1586
  174DOPC  C21121241   6.277   2.263   5.918 -0.7075  0.1352  0.4394
  174DOPC  H11R21242   6.324   2.355   5.960 -3.3121  1.6051  0.3493
  174DOPC  H11S21243   6.356   2.196   5.877 -0.3411  1.5879 -1.3406
  174DOPC  C21221244   6.190   2.190   6.023 -0.2773  0.6290  0.5526
  174DOPC  H12R21245   6.267   2.138   6.084  0.6219  1.0148 -0.2240
  174DOPC  H12S21246   6.122   2.112   5.983  1.8276 -0.2039 -1.5813
  174DOPC  C21321247   6.119   2.301   6.103  0.2835  0.4967 -0.3846
  174DOPC  H13R21248   6.042   2.357   6.046 -1.6529  0.3455  1.9026
  174DOPC  H13S21249   6.190   2.382   6.130 -0.8385  0.8207  1.8653
  174DOPC  C21421250   6.051   2.245   6.222 -0.2495 -0.5790 -0.4765
  174DOPC  H14R21251   6.124   2.199   6.292  0.2188 -0.7324 -1.0642
  174DOPC  H14S21252   5.981   2.165   6.190 -2.2120  0.6349  0.5698
  174DOPC  C21521253   5.978   2.363   6.294  0.6305 -0.0521  0.3774
  174DOPC  H15R21254   5.912   2.412   6.220  3.0317  1.2479 -1.0376
  174DOPC  H15S21255   6.063   2.432   6.315 -1.3349  1.7418  3.2435
  174DOPC  C21621256   5.910   2.340   6.429 -0.0288 -0.4524  0.6891
  174DOPC  H16R21257   5.996   2.304   6.490  0.0986 -1.6665 -0.1704
  174DOPC  H16S21258   5.837   2.259   6.410 -1.9226  1.5315 -1.0973
  174DOPC  C21721259   5.841   2.456   6.489  0.0423 -0.3963 -0.4506
  174DOPC  H17R21260   5.778   2.427   6.576  0.9249 -1.1994 -0.0613
  174DOPC  H17S21261   5.773   2.495   6.410  2.3928  0.5055 -2.1266
  174DOPC  C21821262   5.928   2.580   6.529 -0.2166 -0.3361  0.9634
  174DOPC  H18R21263   6.006   2.538   6.596  1.3614 -0.2445 -0.7432
  174DOPC  H18S21264   5.860   2.649   6.583  1.0289  2.5896 -1.0008
  174DOPC  H18T21265   5.974   2.631   6.441  0.2496  0.1311  1.4736
  174DOPC   C3321266   5.874   2.498   5.392  0.1871  0.0100 -0.0612
  174DOPC   H3X21267   5.985   2.495   5.404  0.3839  1.2557 -1.3187
  174DOPC   H3Y21268   5.842   2.404   5.343 -1.8610  0.2361  0.7408
  174DOPC   C3421269   5.822   2.489   5.539  0.0559  0.5578 -0.4331
  174DOPC   H4X21270   5.868   2.396   5.579  2.5578  1.1813 -1.6729
  174DOPC   H4Y21271   5.711   2.486   5.534 -0.0910  1.4077  1.4443
  174DOPC   C3521272   5.870   2.602   5.626 -0.1832 -0.0417 -0.3837
  174DOPC   H5X21273   5.829   2.701   5.597 -1.8339 -0.4468  0.4570
  174DOPC   H5Y21274   5.977   2.613   5.599  0.5318 -1.0103  1.8242
  174DOPC   C3621275   5.835   2.582   5.774 -0.7349 -0.3434  0.1919
  174DOPC   H6X21276   5.862   2.485   5.820 -0.0248  0.0647  0.6455
  174DOPC   H6Y21277   5.893   2.659   5.829 -0.6134 -0.5591  0.3695
  174DOPC   C3721278   5.691   2.597   5.814  0.1778  0.5135 -0.4001
  174DOPC   H7X21279   5.645   2.682   5.760  1.1112  0.9685 -0.4935
  174DOPC   H7Y21280   5.632   2.508   5.784 -1.0863  0.8792  0.8416
  174DOPC   C3821281   5.678   2.618   5.967  0.3487  0.4528 -1.2932
  174DOPC   H8X21282   5.741   2.704   5.998  0.8429 -0.8729  1.6979
  174DOPC   H8Y21283   5.726   2.532   6.018  0.7271  1.7385  0.6059
  174DOPC   C3921284   5.536   2.649   6.012  0.8891  0.4542  0.6480
  174DOPC   H9X21285   5.464   2.604   5.943  0.7089 -0.2254  1.2739
  174DOPC  C31021286   5.507   2.724   6.120  0.0517  0.2893  0.6361
  174DOPC  H10X21287   5.400   2.742   6.136 -0.7563 -1.2647 -2.2971
  174DOPC  C31121288   5.612   2.779   6.218 -0.1463  0.3761 -0.0631
  174DOPC  H11X21289   5.611   2.890   6.216  0.6906  0.3930  0.0779
  174DOPC  H11Y21290   5.716   2.746   6.195  0.1174  1.3073 -0.2779
  174DOPC  C31221291   5.574   2.753   6.367  0.4507 -0.2047  0.0470
  174DOPC  H12X21292   5.639   2.805   6.440  0.1465 -0.7313  0.6981
  174DOPC  H12Y21293   5.593   2.646   6.387 -0.2991 -0.3187  0.1961
  174DOPC  C31321294   5.424   2.774   6.396 -0.0460 -0.2727  0.2067
  174DOPC  H13X21295   5.404   2.878   6.364  1.7277 -0.2652 -1.0061
  174DOPC  H13Y21296   5.362   2.708   6.332  1.5292 -0.7695 -0.8557
  174DOPC  C31421297   5.386   2.757   6.541 -0.3726 -0.4714  0.7538
  174DOPC  H14X21298   5.277   2.744   6.557 -0.1032 -2.4535  1.2239
  174DOPC  H14Y21299   5.434   2.661   6.570 -1.6498 -0.8143  1.8320
  174DOPC  C31521300   5.435   2.870   6.636  0.1882 -0.6629 -0.2212
  174DOPC  H15X21301   5.407   2.969   6.593  1.6825  0.3288  0.9765
  174DOPC  H15Y21302   5.546   2.873   6.642  0.1108  1.0044  1.3683
  174DOPC  C31621303   5.365   2.863   6.774 -0.2835  0.3958 -0.2809
  174DOPC  H16X21304   5.266   2.821   6.747 -1.1449  1.4573  1.1453
  174DOPC  H16Y21305   5.420   2.788   6.835  0.4550  1.8557  0.9126
  174DOPC  C31721306   5.361   2.997   6.855  0.0944  0.5988 -0.1327
  174DOPC  H17X21307   5.318   3.075   6.789 -1.2936  1.5806  1.8350
  174DOPC  H17Y21308   5.279   2.981   6.928 -0.1364 -0.8575 -0.6620
  174DOPC  C31821309   5.494   3.040   6.927 -0.0418  0.5672 -0.5797
  174DOPC  H18X21310   5.492   3.144   6.966  0.0904  0.0182  0.9935
  174DOPC  H18Y21311   5.502   2.976   7.018 -1.0043 -2.0543 -2.2530
  174DOPC  H18Z21312   5.588   3.027   6.869  0.3651 -0.9923  0.3723
  175DOPC     N21313   4.892   6.732   4.749  0.3039  0.1624 -0.2612
  175DOPC   C1221314   4.803   6.608   4.754  0.0113 -0.7918  0.8295
  175DOPC  H12A21315   4.838   6.541   4.832  1.2355 -1.1785 -0.0208
  175DOPC  H12B21316   4.826   6.563   4.658 -0.6915 -0.6266  0.5776
  175DOPC   C1321317   5.035   6.695   4.760 -0.1425  0.0565  0.8263
  175DOPC  H13A21318   5.105   6.776   4.742  0.0663 -0.3217 -0.1827
  175DOPC  H13B21319   5.055   6.653   4.857  1.9741 -1.8107 -0.3074
  175DOPC  H13C21320   5.076   6.623   4.690  0.6494  2.7133 -1.6361
  175DOPC   C1421321   4.853   6.831   4.858  0.1315 -0.4642  0.0604
  175DOPC  H14A21322   4.891   6.930   4.839 -1.7228  0.1248 -0.9147
  175DOPC  H14B21323   4.746   6.839   4.870  0.0355  1.9126 -1.6622
  175DOPC  H14C21324   4.893   6.791   4.950  1.0215  1.2532  0.4581
  175DOPC   C1521325   4.880   6.793   4.615  0.6597 -0.2019  0.1432
  175DOPC  H15A21326   4.776   6.784   4.587  0.7064  1.0371 -0.4684
  175DOPC  H15B21327   4.930   6.740   4.535  0.0534 -0.0004 -0.3767
  175DOPC  H15C21328   4.899   6.899   4.617  0.5824 -0.1772 -0.3371
  175DOPC   C1121329   4.645   6.626   4.768  0.0141 -0.4059 -1.3326
  175DOPC  H11A21330   4.593   6.529   4.752  0.2671 -1.2813  2.3134
  175DOPC  H11B21331   4.636   6.649   4.876  1.9087  0.7473 -1.3681
  175DOPC     P21332   4.460   6.793   4.697 -0.4421 -0.3174 -0.0234
  175DOPC   O1321333   4.368   6.682   4.673 -0.0346 -0.6036  0.1825
  175DOPC   O1421334   4.462   6.895   4.588 -0.0794 -0.3828  0.1430
  175DOPC   O1221335   4.606   6.734   4.689  0.3375 -0.4407 -0.1747
  175DOPC   O1121336   4.435   6.852   4.840 -0.4413  0.6634  0.3158
  175DOPC    C121337   4.467   6.990   4.873 -0.6521 -0.1473  0.6635
  175DOPC    HA21338   4.461   7.056   4.784 -2.8898  0.6666  1.3444
  175DOPC    HB21339   4.574   6.986   4.902 -0.0758 -2.2248 -1.4669
  175DOPC    C221340   4.387   7.050   4.990 -0.0990  0.4544 -0.3752
  175DOPC    HS21341   4.420   7.150   5.025  0.3066 -0.4428  2.0165
  175DOPC   O2121342   4.396   6.956   5.106 -0.3403  0.4313  0.5044
  175DOPC   C2121343   4.509   6.964   5.172 -0.1742 -0.8927 -0.0465
  175DOPC   O2221344   4.598   7.045   5.157  0.1501 -0.1083  0.2345
  175DOPC   C2221345   4.494   6.867   5.292  0.2068  0.1207  0.2749
  175DOPC   H2R21346   4.398   6.810   5.297 -0.4796  1.2573  0.3818
  175DOPC   H2S21347   4.469   6.930   5.380 -2.2117  0.5582 -0.6458
  175DOPC    C321348   4.235   7.063   4.956 -0.1150  0.4085  0.2831
  175DOPC    HX21349   4.173   6.971   4.949  0.4232  0.1177 -0.9917
  175DOPC    HY21350   4.232   7.097   4.850  2.1377  0.2153  0.1065
  175DOPC   O3121351   4.179   7.163   5.037 -0.3135 -0.0909  0.1313
  175DOPC   C3121352   4.079   7.127   5.113  0.2877  0.4950 -0.3053
  175DOPC   O3221353   4.007   7.035   5.093  0.0674 -0.3472  0.5349
  175DOPC   C3221354   4.075   7.219   5.232  0.4214  0.1711  0.0268
  175DOPC   H2X21355   4.180   7.227   5.266  1.2731  0.6365 -2.4563
  175DOPC   H2Y21356   4.040   7.315   5.188  0.7901 -0.2145 -1.1379
  175DOPC   C2321357   4.618   6.781   5.303  0.3316  0.3123  0.2334
  175DOPC   H3R21358   4.712   6.840   5.307  0.9511 -0.6916  1.2343
  175DOPC   H3S21359   4.629   6.720   5.211 -1.2750 -1.6698  1.2870
  175DOPC   C2421360   4.607   6.675   5.417 -0.2041 -0.9963 -0.0175
  175DOPC   H4R21361   4.672   6.593   5.380 -0.5679 -2.1822  1.8597
  175DOPC   H4S21362   4.508   6.627   5.434 -1.7409  1.1271 -2.2849
  175DOPC   C2521363   4.661   6.723   5.555  0.2676 -0.2549  0.3290
  175DOPC   H5R21364   4.599   6.808   5.589  0.1605  0.1461 -0.8293
  175DOPC   H5S21365   4.768   6.755   5.548  0.3952 -0.2730  1.8194
  175DOPC   C2621366   4.656   6.601   5.648  0.4422 -0.4223 -0.2470
  175DOPC   H6R21367   4.736   6.535   5.608  0.1289 -0.1610 -1.3397
  175DOPC   H6S21368   4.564   6.543   5.627  0.6174 -0.3264 -1.3091
  175DOPC   C2721369   4.651   6.635   5.799  0.2882  0.4258 -0.2435
  175DOPC   H7R21370   4.564   6.697   5.826  0.0274  0.3157 -0.8016
  175DOPC   H7S21371   4.741   6.698   5.815 -0.0068  1.1998 -1.4906
  175DOPC   C2821372   4.660   6.504   5.876 -0.0588  0.4206 -0.1592
  175DOPC   H8R21373   4.750   6.447   5.846 -0.9158 -1.8026  1.2343
  175DOPC   H8S21374   4.582   6.434   5.840 -1.2671  2.5906 -1.9954
  175DOPC   C2921375   4.660   6.528   6.026  0.2697 -0.3688  0.6469
  175DOPC   H9R21376   4.563   6.563   6.064  0.0202  0.2251 -0.5031
  175DOPC  C21021377   4.767   6.558   6.098 -0.4842 -0.0114 -0.3289
  175DOPC  H10R21378   4.753   6.598   6.200  0.1607 -1.2510  0.2602
  175DOPC  C21121379   4.918   6.552   6.063 -0.0272 -0.3513 -0.3009
  175DOPC  H11R21380   4.969   6.644   6.099 -0.8262 -0.0053 -0.0262
  175DOPC  H11S21381   4.937   6.552   5.953  0.6422 -3.2344 -0.2579
  175DOPC  C21221382   4.985   6.438   6.132 -0.2627  0.7003 -0.6458
  175DOPC  H12R21383   5.091   6.456   6.102 -0.2088 -0.2255 -1.0774
  175DOPC  H12S21384   4.951   6.338   6.097 -0.9279 -0.7730  3.7091
  175DOPC  C21321385   4.976   6.441   6.285 -0.1364  0.6611 -0.5033
  175DOPC  H13R21386   4.870   6.437   6.317 -0.5166  0.1501 -1.7543
  175DOPC  H13S21387   5.014   6.535   6.330  1.1553 -0.2828  0.4541
  175DOPC  C21421388   5.071   6.333   6.344  0.5312  0.7456 -0.5534
  175DOPC  H14R21389   5.176   6.354   6.314  0.2084  0.0213 -2.3088
  175DOPC  H14S21390   5.032   6.238   6.302 -0.2789  1.8229 -2.3638
  175DOPC  C21521391   5.069   6.329   6.492 -0.5941  0.1030 -0.4660
  175DOPC  H15R21392   5.097   6.426   6.538 -0.5380 -0.4262  0.6377
  175DOPC  H15S21393   5.157   6.263   6.509 -0.0314  0.4947 -1.7383
  175DOPC  C21621394   4.935   6.280   6.545 -0.1389 -0.7403  0.0733
  175DOPC  H16R21395   4.897   6.190   6.492 -0.2161 -0.1062 -0.9877
  175DOPC  H16S21396   4.860   6.361   6.532 -1.6581 -1.8213  1.6675
  175DOPC  C21721397   4.946   6.256   6.694 -0.1024  0.4529 -0.1618
  175DOPC  H17R21398   5.034   6.305   6.741  2.8692 -2.1638 -2.4457
  175DOPC  H17S21399   4.976   6.150   6.711 -0.5581  0.5319  1.2831
  175DOPC  C21821400   4.814   6.282   6.773 -0.1816 -0.2561  0.6826
  175DOPC  H18R21401   4.722   6.234   6.732 -1.5154  1.7987  1.1167
  175DOPC  H18S21402   4.792   6.390   6.790  1.2346 -0.1830  2.2513
  175DOPC  H18T21403   4.833   6.239   6.874 -2.6578 -0.2607  1.2355
  175DOPC   C3321404   3.982   7.175   5.350  0.1277 -0.6954  0.3387
  175DOPC   H3X21405   3.878   7.156   5.317 -0.0500  0.7144  0.0159
  175DOPC   H3Y21406   3.982   7.260   5.422  0.0315 -0.1294 -0.3237
  175DOPC   C3421407   4.027   7.049   5.430 -0.0818 -0.3623  0.1315
  175DOPC   H4X21408   4.062   6.965   5.366  0.8248 -1.8145  2.4210
  175DOPC   H4Y21409   3.939   7.016   5.488 -0.3009  0.0551  0.0405
  175DOPC   C3521410   4.153   7.075   5.518  0.6682 -0.0243 -0.1855
  175DOPC   H5X21411   4.130   7.158   5.588  0.9437  0.5886 -0.8154
  175DOPC   H5Y21412   4.239   7.115   5.461  1.3585 -0.4105  0.5744
  175DOPC   C3621413   4.201   6.965   5.603 -0.4643  1.2118 -0.3615
  175DOPC   H6X21414   4.120   6.909   5.655 -0.4488  0.0939 -1.4813
  175DOPC   H6Y21415   4.256   6.887   5.546 -1.4316  1.6956 -2.0181
  175DOPC   C3721416   4.296   7.010   5.717 -0.3227 -0.3884  0.0593
  175DOPC   H7X21417   4.375   7.071   5.669  1.7075 -2.7912  0.1386
  175DOPC   H7Y21418   4.249   7.077   5.793 -1.9110 -0.8368 -0.4863
  175DOPC   C3821419   4.355   6.889   5.794  0.0868 -0.0224 -0.3874
  175DOPC   H8X21420   4.444   6.919   5.853 -0.3928 -0.7759  0.7555
  175DOPC   H8Y21421   4.386   6.808   5.725  2.5227  0.6312 -0.1556
  175DOPC   C3921422   4.267   6.811   5.888  0.6304 -0.4900  0.6925
  175DOPC   H9X21423   4.166   6.796   5.846  0.3532  0.3244  1.0425
  175DOPC  C31021424   4.287   6.789   6.017  0.1257  0.0565 -0.6656
  175DOPC  H10X21425   4.207   6.738   6.073 -0.1686 -2.1210 -2.8500
  175DOPC  C31121426   4.415   6.809   6.093  0.1755  0.2029 -0.1042
  175DOPC  H11X21427   4.494   6.822   6.015  1.0980  0.1648  0.8119
  175DOPC  H11Y21428   4.430   6.724   6.162  0.9455  1.5207  1.4044
  175DOPC  C31221429   4.413   6.941   6.174  0.2365 -0.4830  0.2474
  175DOPC  H12X21430   4.345   6.920   6.259  0.8825 -2.6607  0.2944
  175DOPC  H12Y21431   4.370   7.020   6.109 -0.6190 -0.9140  0.2758
  175DOPC  C31321432   4.556   6.993   6.205  0.1897  0.1985  0.8338
  175DOPC  H13X21433   4.598   7.037   6.112 -0.0310 -2.6392 -0.7214
  175DOPC  H13Y21434   4.547   7.083   6.269  2.0644  0.0975  1.3082
  175DOPC  C31421435   4.651   6.888   6.263 -0.1883  0.3098 -0.8436
  175DOPC  H14X21436   4.586   6.824   6.327  3.0935 -0.6119  1.8494
  175DOPC  H14Y21437   4.688   6.818   6.185 -3.1347 -0.6671 -1.5110
  175DOPC  C31521438   4.759   6.936   6.358  0.2039 -0.5632  0.4527
  175DOPC  H15X21439   4.713   7.011   6.426 -1.6312 -1.1330 -0.1148
  175DOPC  H15Y21440   4.836   6.989   6.297  0.0620  1.7887  2.1986
  175DOPC  C31621441   4.819   6.825   6.442  0.2048 -0.6782  0.3067
  175DOPC  H16X21442   4.751   6.802   6.526 -1.5912 -0.2126 -0.9588
  175DOPC  H16Y21443   4.832   6.746   6.365  4.0104 -0.2163  0.2885
  175DOPC  C31721444   4.952   6.869   6.505 -0.0327  0.4868  0.3461
  175DOPC  H17X21445   5.025   6.918   6.437  1.4571  1.4719  2.4931
  175DOPC  H17Y21446   4.931   6.927   6.598  0.3281 -0.2094  0.8667
  175DOPC  C31821447   5.041   6.756   6.558  0.0244  0.6505 -0.0740
  175DOPC  H18X21448   4.974   6.709   6.633 -0.7625  1.7160 -0.0719
  175DOPC  H18Y21449   5.053   6.687   6.472 -0.3116  0.7613 -0.2143
  175DOPC  H18Z21450   5.134   6.792   6.606  0.5312 -0.9578  0.1931
  176DOPC     N21451   4.383   1.153   4.941 -0.4815 -0.4978  0.5031
  176DOPC   C1221452   4.233   1.143   4.910 -0.0490 -0.0013  0.2124
  176DOPC  H12A21453   4.184   1.237   4.932 -0.8567 -0.1665 -0.8286
  176DOPC  H12B21454   4.192   1.066   4.974  0.1656 -2.1133 -2.0771
  176DOPC   C1321455   4.454   1.273   4.882  0.0193  0.2226 -0.2983
  176DOPC  H13A21456   4.409   1.360   4.929 -1.3143 -0.7791  0.3471
  176DOPC  H13B21457   4.558   1.284   4.909  0.6706  2.0524 -3.1788
  176DOPC  H13C21458   4.447   1.279   4.775  0.7622 -1.9144 -0.5015
  176DOPC   C1421459   4.454   1.030   4.896  0.2443  0.6194 -0.2335
  176DOPC  H14A21460   4.560   1.050   4.903  1.1241 -2.9803 -1.2148
  176DOPC  H14B21461   4.426   0.946   4.958  2.8781  1.1190  1.8079
  176DOPC  H14C21462   4.440   1.008   4.791  1.5665  0.7973 -0.4688
  176DOPC   C1521463   4.406   1.164   5.089 -0.8044 -0.0049  0.1688
  176DOPC  H15A21464   4.342   1.093   5.138 -0.5818  0.8271  1.7403
  176DOPC  H15B21465   4.365   1.253   5.135 -1.3101  0.0616 -0.4085
  176DOPC  H15C21466   4.513   1.157   5.105 -0.9589 -1.9177  0.5106
  176DOPC   C1121467   4.192   1.110   4.766 -0.6500  0.3008  0.1652
  176DOPC  H11A21468   4.249   1.018   4.744 -1.7819 -0.6330  1.0486
  176DOPC  H11B21469   4.085   1.083   4.764 -1.0305  1.7203 -0.5505
  176DOPC     P21470   4.138   1.339   4.650 -0.4040  0.3093  0.0833
  176DOPC   O1321471   4.022   1.309   4.565  0.1227  0.0662 -0.6025
  176DOPC   O1421472   4.226   1.448   4.609  0.6485 -0.4660  0.0597
  176DOPC   O1221473   4.232   1.212   4.676  0.3009  0.1207 -0.0659
  176DOPC   O1121474   4.095   1.355   4.798  0.0634  0.0848 -0.5482
  176DOPC    C121475   4.087   1.483   4.866  0.5315 -0.7095  0.6831
  176DOPC    HA21476   3.986   1.528   4.864  1.2488  1.0064  1.0377
  176DOPC    HB21477   4.155   1.562   4.826 -2.4222  1.2033 -1.0254
  176DOPC    C221478   4.116   1.460   5.014  0.1452  0.5760 -0.3573
  176DOPC    HS21479   4.215   1.409   5.018 -0.9090 -1.7902 -1.9475
  176DOPC   O2121480   4.011   1.373   5.070 -0.6206 -0.3779 -0.0641
  176DOPC   C2121481   4.048   1.330   5.187 -0.4431 -0.1472  0.9137
  176DOPC   O2221482   4.163   1.306   5.223 -0.1546  0.4753 -0.2358
  176DOPC   C2221483   3.926   1.314   5.275  0.6038 -0.2637 -0.0444
  176DOPC   H2R21484   3.858   1.234   5.239 -2.5350  2.4159 -0.5258
  176DOPC   H2S21485   3.866   1.407   5.273 -2.0322 -1.8532  0.8707
  176DOPC    C321486   4.139   1.596   5.095 -0.3610 -0.4097  0.4487
  176DOPC    HX21487   4.039   1.644   5.097 -0.7011 -1.0475  2.8421
  176DOPC    HY21488   4.207   1.664   5.040  1.6901 -0.3125  2.9268
  176DOPC   O3121489   4.167   1.594   5.236 -0.6292  0.4179  0.0786
  176DOPC   C3121490   4.290   1.548   5.261  0.2788 -0.0093  0.0694
  176DOPC   O3221491   4.364   1.513   5.176 -0.5142 -0.7536  0.3147
  176DOPC   C3221492   4.320   1.542   5.408  0.6622 -1.1975 -0.0449
  176DOPC   H2X21493   4.240   1.599   5.460  0.6109 -1.5076  0.2209
  176DOPC   H2Y21494   4.311   1.433   5.430  2.7204 -1.0941  1.5691
  176DOPC   C2321495   3.968   1.270   5.421  0.0288 -0.6539  0.2943
  176DOPC   H3R21496   4.060   1.208   5.416  0.6065  0.1570  0.6804
  176DOPC   H3S21497   3.885   1.202   5.450  0.4014 -1.8371 -1.2827
  176DOPC   C2421498   3.993   1.395   5.510  0.1676  0.6025  0.1161
  176DOPC   H4R21499   3.897   1.449   5.519  0.0319  0.1441  1.7210
  176DOPC   H4S21500   4.066   1.465   5.463 -0.2900  0.4707 -0.8313
  176DOPC   C2521501   4.046   1.368   5.649 -0.2184 -0.0351  0.4625
  176DOPC   H5R21502   4.144   1.319   5.630  0.3217  1.8908 -2.6064
  176DOPC   H5S21503   3.981   1.292   5.696 -1.2844 -0.0498 -0.9679
  176DOPC   C2621504   4.040   1.497   5.746 -0.0216  0.2621 -0.4860
  176DOPC   H6R21505   3.936   1.529   5.727  0.3610  3.0850  1.5108
  176DOPC   H6S21506   4.108   1.574   5.704  0.1330  0.2467 -0.2693
  176DOPC   C2721507   4.082   1.485   5.894 -0.0168 -0.1404  0.2487
  176DOPC   H7R21508   4.160   1.407   5.906 -0.7435 -1.5210 -2.9457
  176DOPC   H7S21509   3.996   1.446   5.951  0.1222  0.1801  0.6818
  176DOPC   C2821510   4.109   1.614   5.972 -0.7232  0.7505  0.3547
  176DOPC   H8R21511   4.110   1.577   6.076  0.0653  3.6639  1.4920
  176DOPC   H8S21512   4.030   1.692   5.965  0.0996  1.5489 -0.2230
  176DOPC   C2921513   4.243   1.664   5.932 -0.1730 -0.7048 -0.1634
  176DOPC   H9R21514   4.328   1.611   5.976 -1.3875 -1.9839  0.7315
  176DOPC  C21021515   4.267   1.782   5.863  0.0516 -0.2742  0.1484
  176DOPC  H10R21516   4.371   1.806   5.839  0.1635 -0.1862  0.7249
  176DOPC  C21121517   4.163   1.869   5.801  0.5964 -0.6944  0.2256
  176DOPC  H11R21518   4.064   1.851   5.848 -1.1243 -2.6084 -3.6905
  176DOPC  H11S21519   4.153   1.851   5.692  0.5242 -1.1451  0.3043
  176DOPC  C21221520   4.195   2.019   5.812  0.5687  0.2126 -0.2026
  176DOPC  H12R21521   4.123   2.072   5.747 -1.0678 -1.5467  0.0832
  176DOPC  H12S21522   4.295   2.038   5.766  1.1609  0.3184  1.0948
  176DOPC  C21321523   4.182   2.072   5.951  0.6800  0.0200 -0.5076
  176DOPC  H13R21524   4.251   2.023   6.023  1.3260  2.7454  0.8591
  176DOPC  H13S21525   4.079   2.040   5.977  0.5043  0.6946 -0.3644
  176DOPC  C21421526   4.211   2.218   5.960 -0.1564 -0.7641  0.2289
  176DOPC  H14R21527   4.312   2.236   5.916  0.5738 -0.1504  2.0717
  176DOPC  H14S21528   4.201   2.246   6.067 -1.6309  0.9854 -0.3119
  176DOPC  C21521529   4.092   2.305   5.895  0.9013 -0.4974  0.5948
  176DOPC  H15R21530   3.998   2.254   5.925 -0.0450  0.1879 -1.0971
  176DOPC  H15S21531   4.085   2.295   5.785 -1.7154 -0.4198  0.6977
  176DOPC  C21621532   4.110   2.455   5.935  0.2957 -0.0309 -0.4173
  176DOPC  H16R21533   4.111   2.478   6.044 -2.0664  3.1045 -0.9086
  176DOPC  H16S21534   4.016   2.500   5.897 -0.1582  0.4361  1.1498
  176DOPC  C21721535   4.216   2.532   5.851  0.2640 -0.2841 -0.0367
  176DOPC  H17R21536   4.316   2.502   5.888  1.1575 -1.7997 -3.2923
  176DOPC  H17S21537   4.200   2.640   5.868 -2.1896 -0.5156 -0.3921
  176DOPC  C21821538   4.215   2.509   5.705  0.0395  0.6834 -0.7270
  176DOPC  H18R21539   4.210   2.404   5.669  0.6342  0.7436 -0.9964
  176DOPC  H18S21540   4.309   2.542   5.656  1.1369 -0.9713  0.1700
  176DOPC  H18T21541   4.129   2.557   5.652 -1.1032  0.5400  0.9109
  176DOPC   C3321542   4.459   1.601   5.455  0.1207  0.6734  0.0113
  176DOPC   H3X21543   4.544   1.538   5.423  0.2795  0.3888  0.9619
  176DOPC   H3Y21544   4.456   1.609   5.566 -1.7235 -0.4103  0.0854
  176DOPC   C3421545   4.494   1.749   5.419  1.0644 -0.0313 -0.0947
  176DOPC   H4X21546   4.500   1.755   5.308 -1.1048 -1.6357 -0.3616
  176DOPC   H4Y21547   4.601   1.768   5.440  1.4169 -2.2421  0.2793
  176DOPC   C3521548   4.398   1.861   5.472  0.2003  0.1057  0.1621
  176DOPC   H5X21549   4.396   1.874   5.582  0.4521 -0.5311  0.2470
  176DOPC   H5Y21550   4.295   1.828   5.447 -0.6172  1.0457  2.1055
  176DOPC   C3621551   4.427   1.998   5.400  0.2046  0.4479 -0.3238
  176DOPC   H6X21552   4.534   2.030   5.405  0.0074  0.9134  2.5446
  176DOPC   H6Y21553   4.398   1.993   5.293 -0.7248  0.0719 -0.0595
  176DOPC   C3721554   4.339   2.118   5.454 -0.4189  0.1985 -0.0383
  176DOPC   H7X21555   4.231   2.099   5.441 -0.0157 -2.4147 -0.0909
  176DOPC   H7Y21556   4.354   2.111   5.564 -1.1693 -0.8442  0.0106
  176DOPC   C3821557   4.383   2.254   5.405 -0.0952 -0.1959 -0.2350
  176DOPC   H8X21558   4.494   2.252   5.415  0.1913  0.1683 -2.8583
  176DOPC   H8Y21559   4.349   2.339   5.469 -3.4731 -2.0640  0.6488
  176DOPC   C3921560   4.338   2.267   5.265  0.4563  0.4758 -0.0771
  176DOPC   H9X21561   4.320   2.172   5.211 -0.9980  0.5905  0.1693
  176DOPC  C31021562   4.320   2.382   5.205  0.2595  0.0629 -0.0416
  176DOPC  H10X21563   4.292   2.381   5.099 -1.4699  0.5049  0.3817
  176DOPC  C31121564   4.356   2.517   5.268  0.3831 -0.0745 -0.5544
  176DOPC  H11X21565   4.392   2.582   5.185  1.3497 -2.1032 -1.8279
  176DOPC  H11Y21566   4.434   2.498   5.345  0.1446  1.7148  0.1635
  176DOPC  C31221567   4.242   2.585   5.349 -0.3660  0.7496  0.1246
  176DOPC  H12X21568   4.205   2.511   5.423  2.2006  0.3569  1.1194
  176DOPC  H12Y21569   4.150   2.605   5.291 -1.2974 -0.4094  1.1420
  176DOPC  C31321570   4.279   2.724   5.413  0.1411 -0.4446  0.3282
  176DOPC  H13X21571   4.190   2.768   5.463  0.9165  0.2258  1.1620
  176DOPC  H13Y21572   4.352   2.712   5.496 -1.0663  0.2166  1.5372
  176DOPC  C31421573   4.331   2.826   5.318 -0.2606 -0.6456  0.2567
  176DOPC  H14X21574   4.424   2.787   5.271 -1.1480 -0.6683 -1.5779
  176DOPC  H14Y21575   4.260   2.816   5.233  0.5503 -1.8338 -0.3017
  176DOPC  C31521576   4.352   2.970   5.376 -0.3641 -0.9911  0.1786
  176DOPC  H15X21577   4.448   2.969   5.433 -1.4401  1.2794  2.1969
  176DOPC  H15Y21578   4.266   2.987   5.443 -1.7931 -0.8354 -1.6186
  176DOPC  C31621579   4.368   3.081   5.271  0.3628  0.0278  0.7019
  176DOPC  H16X21580   4.281   3.071   5.203 -0.0372 -0.4148  1.2592
  176DOPC  H16Y21581   4.368   3.181   5.320  0.1903  1.0772 -1.3617
  176DOPC  C31721582   4.493   3.083   5.185  0.0133  1.0482  0.1174
  176DOPC  H17X21583   4.498   2.986   5.131  1.0429  0.7151  0.7800
  176DOPC  H17Y21584   4.493   3.166   5.111 -0.9901 -0.2753 -1.4360
  176DOPC  C31821585   4.624   3.100   5.261 -0.4524 -0.0212  0.2365
  176DOPC  H18X21586   4.630   3.183   5.335 -0.5193  0.5476 -0.3883
  176DOPC  H18Y21587   4.634   3.008   5.322  2.9682 -0.4306 -0.7308
  176DOPC  H18Z21588   4.715   3.105   5.197  0.8849  1.8065  2.1536
  177DOPC     N21589   5.170   5.993   4.252 -0.2120 -0.2281  0.5511
  177DOPC   C1221590   5.031   6.037   4.303 -0.4392  0.2718  0.5528
  177DOPC  H12A21591   4.961   5.961   4.271  1.5719 -0.6469 -2.0664
  177DOPC  H12B21592   5.004   6.129   4.253  0.9805 -0.6475 -2.1802
  177DOPC   C1321593   5.158   5.924   4.123 -0.1781 -0.0060 -0.0590
  177DOPC  H13A21594   5.084   5.845   4.117  0.8122 -1.0361  0.9692
  177DOPC  H13B21595   5.146   5.995   4.042  0.6039  0.8880  0.5845
  177DOPC  H13C21596   5.253   5.881   4.095 -0.6527 -1.0203 -0.1535
  177DOPC   C1421597   5.220   5.891   4.350 -0.4173 -0.3850  0.0284
  177DOPC  H14A21598   5.145   5.816   4.367 -0.9032  0.3407  1.1523
  177DOPC  H14B21599   5.312   5.849   4.311 -0.4071 -1.9203  1.5806
  177DOPC  H14C21600   5.240   5.940   4.444  0.6073 -0.9392  0.1156
  177DOPC   C1521601   5.253   6.116   4.243  0.9655  0.0890 -0.0180
  177DOPC  H15A21602   5.289   6.158   4.335 -1.6533 -1.4787  1.8437
  177DOPC  H15B21603   5.205   6.195   4.188 -0.4206 -1.0583 -0.5059
  177DOPC  H15C21604   5.352   6.102   4.201  0.4035  0.3406 -1.5155
  177DOPC   C1121605   5.011   6.063   4.450  0.7479  0.4863  0.8230
  177DOPC  H11A21606   4.904   6.092   4.460  0.3881 -0.8876  1.0881
  177DOPC  H11B21607   5.010   5.968   4.506 -0.9127 -0.1862 -0.2667
  177DOPC     P21608   5.101   6.263   4.607  0.2301 -0.0336 -0.2499
  177DOPC   O1321609   5.013   6.370   4.555  0.5115 -0.5655  0.2816
  177DOPC   O1421610   5.240   6.306   4.644  0.8494 -0.2133  0.6745
  177DOPC   O1221611   5.111   6.145   4.504  0.2612  0.3100 -0.1420
  177DOPC   O1121612   5.028   6.209   4.736  0.1805 -0.0743 -0.3197
  177DOPC    C121613   5.086   6.101   4.816  0.2248  0.3353  0.0462
  177DOPC    HA21614   5.167   6.130   4.887 -0.3907 -3.1610  2.4284
  177DOPC    HB21615   5.135   6.025   4.752 -0.4882 -0.5894  0.5780
  177DOPC    C221616   4.971   6.025   4.898 -0.3648 -0.1433  0.0058
  177DOPC    HS21617   4.881   6.032   4.833  0.7433 -0.9996 -1.6679
  177DOPC   O2121618   4.962   6.087   5.024 -0.2892 -0.7370  0.1100
  177DOPC   C2121619   4.846   6.068   5.078  0.1574 -0.4108 -0.1239
  177DOPC   O2221620   4.751   6.023   5.017  0.3396  0.1096  0.3227
  177DOPC   C2221621   4.865   6.080   5.227  0.2076  0.2684 -0.1783
  177DOPC   H2R21622   4.953   6.146   5.242  0.2384 -0.0296  1.0180
  177DOPC   H2S21623   4.879   5.979   5.272 -3.3796 -0.5875 -0.6836
  177DOPC    C321624   5.012   5.872   4.908  0.0244  0.4990  0.5910
  177DOPC    HX21625   5.121   5.871   4.929  0.7308  0.7229 -2.5925
  177DOPC    HY21626   5.004   5.824   4.809  0.7575  1.8580 -0.1629
  177DOPC   O3121627   4.938   5.799   5.006  0.2634  0.1341 -0.1409
  177DOPC   C3121628   4.832   5.734   4.962  0.0052  0.1640 -0.3134
  177DOPC   O3221629   4.792   5.736   4.845  0.6822 -0.1739 -0.0587
  177DOPC   C3221630   4.750   5.672   5.075  0.0451 -0.3668  0.6523
  177DOPC   H2X21631   4.664   5.742   5.083 -0.8227 -0.9309 -2.5384
  177DOPC   H2Y21632   4.715   5.571   5.047 -0.9792 -0.2484  1.4556
  177DOPC   C2321633   4.749   6.149   5.300 -0.2284 -0.3056  0.0724
  177DOPC   H3R21634   4.660   6.083   5.290 -0.6762  0.4738 -1.2453
  177DOPC   H3S21635   4.727   6.247   5.254  0.5103 -0.6388 -1.0188
  177DOPC   C2421636   4.782   6.193   5.444  0.6045  0.2739  0.0869
  177DOPC   H4R21637   4.694   6.248   5.483 -0.0554 -0.2152 -0.6811
  177DOPC   H4S21638   4.873   6.257   5.439 -0.8024  2.3984  0.3136
  177DOPC   C2521639   4.796   6.080   5.547 -0.0938  0.6287  0.7182
  177DOPC   H5R21640   4.895   6.030   5.544 -0.7773 -0.8452 -3.4002
  177DOPC   H5S21641   4.724   5.999   5.524 -1.1085  1.2802  1.5273
  177DOPC   C2621642   4.783   6.132   5.690 -0.6125  0.7659  0.1445
  177DOPC   H6R21643   4.681   6.174   5.700 -1.1378 -0.3187 -0.4082
  177DOPC   H6S21644   4.866   6.203   5.711  0.4793  0.3270 -2.3269
  177DOPC   C2721645   4.797   6.015   5.785 -0.3855  0.0825 -0.4525
  177DOPC   H7R21646   4.898   5.968   5.780  0.8732  2.6803 -1.3119
  177DOPC   H7S21647   4.720   5.939   5.761 -0.3952 -1.1971  3.0144
  177DOPC   C2821648   4.758   6.051   5.934  0.2261 -0.0544  0.3229
  177DOPC   H8R21649   4.655   6.091   5.933  0.5808  0.8948  0.4112
  177DOPC   H8S21650   4.825   6.121   5.989  0.7192 -0.1495 -0.1435
  177DOPC   C2921651   4.761   5.920   6.016 -0.4181 -0.9175  0.6891
  177DOPC   H9R21652   4.758   5.828   5.956 -1.4185  0.1413 -0.9935
  177DOPC  C21021653   4.786   5.917   6.143  0.5381  0.0935 -0.3684
  177DOPC  H10R21654   4.783   5.815   6.183 -0.0049  0.1998 -0.1298
  177DOPC  C21121655   4.790   6.030   6.248 -0.2031 -0.0727 -0.4494
  177DOPC  H11R21656   4.848   6.120   6.219 -3.1391  1.6500 -1.3975
  177DOPC  H11S21657   4.824   5.989   6.346 -1.2743 -0.1173 -0.0826
  177DOPC  C21221658   4.651   6.103   6.263 -0.0765  0.4220 -0.0459
  177DOPC  H12R21659   4.578   6.024   6.290  1.5411 -0.5266  1.7853
  177DOPC  H12S21660   4.636   6.151   6.164 -1.1009  0.7879  0.2701
  177DOPC  C21321661   4.646   6.215   6.364 -0.8825  0.3965  0.4529
  177DOPC  H13R21662   4.733   6.283   6.352 -0.7628  0.0430 -0.8023
  177DOPC  H13S21663   4.644   6.160   6.461 -0.3970 -0.0574  0.2127
  177DOPC  C21421664   4.525   6.310   6.342  0.4499  0.1353  0.7753
  177DOPC  H14R21665   4.435   6.244   6.341 -0.5649  1.4664 -0.0743
  177DOPC  H14S21666   4.529   6.363   6.245 -0.1444 -1.9666 -0.4656
  177DOPC  C21521667   4.526   6.413   6.448  0.4467 -0.4281 -0.4492
  177DOPC  H15R21668   4.620   6.471   6.446  0.1300  0.1488  0.4783
  177DOPC  H15S21669   4.518   6.359   6.545 -0.2740  0.3225 -0.0845
  177DOPC  C21621670   4.401   6.502   6.433 -0.2455  1.2995  0.2342
  177DOPC  H16R21671   4.305   6.451   6.457 -0.3946  0.8493 -1.1982
  177DOPC  H16S21672   4.390   6.538   6.328  1.7709  2.0063  0.2093
  177DOPC  C21721673   4.426   6.637   6.504  0.0599 -0.1569 -0.8832
  177DOPC  H17R21674   4.358   6.718   6.472 -1.6878 -1.2113  0.0113
  177DOPC  H17S21675   4.526   6.678   6.481  0.2425  1.6084  2.4398
  177DOPC  C21821676   4.400   6.622   6.658 -0.5895  0.1448 -0.0935
  177DOPC  H18R21677   4.304   6.576   6.688 -0.2345  0.5671  1.7891
  177DOPC  H18S21678   4.399   6.723   6.702  4.0815  0.1289  0.5738
  177DOPC  H18T21679   4.480   6.563   6.708  0.4529 -0.2028 -2.0572
  177DOPC   C3321680   4.817   5.665   5.218  0.3778  0.0319  0.3450
  177DOPC   H3X21681   4.871   5.760   5.239  0.0357  0.4022 -0.4287
  177DOPC   H3Y21682   4.898   5.593   5.192 -0.7571 -1.0967 -0.1380
  177DOPC   C3421683   4.730   5.628   5.342  0.2426  0.7909  0.2446
  177DOPC   H4X21684   4.675   5.535   5.315  1.1287  0.6460 -1.1600
  177DOPC   H4Y21685   4.656   5.709   5.361 -1.3161 -0.1327 -1.5328
  177DOPC   C3521686   4.816   5.615   5.469  0.3649 -0.1067 -1.0368
  177DOPC   H5X21687   4.841   5.722   5.484 -1.4576  0.1020  1.1723
  177DOPC   H5Y21688   4.894   5.536   5.465 -1.1211 -1.7069 -0.0199
  177DOPC   C3621689   4.725   5.583   5.594 -0.4454  0.1941 -0.6524
  177DOPC   H6X21690   4.622   5.624   5.586 -0.5690  0.0187 -0.0151
  177DOPC   H6Y21691   4.696   5.477   5.607 -1.8163  0.6379  0.1442
  177DOPC   C3721692   4.775   5.640   5.725  0.1217  0.6313 -0.0462
  177DOPC   H7X21693   4.781   5.750   5.717 -0.5477  0.9596  2.9341
  177DOPC   H7Y21694   4.698   5.616   5.802 -0.9025  1.6376 -0.7427
  177DOPC   C3821695   4.913   5.592   5.761 -0.2653 -0.0256 -0.4344
  177DOPC   H8X21696   4.976   5.609   5.671  0.6102 -1.4130 -0.1245
  177DOPC   H8Y21697   4.919   5.481   5.768  1.8114  0.1606  2.0005
  177DOPC   C3921698   4.979   5.651   5.884 -0.1199 -0.5603  0.1885
  177DOPC   H9X21699   4.974   5.761   5.894 -1.0173 -0.5696 -0.0512
  177DOPC  C31021700   5.025   5.583   5.991 -0.8889  0.0360  0.1859
  177DOPC  H10X21701   5.073   5.634   6.076 -0.6010 -1.6407  1.0747
  177DOPC  C31121702   5.043   5.434   6.008  0.1511  0.6865 -0.1467
  177DOPC  H11X21703   5.145   5.401   5.978  0.5618 -0.5741  2.3597
  177DOPC  H11Y21704   4.978   5.364   5.950  0.9244 -1.7910  1.7849
  177DOPC  C31221705   5.033   5.391   6.152  0.0519  0.3340 -0.6587
  177DOPC  H12X21706   5.025   5.281   6.167  0.0346  0.4008 -0.1766
  177DOPC  H12Y21707   4.939   5.426   6.200  0.6487  0.7902  0.1768
  177DOPC  C31321708   5.157   5.424   6.238 -0.5378  0.3380 -0.4533
  177DOPC  H13X21709   5.246   5.374   6.193 -1.5010 -2.3472  0.4044
  177DOPC  H13Y21710   5.180   5.532   6.251 -1.9280  0.9231 -2.4204
  177DOPC  C31421711   5.137   5.359   6.376 -0.5697  0.3044 -0.3394
  177DOPC  H14X21712   5.034   5.376   6.414 -0.2969  0.5886  0.2918
  177DOPC  H14Y21713   5.154   5.250   6.360 -2.5143 -0.3021  1.3326
  177DOPC  C31521714   5.240   5.406   6.477  0.3348  0.6692 -0.4087
  177DOPC  H15X21715   5.226   5.508   6.519  4.7446  0.8446  1.0887
  177DOPC  H15Y21716   5.337   5.419   6.424  0.0595  2.4715 -0.5361
  177DOPC  C31621717   5.276   5.305   6.589  0.6112 -0.6764  0.1918
  177DOPC  H16X21718   5.211   5.329   6.676 -0.9315 -0.9116 -0.8471
  177DOPC  H16Y21719   5.252   5.204   6.550  3.5923 -1.0004 -1.0938
  177DOPC  C31721720   5.429   5.303   6.619  0.2130  0.2108  0.3709
  177DOPC  H17X21721   5.492   5.260   6.538  0.6353  0.0214  0.7964
  177DOPC  H17Y21722   5.469   5.404   6.643  1.2271  0.3456 -1.6416
  177DOPC  C31821723   5.466   5.212   6.742 -0.1919 -0.3492  1.0291
  177DOPC  H18X21724   5.415   5.241   6.836  0.3050 -0.8887  1.4662
  177DOPC  H18Y21725   5.462   5.108   6.705  0.8388  0.0560 -0.3421
  177DOPC  H18Z21726   5.574   5.234   6.757 -0.1846 -0.3157  0.9275
  178DOPC     N21727   3.960   7.631   4.548 -0.5715 -0.2332  0.0055
  178DOPC   C1221728   3.930   7.570   4.682 -0.4696 -0.0126  0.8996
  178DOPC  H12A21729   3.994   7.600   4.764 -1.2220 -0.6751  1.7516
  178DOPC  H12B21730   3.953   7.465   4.670  0.3688  0.1635  0.9346
  178DOPC   C1321731   4.106   7.613   4.519  0.1827 -0.6281 -0.3296
  178DOPC  H13A21732   4.160   7.665   4.597  0.3967  1.3601 -1.7266
  178DOPC  H13B21733   4.126   7.507   4.520  0.3937 -0.5873  0.3889
  178DOPC  H13C21734   4.141   7.672   4.435  4.3656  0.6715  2.0212
  178DOPC   C1421735   3.931   7.777   4.547 -0.0473  0.6358 -0.2176
  178DOPC  H14A21736   3.987   7.833   4.621  1.5816 -1.2017  0.0438
  178DOPC  H14B21737   3.968   7.809   4.450 -1.5295 -0.0738 -1.0429
  178DOPC  H14C21738   3.825   7.792   4.551  0.2106  2.9193  4.1989
  178DOPC   C1521739   3.878   7.559   4.439 -0.7179 -0.0541 -0.7835
  178DOPC  H15A21740   3.771   7.572   4.435 -0.7310 -0.3216 -1.8136
  178DOPC  H15B21741   3.903   7.453   4.441 -0.2799  0.0386  2.0118
  178DOPC  H15C21742   3.911   7.598   4.343  1.3639 -0.2867 -0.2168
  178DOPC   C1121743   3.782   7.589   4.740  0.1680 -0.0292  0.5810
  178DOPC  H11A21744   3.712   7.559   4.658  1.1211  0.1691 -0.3233
  178DOPC  H11B21745   3.761   7.526   4.829  2.8001 -1.1171  0.5282
  178DOPC     P21746   3.837   7.767   4.916 -0.2890  0.0716  0.1172
  178DOPC   O1321747   3.824   7.913   4.936  0.1451 -0.1257  0.0971
  178DOPC   O1421748   3.973   7.709   4.920  0.4161  0.1526 -0.6251
  178DOPC   O1221749   3.765   7.724   4.780 -0.0361 -0.1355 -0.2086
  178DOPC   O1121750   3.739   7.683   5.015 -0.2179  0.0170 -0.2611
  178DOPC    C121751   3.638   7.747   5.089  0.2108  0.0115  0.7446
  178DOPC    HA21752   3.543   7.756   5.033  1.1977  1.4940 -0.7837
  178DOPC    HB21753   3.668   7.846   5.130 -1.2588  0.0544  1.7759
  178DOPC    C221754   3.608   7.668   5.224  0.2233  0.1031  0.6568
  178DOPC    HS21755   3.537   7.733   5.281 -2.4438 -0.7597 -1.4678
  178DOPC   O2121756   3.725   7.639   5.288 -0.5465 -0.4997  0.5559
  178DOPC   C2121757   3.780   7.753   5.336 -0.2935  0.7066 -0.7037
  178DOPC   O2221758   3.729   7.863   5.357  0.6276  0.1284  0.1661
  178DOPC   C2221759   3.927   7.723   5.371  0.2301 -0.0201  0.6605
  178DOPC   H2R21760   3.994   7.779   5.302 -0.0002  0.5636  0.9128
  178DOPC   H2S21761   3.936   7.613   5.360 -2.2889 -0.5851  3.1170
  178DOPC    C321762   3.526   7.538   5.203  0.1839  0.0790  0.3641
  178DOPC    HX21763   3.574   7.477   5.124 -0.5223 -2.5124  1.8259
  178DOPC    HY21764   3.429   7.568   5.159  0.1808 -0.8026 -0.2437
  178DOPC   O3121765   3.505   7.450   5.316 -0.0725 -0.0382  0.3127
  178DOPC   C3121766   3.602   7.377   5.351 -0.1501  1.1402 -0.0836
  178DOPC   O3221767   3.711   7.370   5.296 -0.7089 -0.0660 -0.1181
  178DOPC   C3221768   3.559   7.303   5.477  0.2460 -0.1717 -0.5972
  178DOPC   H2X21769   3.506   7.365   5.553  0.0750 -0.6595 -0.3146
  178DOPC   H2Y21770   3.491   7.219   5.451 -1.9885  0.4997  2.4906
  178DOPC   C2321771   3.962   7.768   5.511 -0.2543 -0.7520 -0.5553
  178DOPC   H3R21772   3.914   7.866   5.529 -0.2190 -0.8545  0.1027
  178DOPC   H3S21773   4.070   7.784   5.531 -0.5097 -0.7398  0.9275
  178DOPC   C2421774   3.915   7.680   5.620  0.2324 -0.3082 -0.2304
  178DOPC   H4R21775   3.975   7.588   5.607  0.1916 -0.2357 -0.9732
  178DOPC   H4S21776   3.808   7.652   5.610  0.3212 -0.6649 -0.1771
  178DOPC   C2521777   3.919   7.760   5.757  0.7309 -0.3558 -0.2977
  178DOPC   H5R21778   3.837   7.833   5.773  0.1170 -1.3925  1.6570
  178DOPC   H5S21779   4.018   7.809   5.761  0.1012  0.8695  2.5716
  178DOPC   C2621780   3.901   7.659   5.870  0.4239 -0.1594 -0.0407
  178DOPC   H6R21781   3.990   7.592   5.873  0.1324 -0.5285  0.5943
  178DOPC   H6S21782   3.815   7.595   5.840  1.5545 -1.3010 -0.9573
  178DOPC   C2721783   3.884   7.713   6.015  0.7716 -0.1000  0.1301
  178DOPC   H7R21784   3.793   7.776   6.011  1.0851  0.3669  0.3452
  178DOPC   H7S21785   3.966   7.784   6.035  0.5346  0.4258 -0.7373
  178DOPC   C2821786   3.900   7.605   6.123  1.0983 -0.5026 -0.1577
  178DOPC   H8R21787   3.834   7.515   6.120 -1.8909  1.5102  0.5077
  178DOPC   H8S21788   3.855   7.637   6.219 -1.4538 -4.4750  0.2030
  178DOPC   C2921789   4.038   7.556   6.159  0.0428  0.2138  0.3541
  178DOPC   H9R21790   4.071   7.460   6.116  1.9266  1.5360 -1.3321
  178DOPC  C21021791   4.124   7.620   6.241 -0.1638  0.0795 -0.0789
  178DOPC  H10R21792   4.223   7.576   6.259 -0.0514 -0.4048 -1.7072
  178DOPC  C21121793   4.118   7.756   6.306  0.5061 -0.3323  0.4062
  178DOPC  H11R21794   4.104   7.744   6.415  1.9603  0.8245  0.7444
  178DOPC  H11S21795   4.022   7.801   6.271 -0.1883 -1.4810  0.7730
  178DOPC  C21221796   4.231   7.848   6.273 -0.6771  0.1848 -0.5914
  178DOPC  H12R21797   4.313   7.827   6.344 -1.1928 -3.1499 -0.8099
  178DOPC  H12S21798   4.207   7.956   6.287  1.3493  0.6955 -0.7659
  178DOPC  C21321799   4.284   7.837   6.132  0.2992  0.0040 -0.2525
  178DOPC  H13R21800   4.201   7.833   6.058  0.8734  0.2427 -0.9214
  178DOPC  H13S21801   4.344   7.744   6.122 -0.8917 -0.8121 -0.1499
  178DOPC  C21421802   4.372   7.956   6.102  0.0310 -0.1262  0.0488
  178DOPC  H14R21803   4.443   7.957   6.186 -0.7952 -1.5140  0.8087
  178DOPC  H14S21804   4.308   8.046   6.113  1.3638  0.9246 -0.6182
  178DOPC  C21521805   4.460   7.968   5.965 -0.0475  0.5386  0.1180
  178DOPC  H15R21806   4.535   7.887   5.950 -0.0599  1.0184 -3.5058
  178DOPC  H15S21807   4.516   8.063   5.956 -0.8760  0.8941 -1.6518
  178DOPC  C21621808   4.370   7.956   5.834  0.2434  0.2365 -0.0325
  178DOPC  H16R21809   4.319   7.858   5.832  2.5679 -1.0468 -0.0397
  178DOPC  H16S21810   4.446   7.942   5.754 -0.1626  0.8912 -0.5428
  178DOPC  C21721811   4.288   8.077   5.807  0.5661 -0.0556 -0.4617
  178DOPC  H17R21812   4.352   8.168   5.796 -0.5248  0.8789  0.6703
  178DOPC  H17S21813   4.213   8.090   5.887  1.5087  0.6614  0.3384
  178DOPC  C21821814   4.208   8.059   5.674 -0.0086 -0.1489  0.4589
  178DOPC  H18R21815   4.133   8.140   5.663  0.3353  0.1580  0.3423
  178DOPC  H18S21816   4.170   7.957   5.654  1.9662 -0.6014 -1.3973
  178DOPC  H18T21817   4.283   8.078   5.594  0.4033 -1.9835  0.3717
  178DOPC   C3321818   3.660   7.213   5.550 -0.3289 -0.0664 -0.7709
  178DOPC   H3X21819   3.728   7.161   5.479  1.9128  0.8754  0.5591
  178DOPC   H3Y21820   3.614   7.129   5.607  1.3636 -0.4252  0.1608
  178DOPC   C3421821   3.735   7.287   5.659  0.0716  0.3393  0.1353
  178DOPC   H4X21822   3.666   7.320   5.740 -0.6444 -1.2896  0.2346
  178DOPC   H4Y21823   3.796   7.373   5.625  1.7579 -0.5069  0.8646
  178DOPC   C3521824   3.832   7.197   5.733  0.0117 -0.6882  0.1275
  178DOPC   H5X21825   3.910   7.175   5.658 -2.0542  1.9076 -3.0952
  178DOPC   H5Y21826   3.787   7.101   5.766 -1.8235 -0.0821 -0.4791
  178DOPC   C3621827   3.888   7.258   5.859  0.0162 -0.4964  0.5241
  178DOPC   H6X21828   3.921   7.362   5.841 -0.9035 -0.1137  0.9913
  178DOPC   H6Y21829   3.807   7.262   5.935 -1.1933 -1.0417 -0.6961
  178DOPC   C3721830   4.012   7.189   5.921  1.0543 -0.1425 -0.3958
  178DOPC   H7X21831   4.045   7.108   5.853  0.2511 -0.5529 -0.3132
  178DOPC   H7Y21832   4.099   7.258   5.916  1.7305 -1.0095 -0.7323
  178DOPC   C3821833   3.977   7.124   6.063  0.0909  0.1742 -0.4941
  178DOPC   H8X21834   4.051   7.044   6.084 -1.6122 -2.4258 -3.4867
  178DOPC   H8Y21835   3.889   7.059   6.044  0.5728 -0.5385 -0.3137
  178DOPC   C3921836   3.956   7.218   6.184  0.8562 -0.6046 -0.4531
  178DOPC   H9X21837   3.867   7.281   6.168  0.7402  0.0971  2.4162
  178DOPC  C31021838   4.036   7.232   6.287 -0.3686 -0.2753  0.3261
  178DOPC  H10X21839   4.018   7.323   6.347  0.4058 -0.1985  0.4407
  178DOPC  C31121840   4.173   7.170   6.294 -0.4420 -0.4224  0.1985
  178DOPC  H11X21841   4.207   7.133   6.195  0.5782 -1.2578  0.8398
  178DOPC  H11Y21842   4.160   7.077   6.353 -0.2621 -0.7281 -0.2357
  178DOPC  C31221843   4.272   7.269   6.334  0.2172 -0.0812 -0.0201
  178DOPC  H12X21844   4.262   7.358   6.269 -1.5460 -0.1858  0.0524
  178DOPC  H12Y21845   4.377   7.237   6.320 -0.4078 -3.1645  1.4330
  178DOPC  C31321846   4.264   7.326   6.478  0.2302 -0.2287 -0.6667
  178DOPC  H13X21847   4.163   7.372   6.486  0.6596  0.8945 -1.4426
  178DOPC  H13Y21848   4.265   7.247   6.556  2.8804 -1.2290 -1.6082
  178DOPC  C31421849   4.363   7.438   6.491  0.2055 -0.7149 -0.3805
  178DOPC  H14X21850   4.465   7.394   6.499  0.6915  0.3307 -0.5618
  178DOPC  H14Y21851   4.355   7.494   6.395 -1.0234 -0.0692  0.0787
  178DOPC  C31521852   4.323   7.534   6.608 -0.2797 -0.1812 -0.2411
  178DOPC  H15X21853   4.258   7.489   6.686  0.5007 -1.0763 -0.0876
  178DOPC  H15Y21854   4.252   7.600   6.554 -1.1128 -2.3054 -1.9203
  178DOPC  C31621855   4.445   7.606   6.665 -0.7970 -0.0613  0.2568
  178DOPC  H16X21856   4.411   7.658   6.757 -1.1018  3.6471 -1.7604
  178DOPC  H16Y21857   4.517   7.525   6.692 -1.8840 -1.4671 -0.8853
  178DOPC  C31721858   4.523   7.696   6.567 -0.1120 -0.2459 -0.2830
  178DOPC  H17X21859   4.569   7.632   6.488 -0.4843  0.6042 -1.2068
  178DOPC  H17Y21860   4.450   7.769   6.527  0.4103  1.3673  1.5453
  178DOPC  C31821861   4.632   7.778   6.643 -0.2436 -0.2767 -0.4067
  178DOPC  H18X21862   4.693   7.703   6.698  0.5189  0.9029  0.3801
  178DOPC  H18Y21863   4.701   7.829   6.572 -1.7813  0.1584 -1.6551
  178DOPC  H18Z21864   4.590   7.837   6.727  0.1617 -0.6403  0.0544
  179DOPC     N21865   5.238   5.151   4.660  0.3939 -0.6485 -0.5316
  179DOPC   C1221866   5.309   5.028   4.595 -0.3241 -0.6000 -0.4669
  179DOPC  H12A21867   5.240   4.985   4.524 -0.8127  1.3793 -1.2607
  179DOPC  H12B21868   5.315   4.947   4.666 -1.3399 -0.6872 -0.4661
  179DOPC   C1321869   5.122   5.109   4.748 -0.4111 -0.5506  0.8481
  179DOPC  H13A21870   5.064   5.037   4.693  0.6009 -0.7535  0.0168
  179DOPC  H13B21871   5.152   5.070   4.844 -1.7123 -0.6654  1.2203
  179DOPC  H13C21872   5.061   5.196   4.765 -0.1274  0.7520 -3.5109
  179DOPC   C1421873   5.190   5.243   4.559 -0.3738  0.3821  0.3713
  179DOPC  H14A21874   5.259   5.238   4.476  0.7837 -1.5078  1.3728
  179DOPC  H14B21875   5.096   5.205   4.520  0.2841  0.0669 -0.9753
  179DOPC  H14C21876   5.182   5.346   4.592 -2.5230 -0.4119  2.6731
  179DOPC   C1521877   5.340   5.217   4.755 -0.3985 -0.2986  0.3753
  179DOPC  H15A21878   5.298   5.305   4.802  0.9301  0.6225 -0.0829
  179DOPC  H15B21879   5.423   5.244   4.691 -0.1811 -1.0570  0.3354
  179DOPC  H15C21880   5.384   5.143   4.819 -1.9521 -1.5139  0.0919
  179DOPC   C1121881   5.453   5.058   4.542  0.6740  0.4253 -0.1055
  179DOPC  H11A21882   5.522   5.078   4.627  3.5668 -2.5514 -1.4745
  179DOPC  H11B21883   5.500   4.972   4.489 -1.0543 -1.2071  0.9018
  179DOPC     P21884   5.565   5.285   4.459 -0.2025 -0.2940  0.0174
  179DOPC   O1321885   5.548   5.359   4.334  0.1346  0.1975  0.2328
  179DOPC   O1421886   5.694   5.214   4.485  0.2172  0.0663 -0.3888
  179DOPC   O1221887   5.457   5.176   4.461  0.4492  0.3036  0.1855
  179DOPC   O1121888   5.526   5.369   4.588  0.2669  0.7229 -0.3801
  179DOPC    C121889   5.624   5.445   4.663 -0.4743  0.4165  0.1889
  179DOPC    HA21890   5.654   5.535   4.605 -1.8165  2.4214  2.4046
  179DOPC    HB21891   5.715   5.382   4.674 -0.6775 -0.1867 -1.3870
  179DOPC    C221892   5.580   5.503   4.799  0.6424  0.1306 -0.7285
  179DOPC    HS21893   5.671   5.558   4.831  1.1063 -1.7110  1.4647
  179DOPC   O2121894   5.552   5.392   4.887 -0.0506 -0.8071  0.2060
  179DOPC   C2121895   5.596   5.401   5.014  0.3847 -0.5120 -0.7847
  179DOPC   O2221896   5.648   5.497   5.063 -0.1927 -0.2212  0.3504
  179DOPC   C2221897   5.556   5.278   5.089  0.4470  0.3167  0.3661
  179DOPC   H2R21898   5.628   5.202   5.052 -2.4563 -1.6728 -1.5695
  179DOPC   H2S21899   5.451   5.251   5.065 -0.5450 -0.1601  4.4724
  179DOPC    C321900   5.456   5.599   4.780 -0.2222  0.4172  0.3619
  179DOPC    HX21901   5.360   5.552   4.750 -1.1283  1.5384  1.3835
  179DOPC    HY21902   5.486   5.667   4.698 -1.0072 -0.8341 -1.0027
  179DOPC   O3121903   5.435   5.678   4.896  0.6703 -0.5387  0.3088
  179DOPC   C3121904   5.353   5.628   5.000 -0.0096 -0.2538  0.2652
  179DOPC   O3221905   5.284   5.528   4.985  0.6664 -0.4326  0.0867
  179DOPC   C3221906   5.352   5.718   5.118 -0.2739 -0.8433  0.4485
  179DOPC   H2X21907   5.454   5.731   5.160  0.7829  0.9202 -2.3859
  179DOPC   H2Y21908   5.313   5.812   5.074 -2.3714 -1.5774  0.6462
  179DOPC   C2321909   5.581   5.285   5.243  0.7477  0.6186  0.5255
  179DOPC   H3R21910   5.502   5.353   5.281 -0.1487  0.5153 -1.0686
  179DOPC   H3S21911   5.680   5.334   5.254  0.8721  0.4565  0.1566
  179DOPC   C2421912   5.574   5.150   5.321  0.5594  0.2575  0.0727
  179DOPC   H4R21913   5.482   5.094   5.295 -0.0130 -0.5791  3.3468
  179DOPC   H4S21914   5.581   5.182   5.428  1.5126 -0.6948  0.3195
  179DOPC   C2521915   5.687   5.055   5.280 -0.7319 -0.4789 -0.0470
  179DOPC   H5R21916   5.721   5.074   5.176  0.6710  2.4649  0.8344
  179DOPC   H5S21917   5.650   4.951   5.293 -0.0321 -1.0453 -2.2172
  179DOPC   C2621918   5.813   5.073   5.374 -0.2612 -0.1831 -0.1322
  179DOPC   H6R21919   5.784   5.084   5.481  0.4192  0.4549 -0.0061
  179DOPC   H6S21920   5.860   5.171   5.352 -1.3672  0.4603  0.2993
  179DOPC   C2721921   5.904   4.951   5.367  0.2033  0.5529  0.9072
  179DOPC   H7R21922   6.010   4.980   5.384  0.8259 -1.5536  0.8748
  179DOPC   H7S21923   5.888   4.898   5.270  0.0800  0.8431  0.7673
  179DOPC   C2821924   5.873   4.849   5.483 -0.1115  0.2724 -0.2216
  179DOPC   H8R21925   5.763   4.836   5.477  0.0105 -1.9436  1.4007
  179DOPC   H8S21926   5.888   4.895   5.583 -0.0154 -0.4980  0.1208
  179DOPC   C2921927   5.956   4.718   5.458  0.0479  0.3172 -0.0620
  179DOPC   H9R21928   6.063   4.729   5.478  0.4138 -2.0225 -0.4623
  179DOPC  C21021929   5.905   4.594   5.431 -0.3723 -0.0794 -0.0421
  179DOPC  H10R21930   5.981   4.517   5.410  1.6091  1.6272  0.4775
  179DOPC  C21121931   5.757   4.553   5.412  0.2591 -0.3015  0.0798
  179DOPC  H11R21932   5.737   4.536   5.305 -0.6840 -1.9263  0.4860
  179DOPC  H11S21933   5.680   4.628   5.442 -1.5692 -1.6490 -1.0959
  179DOPC  C21221934   5.715   4.421   5.473  0.2386  0.2560 -0.2814
  179DOPC  H12R21935   5.795   4.346   5.452  1.3805  1.7518 -1.4288
  179DOPC  H12S21936   5.623   4.375   5.431  1.2015 -0.3770 -1.7879
  179DOPC  C21321937   5.688   4.436   5.623  1.1115 -0.2364  0.2296
  179DOPC  H13R21938   5.779   4.491   5.654  0.8392  1.2589 -1.4251
  179DOPC  H13S21939   5.681   4.333   5.665 -2.2769 -0.3894 -0.4626
  179DOPC  C21421940   5.577   4.533   5.676 -0.9434  0.6504 -0.1560
  179DOPC  H14R21941   5.478   4.505   5.634 -1.1812  0.0938  0.7477
  179DOPC  H14S21942   5.587   4.641   5.650 -2.5945  1.3560  1.8363
  179DOPC  C21521943   5.568   4.536   5.831  0.5092  0.3886  0.5049
  179DOPC  H15R21944   5.523   4.439   5.861 -0.3438  0.2976 -0.9587
  179DOPC  H15S21945   5.491   4.606   5.871  4.2195  3.7667  2.3733
  179DOPC  C21621946   5.701   4.553   5.911  0.0152  0.3766 -0.6276
  179DOPC  H16R21947   5.774   4.471   5.895  0.0361  0.0080  1.1513
  179DOPC  H16S21948   5.688   4.555   6.022  0.8054  1.3458 -0.5318
  179DOPC  C21721949   5.771   4.683   5.878 -0.6644 -0.9243  0.3206
  179DOPC  H17R21950   5.779   4.690   5.768 -0.8083 -2.6134  0.1882
  179DOPC  H17S21951   5.870   4.672   5.927 -0.4431  0.6983  0.3161
  179DOPC  C21821952   5.700   4.808   5.943 -0.7140 -0.2138  0.7248
  179DOPC  H18R21953   5.699   4.794   6.053  2.5768  0.5121  0.9511
  179DOPC  H18S21954   5.597   4.822   5.902 -0.2890  0.8888 -0.0332
  179DOPC  H18T21955   5.755   4.904   5.927  0.9753 -0.6977  3.0757
  179DOPC   C3321956   5.251   5.676   5.234  0.8862 -0.7081  0.0578
  179DOPC   H3X21957   5.147   5.688   5.197  0.0103 -0.7924  2.3035
  179DOPC   H3Y21958   5.246   5.755   5.312  0.5439  2.0129 -2.5681
  179DOPC   C3421959   5.287   5.547   5.303  0.7235 -0.1357 -0.1298
  179DOPC   H4X21960   5.389   5.554   5.345  0.2499 -2.1678  1.5840
  179DOPC   H4Y21961   5.273   5.457   5.239 -3.3160 -0.9019  1.5115
  179DOPC   C3521962   5.187   5.519   5.414  0.0544 -0.0064 -0.4512
  179DOPC   H5X21963   5.085   5.537   5.374 -0.3017 -0.4662  0.2298
  179DOPC   H5Y21964   5.186   5.582   5.506 -1.1906 -0.7068  0.0460
  179DOPC   C3621965   5.182   5.368   5.478  0.3866 -0.3967  0.2585
  179DOPC   H6X21966   5.101   5.361   5.553 -0.8061 -0.3369 -0.9916
  179DOPC   H6Y21967   5.160   5.296   5.396 -0.8060  0.6711 -0.3893
  179DOPC   C3721968   5.306   5.327   5.564 -0.1843  0.2242  0.0479
  179DOPC   H7X21969   5.398   5.310   5.504 -0.5581  0.0853 -0.5013
  179DOPC   H7Y21970   5.338   5.411   5.630  0.0291  1.1785 -1.2245
  179DOPC   C3821971   5.279   5.199   5.649 -0.2178 -0.0012  0.3352
  179DOPC   H8X21972   5.201   5.220   5.725  1.4267  3.5754  1.2253
  179DOPC   H8Y21973   5.375   5.181   5.701 -0.3524 -2.3485 -0.0870
  179DOPC   C3921974   5.227   5.079   5.573  0.1338 -0.0679  0.1518
  179DOPC   H9X21975   5.170   5.101   5.482  0.3335 -1.7242 -0.4010
  179DOPC  C31021976   5.247   4.949   5.589  0.1980 -0.0469  0.4005
  179DOPC  H10X21977   5.183   4.884   5.528 -0.4642  1.3986 -0.5177
  179DOPC  C31121978   5.315   4.869   5.701 -0.3320  0.1546 -0.4057
  179DOPC  H11X21979   5.366   4.932   5.776  0.9118 -0.8775 -0.3395
  179DOPC  H11Y21980   5.394   4.801   5.661  0.1217  0.0222  0.6704
  179DOPC  C31221981   5.219   4.778   5.775 -0.1833  0.0387 -0.5028
  179DOPC  H12X21982   5.288   4.711   5.829 -1.1524 -0.9469 -0.4557
  179DOPC  H12Y21983   5.159   4.721   5.700 -1.2580 -0.6911  0.8806
  179DOPC  C31321984   5.137   4.842   5.890 -0.1150 -0.4305 -0.4680
  179DOPC  H13X21985   5.215   4.893   5.951 -1.6143  1.2895  0.0808
  179DOPC  H13Y21986   5.062   4.915   5.853 -1.7658 -0.4128  2.6037
  179DOPC  C31421987   5.083   4.736   5.981  0.2115 -0.7080 -0.1327
  179DOPC  H14X21988   5.034   4.660   5.916 -0.7807  0.1372 -0.4057
  179DOPC  H14Y21989   5.152   4.668   6.036 -0.6912 -2.1510 -0.7458
  179DOPC  C31521990   4.965   4.776   6.074 -0.0067  0.0918 -0.1280
  179DOPC  H15X21991   4.933   4.685   6.129 -0.9561 -0.7844 -2.0446
  179DOPC  H15Y21992   4.887   4.817   6.007 -0.2408  1.1786  0.7742
  179DOPC  C31621993   5.004   4.884   6.177 -0.1008 -0.1572 -0.5047
  179DOPC  H16X21994   5.077   4.837   6.247 -2.1095  0.1264  1.9304
  179DOPC  H16Y21995   5.051   4.968   6.121 -0.0403 -0.0157 -0.2414
  179DOPC  C31721996   4.883   4.926   6.260  0.9916  0.1644 -0.7563
  179DOPC  H17X21997   4.835   4.832   6.298  1.0315 -0.0285 -1.1798
  179DOPC  H17Y21998   4.909   4.988   6.348  0.3024 -1.7311  0.8672
  179DOPC  C31821999   4.778   4.992   6.174 -0.2260  0.1298  0.2607
  179DOPC  H18X22000   4.707   5.055   6.231  0.5037  0.0383  1.2917
  179DOPC  H18Y22001   4.819   5.059   6.096  0.4334 -1.2784 -0.6398
  179DOPC  H18Z22002   4.722   4.912   6.120  0.1678  0.4210 -0.6083
  180DOPC     N22003   6.772   4.666   4.823  0.7802  0.2861 -0.2795
  180DOPC   C1222004   6.742   4.525   4.871 -0.4089 -0.0524  0.3853
  180DOPC  H12A22005   6.753   4.457   4.787  2.1179 -1.1152  1.4738
  180DOPC  H12B22006   6.636   4.519   4.890 -0.5326 -1.6020 -0.5846
  180DOPC   C1322007   6.714   4.679   4.687 -0.3243 -0.2419  0.1751
  180DOPC  H13A22008   6.606   4.680   4.688 -0.3594  1.2296  2.7164
  180DOPC  H13B22009   6.746   4.774   4.648 -0.8853  0.7125  1.9334
  180DOPC  H13C22010   6.744   4.598   4.621  1.7924 -0.5746  1.4860
  180DOPC   C1422011   6.922   4.697   4.813 -0.1734 -0.3266 -0.4662
  180DOPC  H14A22012   6.978   4.647   4.891  0.2846  0.7791 -0.0490
  180DOPC  H14B22013   6.964   4.652   4.724  1.9001 -1.6933  1.0888
  180DOPC  H14C22014   6.945   4.803   4.819 -1.3355 -0.0122 -1.2875
  180DOPC   C1522015   6.711   4.767   4.910 -0.4449  0.0994 -1.0911
  180DOPC  H15A22016   6.754   4.863   4.885  0.1283  0.2726  0.4611
  180DOPC  H15B22017   6.744   4.744   5.011 -0.4257  2.6736 -0.4349
  180DOPC  H15C22018   6.603   4.759   4.906 -0.4889  0.9518 -2.0497
  180DOPC   C1122019   6.824   4.468   4.986  0.4746 -0.6569 -0.5836
  180DOPC  H11A22020   6.806   4.543   5.066 -0.4425 -0.2136 -1.1895
  180DOPC  H11B22021   6.779   4.377   5.029 -0.0713 -0.4301 -0.6653
  180DOPC     P22022   7.076   4.437   5.072  0.3731 -0.0432  0.5246
  180DOPC   O1322023   7.071   4.569   5.144 -0.3720 -0.0638 -0.4989
  180DOPC   O1422024   7.199   4.386   5.016 -0.2506  0.4691 -0.5530
  180DOPC   O1222025   6.966   4.444   4.951 -0.3443 -0.0553 -0.0355
  180DOPC   O1122026   7.010   4.331   5.168  0.0755  0.3412  0.2323
  180DOPC    C122027   6.985   4.197   5.116 -0.1195  0.2536 -0.0591
  180DOPC    HA22028   7.080   4.152   5.080 -0.4423 -1.1848  0.7939
  180DOPC    HB22029   6.921   4.201   5.026  0.1448  1.6496 -0.2107
  180DOPC    C222030   6.912   4.098   5.217  0.9423  0.1596 -0.3169
  180DOPC    HS22031   6.803   4.122   5.223  0.4619 -2.1789  4.0408
  180DOPC   O2122032   6.969   4.119   5.349 -0.1496 -0.1187 -0.4943
  180DOPC   C2122033   6.890   4.120   5.452  0.8551  0.1141 -0.2377
  180DOPC   O2222034   6.767   4.109   5.449 -0.0250  0.3156 -0.3404
  180DOPC   C2222035   6.969   4.138   5.578  0.5128 -0.1651 -0.2543
  180DOPC   H2R22036   7.006   4.243   5.573  0.0234  0.0300  0.0764
  180DOPC   H2S22037   7.046   4.058   5.581 -2.4907 -3.2870  0.0264
  180DOPC    C322038   6.916   3.951   5.169 -0.2806 -0.0210 -0.0094
  180DOPC    HX22039   7.024   3.931   5.152  0.0914  1.0065  1.0178
  180DOPC    HY22040   6.857   3.944   5.074 -0.0987  0.6001 -0.1706
  180DOPC   O3122041   6.862   3.852   5.265  0.2800 -0.2435  0.0967
  180DOPC   C3122042   6.733   3.824   5.253  0.1038  0.1582  0.4255
  180DOPC   O3222043   6.651   3.886   5.182 -0.0681  0.3119 -0.4458
  180DOPC   C3222044   6.704   3.721   5.368 -0.4283 -0.3139 -0.0147
  180DOPC   H2X22045   6.611   3.668   5.337 -0.0461 -1.4823  0.7559
  180DOPC   H2Y22046   6.795   3.658   5.368  0.1081  0.4520 -0.1938
  180DOPC   C2322047   6.901   4.125   5.719 -0.6904  0.4439  0.3003
  180DOPC   H3R22048   6.882   4.019   5.745 -0.5058  0.1265 -0.8198
  180DOPC   H3S22049   6.801   4.174   5.713 -1.0698 -0.1991  1.1409
  180DOPC   C2422050   6.972   4.177   5.846  0.3980  0.0122  0.0750
  180DOPC   H4R22051   6.979   4.288   5.837 -2.3087  0.6200  3.3381
  180DOPC   H4S22052   7.075   4.136   5.858 -0.6774 -3.1170 -0.5469
  180DOPC   C2522053   6.883   4.151   5.974 -0.7969 -0.7862  0.3033
  180DOPC   H5R22054   6.877   4.041   5.977  1.8600 -1.0074 -0.4525
  180DOPC   H5S22055   6.782   4.194   5.953 -1.3602 -1.0802  2.2228
  180DOPC   C2622056   6.941   4.201   6.102  0.0545 -0.2584  0.1520
  180DOPC   H6R22057   6.951   4.312   6.096  2.8366 -0.1711  3.5508
  180DOPC   H6S22058   7.044   4.164   6.086  0.1479 -0.7830  1.8001
  180DOPC   C2722059   6.869   4.156   6.222  0.7387  0.9785  0.6644
  180DOPC   H7R22060   6.838   4.049   6.222  0.6783  0.9280 -2.2329
  180DOPC   H7S22061   6.774   4.210   6.237 -0.2995 -0.8815  1.1829
  180DOPC   C2822062   6.950   4.165   6.349  0.5599  0.1255  0.6799
  180DOPC   H8R22063   7.039   4.100   6.337  1.9653  2.0509  0.0678
  180DOPC   H8S22064   6.888   4.120   6.430 -0.9424 -1.7926 -1.4264
  180DOPC   C2922065   6.990   4.310   6.381  0.6591 -0.1303 -0.6803
  180DOPC   H9R22066   7.062   4.359   6.313  1.8350 -0.7617  0.0901
  180DOPC  C21022067   6.957   4.379   6.495 -0.8243  0.3969 -0.0479
  180DOPC  H10R22068   6.985   4.486   6.498 -0.6966  0.4918 -2.5209
  180DOPC  C21122069   6.871   4.334   6.614  0.2409  0.4758 -0.2679
  180DOPC  H11R22070   6.893   4.388   6.709 -1.4181 -1.1062  1.0933
  180DOPC  H11S22071   6.900   4.230   6.643 -2.5328 -0.0249  0.9869
  180DOPC  C21222072   6.717   4.337   6.588 -0.1268  0.1239  0.3878
  180DOPC  H12R22073   6.697   4.262   6.508  0.9017 -0.6229  0.8120
  180DOPC  H12S22074   6.672   4.433   6.556 -1.5876 -0.1351  1.5102
  180DOPC  C21322075   6.635   4.303   6.717  0.0698  1.1605  0.3400
  180DOPC  H13R22076   6.653   4.387   6.788 -1.0438  1.6605  0.0512
  180DOPC  H13S22077   6.667   4.204   6.756  1.1568  0.4688 -2.0999
  180DOPC  C21422078   6.492   4.291   6.677  1.1266  0.8582 -0.3344
  180DOPC  H14R22079   6.474   4.192   6.628  1.1489  1.2240 -1.0967
  180DOPC  H14S22080   6.469   4.379   6.614  1.6265  1.1780 -0.0766
  180DOPC  C21522081   6.399   4.284   6.800  0.3513 -0.1744 -0.5756
  180DOPC  H15R22082   6.294   4.277   6.765  0.2204 -0.9987 -0.0455
  180DOPC  H15S22083   6.397   4.379   6.856  1.8903 -1.3278  1.5878
  180DOPC  C21622084   6.417   4.171   6.890  0.1031  0.2535 -0.0247
  180DOPC  H16R22085   6.522   4.171   6.927  1.3024 -4.7550 -2.4813
  180DOPC  H16S22086   6.412   4.081   6.824 -0.5864 -1.9667  2.8728
  180DOPC  C21722087   6.316   4.157   7.011  0.0794  0.1670 -0.1216
  180DOPC  H17R22088   6.213   4.183   6.979 -0.2316  1.2848  1.6722
  180DOPC  H17S22089   6.350   4.230   7.087 -0.6567 -0.3274  0.6966
  180DOPC  C21822090   6.317   4.020   7.081 -0.4330 -1.0918 -0.5276
  180DOPC  H18R22091   6.217   3.981   7.112 -0.6678  0.6818  1.1715
  180DOPC  H18S22092   6.395   4.009   7.159  1.8414 -2.8359 -2.8902
  180DOPC  H18T22093   6.351   3.955   6.998  0.8869  0.8681 -1.6015
  180DOPC   C3322094   6.672   3.764   5.511 -0.0400  0.0553 -0.0047
  180DOPC   H3X22095   6.757   3.826   5.545  1.3283 -2.3419  1.1508
  180DOPC   H3Y22096   6.673   3.670   5.569 -0.2190 -0.3066 -0.5714
  180DOPC   C3422097   6.530   3.818   5.506  0.0014 -0.2494  0.4264
  180DOPC   H4X22098   6.460   3.746   5.458  1.4578 -0.4498 -1.5502
  180DOPC   H4Y22099   6.532   3.903   5.435 -0.7997 -0.0213  0.6676
  180DOPC   C3522100   6.478   3.867   5.642  0.6168  0.2123  0.3947
  180DOPC   H5X22101   6.462   3.774   5.700  2.0135 -1.0947 -1.2243
  180DOPC   H5Y22102   6.380   3.919   5.635  1.3294  1.7737  1.3811
  180DOPC   C3622103   6.568   3.969   5.715 -0.0351 -0.4532  0.1905
  180DOPC   H6X22104   6.654   3.919   5.763 -0.9608 -0.8184  1.5291
  180DOPC   H6Y22105   6.601   4.037   5.633  1.2980 -0.6719  0.5232
  180DOPC   C3722106   6.502   4.055   5.817  0.3166 -0.4927 -0.6079
  180DOPC   H7X22107   6.577   4.125   5.858  0.2857  0.3953 -1.9904
  180DOPC   H7Y22108   6.433   4.122   5.761  0.1253  0.7625  1.0669
  180DOPC   C3822109   6.423   3.971   5.922 -0.0061  0.1945  0.5790
  180DOPC   H8X22110   6.494   3.942   6.003  0.2318 -1.4986 -0.1877
  180DOPC   H8Y22111   6.400   3.866   5.893  0.7178 -0.4875  2.2952
  180DOPC   C3922112   6.295   4.026   5.972  0.4437 -0.0005 -0.2100
  180DOPC   H9X22113   6.217   4.014   5.895  0.5707 -0.4989 -0.2601
  180DOPC  C31022114   6.278   4.092   6.083  1.0047 -0.0530  0.3979
  180DOPC  H10X22115   6.177   4.127   6.109 -0.2666 -1.4320 -2.2433
  180DOPC  C31122116   6.389   4.126   6.181 -0.6085 -0.2215 -0.0582
  180DOPC  H11X22117   6.485   4.073   6.165 -0.7152 -0.0261 -1.4690
  180DOPC  H11Y22118   6.355   4.096   6.282 -0.5176  0.1018  0.0674
  180DOPC  C31222119   6.434   4.271   6.198 -0.1620  1.6503  0.2522
  180DOPC  H12X22120   6.469   4.302   6.097  2.0266  0.0069  0.4571
  180DOPC  H12Y22121   6.522   4.278   6.265  0.9207 -0.7970 -0.7815
  180DOPC  C31322122   6.338   4.373   6.259 -0.3321 -0.1405  0.2471
  180DOPC  H13X22123   6.254   4.378   6.186  0.4826  1.8133 -0.6442
  180DOPC  H13Y22124   6.293   4.340   6.354 -0.2295 -4.5827 -1.0236
  180DOPC  C31422125   6.404   4.508   6.280 -0.5522  0.3252 -1.1233
  180DOPC  H14X22126   6.461   4.512   6.375 -1.1656  2.4731 -0.8120
  180DOPC  H14Y22127   6.488   4.534   6.212  0.1316  0.7386 -0.1388
  180DOPC  C31522128   6.313   4.620   6.252  0.0534 -0.5745 -0.1055
  180DOPC  H15X22129   6.228   4.620   6.322  0.8248 -2.4681  0.8863
  180DOPC  H15Y22130   6.264   4.612   6.152  0.1760  0.0552 -0.2252
  180DOPC  C31622131   6.374   4.757   6.271  0.0631  0.0709  0.2404
  180DOPC  H16X22132   6.466   4.758   6.208  1.0654 -0.4275  1.6577
  180DOPC  H16Y22133   6.312   4.842   6.234 -1.5407 -1.5163 -0.8892
  180DOPC  C31722134   6.415   4.785   6.412 -0.5518  0.6810 -0.6483
  180DOPC  H17X22135   6.317   4.806   6.461 -0.7130  0.5469 -0.9086
  180DOPC  H17Y22136   6.449   4.688   6.451 -1.2436  0.5952 -0.2368
  180DOPC  C31822137   6.523   4.901   6.410 -0.1862  0.8630 -0.8837
  180DOPC  H18X22138   6.615   4.870   6.357 -0.5699  0.3625 -1.2661
  180DOPC  H18Y22139   6.476   4.988   6.358 -0.8898  1.4605  0.6950
  180DOPC  H18Z22140   6.556   4.920   6.514 -1.8890 -1.3159  0.1301
  181DOPC     N22141   1.098   4.131   4.333  0.5294  0.1845 -0.1230
  181DOPC   C1222142   0.960   4.076   4.378  0.4914  0.4285  0.0029
  181DOPC  H12A22143   0.960   4.101   4.483  2.3840 -0.5036  0.2704
  181DOPC  H12B22144   0.963   3.968   4.382  1.9971  0.4788  1.6726
  181DOPC   C1322145   1.115   4.079   4.193  0.3917 -0.2481 -0.3918
  181DOPC  H13A22146   1.040   4.121   4.128 -1.2622 -0.1523  1.4774
  181DOPC  H13B22147   1.216   4.098   4.159  1.8173  1.0141  3.8711
  181DOPC  H13C22148   1.099   3.972   4.194  1.9478 -0.5154 -1.0987
  181DOPC   C1422149   1.208   4.073   4.425  0.5164  0.2986  0.7546
  181DOPC  H14A22150   1.204   3.967   4.404  0.0356  0.1392  1.5872
  181DOPC  H14B22151   1.309   4.103   4.401 -0.4602  2.7543 -0.7644
  181DOPC  H14C22152   1.178   4.087   4.528 -1.7443 -0.3238  0.2401
  181DOPC   C1522153   1.108   4.279   4.332  0.1513 -0.2041  0.6932
  181DOPC  H15A22154   1.017   4.325   4.297  0.8952  0.4246 -0.5042
  181DOPC  H15B22155   1.189   4.320   4.272 -2.6487  2.9296 -1.2868
  181DOPC  H15C22156   1.133   4.313   4.432  0.7341  0.4589  0.3370
  181DOPC   C1122157   0.826   4.129   4.310  0.3355  0.5753 -0.0961
  181DOPC  H11A22158   0.834   4.095   4.205 -2.1271  0.3546 -0.2732
  181DOPC  H11B22159   0.741   4.065   4.345  0.5144  0.3404 -0.0853
  181DOPC     P22160   0.710   4.318   4.452 -0.2261  0.4036 -0.1086
  181DOPC   O1322161   0.570   4.287   4.406 -0.0915  0.1092 -0.4271
  181DOPC   O1422162   0.741   4.458   4.488 -0.5488  0.3389  0.6931
  181DOPC   O1222163   0.811   4.264   4.338 -0.6986  0.0527 -0.2289
  181DOPC   O1122164   0.752   4.234   4.576 -0.1251 -0.3136 -0.3789
  181DOPC    C122165   0.871   4.271   4.647 -0.9771 -0.5699  1.1006
  181DOPC    HA22166   0.883   4.380   4.662  1.0798 -0.6911  0.6082
  181DOPC    HB22167   0.964   4.248   4.591 -0.5136 -1.1707  2.1038
  181DOPC    C222168   0.897   4.193   4.779 -0.2415 -0.4276  0.1561
  181DOPC    HS22169   0.865   4.090   4.755 -2.2738 -0.4696  2.6781
  181DOPC   O2122170   0.819   4.265   4.874 -0.2906  0.9069  0.3182
  181DOPC   C2122171   0.782   4.189   4.975  0.3202 -0.3577 -0.0303
  181DOPC   O2222172   0.814   4.072   4.992  0.2444 -0.1275  0.0634
  181DOPC   C2222173   0.710   4.268   5.081  0.3462  0.7283  0.0534
  181DOPC   H2R22174   0.747   4.223   5.176  3.4929  2.1565 -0.3732
  181DOPC   H2S22175   0.603   4.237   5.077  1.0872 -2.3358  0.7860
  181DOPC    C322176   1.052   4.202   4.824  0.5512  0.1018 -0.4047
  181DOPC    HX22177   1.104   4.135   4.752  0.5485  0.3413 -0.6309
  181DOPC    HY22178   1.054   4.154   4.925  0.1638  0.1285 -0.3842
  181DOPC   O3122179   1.104   4.342   4.836  0.3860 -0.0865  0.3474
  181DOPC   C3122180   1.185   4.377   4.740  0.3731 -0.1253 -0.1682
  181DOPC   O3222181   1.217   4.304   4.648  0.0375  0.0593 -0.2504
  181DOPC   C3222182   1.240   4.511   4.773  0.0142  0.4698 -0.2001
  181DOPC   H2X22183   1.350   4.493   4.768  0.1820  1.6084 -0.9758
  181DOPC   H2Y22184   1.211   4.587   4.698 -2.0422 -1.4054 -1.3958
  181DOPC   C2322185   0.737   4.417   5.081  0.0679 -0.0268 -0.2254
  181DOPC   H3R22186   0.692   4.450   4.985 -0.2348  0.9249  0.2331
  181DOPC   H3S22187   0.847   4.428   5.074  0.0105  0.8193  0.0358
  181DOPC   C2422188   0.662   4.493   5.201  0.2412 -0.0659 -0.2777
  181DOPC   H4R22189   0.553   4.472   5.203 -0.0125  1.1974  1.6489
  181DOPC   H4S22190   0.682   4.602   5.191 -0.6063  0.1853  0.6998
  181DOPC   C2522191   0.727   4.434   5.328 -0.5312  0.0140  0.2087
  181DOPC   H5R22192   0.831   4.425   5.290 -0.0561 -0.4628  1.5462
  181DOPC   H5S22193   0.695   4.330   5.350 -0.4851 -0.2189 -0.7624
  181DOPC   C2622194   0.730   4.523   5.451 -0.0610  0.0588  0.0278
  181DOPC   H6R22195   0.624   4.552   5.469 -0.8315 -1.7773 -1.3037
  181DOPC   H6S22196   0.780   4.620   5.428  0.6067 -0.2299  0.2413
  181DOPC   C2722197   0.783   4.462   5.581 -0.4188 -0.3490 -0.8649
  181DOPC   H7R22198   0.877   4.406   5.563 -0.3869 -0.9299  0.8437
  181DOPC   H7S22199   0.708   4.390   5.622 -1.6219  2.1912  1.7514
  181DOPC   C2822200   0.795   4.570   5.688 -0.0466  0.0028 -0.3628
  181DOPC   H8R22201   0.701   4.630   5.682 -1.1680 -1.6272  0.1264
  181DOPC   H8S22202   0.879   4.632   5.650  0.1684 -0.7325 -1.1210
  181DOPC   C2922203   0.814   4.510   5.828 -0.4565 -0.5582  0.8893
  181DOPC   H9R22204   0.917   4.484   5.857 -0.8386 -2.5358  0.6060
  181DOPC  C21022205   0.723   4.491   5.921  0.1316  0.0046  0.3610
  181DOPC  H10R22206   0.757   4.456   6.019  1.9952  0.3107 -0.1421
  181DOPC  C21122207   0.570   4.500   5.906  0.1009 -0.0176 -0.0751
  181DOPC  H11R22208   0.539   4.452   5.811  0.5826 -2.7129  1.0548
  181DOPC  H11S22209   0.547   4.608   5.919  0.2983 -0.0363  0.4411
  181DOPC  C21222210   0.495   4.427   6.026  0.3980  0.1811  0.5150
  181DOPC  H12R22211   0.521   4.319   6.022 -2.8612 -0.7347  1.2197
  181DOPC  H12S22212   0.387   4.426   6.001  0.3173 -0.2940  0.8846
  181DOPC  C21322213   0.520   4.491   6.162 -1.2533  0.2344  0.3735
  181DOPC  H13R22214   0.613   4.552   6.153 -2.8900  2.8518  0.0349
  181DOPC  H13S22215   0.534   4.411   6.238  1.3880 -0.5188 -0.7940
  181DOPC  C21422216   0.406   4.576   6.214 -0.7013  0.0563  0.3510
  181DOPC  H14R22217   0.312   4.518   6.219 -0.2380 -0.7773 -0.3475
  181DOPC  H14S22218   0.391   4.657   6.139 -3.4076 -1.7193 -1.1837
  181DOPC  C21522219   0.421   4.636   6.353  0.0613 -0.1207 -0.1631
  181DOPC  H15R22220   0.368   4.733   6.354  1.1103  0.6394 -3.7170
  181DOPC  H15S22221   0.525   4.659   6.383 -0.0153  0.2286 -0.1608
  181DOPC  C21622222   0.370   4.535   6.463 -0.0780  0.4139  0.3980
  181DOPC  H16R22223   0.436   4.539   6.552 -0.2616 -1.3776  0.6367
  181DOPC  H16S22224   0.379   4.435   6.416  0.8020  1.1835 -1.1881
  181DOPC  C21722225   0.230   4.559   6.515  0.0741  0.2659 -0.0760
  181DOPC  H17R22226   0.148   4.499   6.469  0.9184 -2.4945  1.7777
  181DOPC  H17S22227   0.207   4.668   6.508 -0.7166  0.0391 -1.4440
  181DOPC  C21822228   0.210   4.524   6.658 -0.6061 -0.5917  0.4048
  181DOPC  H18R22229   0.108   4.532   6.702  0.1922  3.4811  1.8917
  181DOPC  H18S22230   0.285   4.585   6.711  0.6721 -2.4040  0.7770
  181DOPC  H18T22231   0.244   4.419   6.674 -0.5035 -0.6060  0.0978
  181DOPC   C3322232   1.220   4.559   4.915 -0.0014  0.0171 -0.0391
  181DOPC   H3X22233   1.302   4.625   4.947 -1.1456  1.1898  0.5526
  181DOPC   H3Y22234   1.226   4.478   4.991 -0.0994 -0.3237 -0.3889
  181DOPC   C3422235   1.081   4.627   4.947 -0.3198 -0.7801  0.4520
  181DOPC   H4X22236   0.996   4.556   4.946 -3.0248  2.1991 -0.5746
  181DOPC   H4Y22237   1.059   4.701   4.866  1.5012 -0.1589  0.4817
  181DOPC   C3522238   1.078   4.713   5.080  0.2040 -0.3377 -0.0608
  181DOPC   H5X22239   0.977   4.753   5.103  0.9006  0.1993  2.2597
  181DOPC   H5Y22240   1.142   4.801   5.059 -1.5614  1.2008  0.7312
  181DOPC   C3622241   1.104   4.625   5.202  0.2062  0.0710 -0.1270
  181DOPC   H6X22242   1.022   4.550   5.199 -1.3424  1.7022  0.2934
  181DOPC   H6Y22243   1.200   4.568   5.198 -0.2074 -0.6250 -0.3280
  181DOPC   C3722244   1.092   4.694   5.342 -0.1946  0.0524  0.4580
  181DOPC   H7X22245   1.171   4.772   5.351  1.0452 -1.0879 -0.2132
  181DOPC   H7Y22246   0.990   4.735   5.352 -1.2940 -2.8892  3.1320
  181DOPC   C3822247   1.098   4.580   5.450  0.1808 -0.2269  0.3423
  181DOPC   H8X22248   1.042   4.491   5.413 -0.9881 -0.1315  1.8143
  181DOPC   H8Y22249   1.031   4.618   5.530 -1.2918 -0.3233 -0.7957
  181DOPC   C3922250   1.233   4.539   5.507 -0.4275  0.2606 -0.0029
  181DOPC   H9X22251   1.293   4.485   5.433 -0.2349  0.3808  0.0643
  181DOPC  C31022252   1.284   4.581   5.625  0.1547  0.1197  0.1791
  181DOPC  H10X22253   1.380   4.537   5.656  0.3236 -0.8234 -1.5538
  181DOPC  C31122254   1.220   4.662   5.733 -0.8009 -0.1364  0.3604
  181DOPC  H11X22255   1.118   4.690   5.700  0.5838  2.7787 -1.8689
  181DOPC  H11Y22256   1.274   4.758   5.742  0.7622 -1.0099  0.7387
  181DOPC  C31222257   1.220   4.602   5.871  0.1923 -0.0396  0.4296
  181DOPC  H12X22258   1.316   4.556   5.902  0.1980  0.1242  0.6575
  181DOPC  H12Y22259   1.146   4.519   5.878  1.9900 -1.8113 -0.5017
  181DOPC  C31322260   1.169   4.713   5.963  0.2127  0.4695  0.5000
  181DOPC  H13X22261   1.207   4.809   5.921  0.9841 -0.7234 -1.6699
  181DOPC  H13Y22262   1.058   4.708   5.963  0.2299 -0.4977  1.9984
  181DOPC  C31422263   1.214   4.711   6.109  0.2234  0.4056 -0.8251
  181DOPC  H14X22264   1.163   4.626   6.160  2.4114 -0.0536  0.7621
  181DOPC  H14Y22265   1.322   4.685   6.115  0.2371  0.5403 -0.4654
  181DOPC  C31522266   1.201   4.846   6.179  0.4991 -0.2915 -0.1539
  181DOPC  H15X22267   1.102   4.865   6.225  0.4491  3.0024 -1.3561
  181DOPC  H15Y22268   1.202   4.935   6.113 -2.0306  1.8291  2.4169
  181DOPC  C31622269   1.293   4.858   6.298 -0.0117 -0.4275 -0.6616
  181DOPC  H16X22270   1.377   4.926   6.273  0.1084  0.4619  1.9254
  181DOPC  H16Y22271   1.229   4.912   6.371 -1.2871  2.9332 -3.9159
  181DOPC  C31722272   1.347   4.743   6.379  0.1515  0.6186 -0.1296
  181DOPC  H17X22273   1.402   4.679   6.306 -2.0806 -1.5920 -0.0064
  181DOPC  H17Y22274   1.432   4.779   6.440 -1.3848  2.4109  1.0354
  181DOPC  C31822275   1.243   4.663   6.454  0.3074 -0.2413 -0.2504
  181DOPC  H18X22276   1.292   4.570   6.490  1.1424  0.4533  0.4709
  181DOPC  H18Y22277   1.196   4.715   6.540  0.9102 -1.4577  0.8398
  181DOPC  H18Z22278   1.156   4.632   6.392 -0.2853 -2.8696  1.7502
  182DOPC     N22279   3.334   1.664   4.460 -0.2423 -0.6431 -0.0175
  182DOPC   C1222280   3.413   1.801   4.454 -0.2897 -0.7369  0.5495
  182DOPC  H12A22281   3.347   1.880   4.422 -0.3496 -1.2134 -0.5517
  182DOPC  H12B22282   3.487   1.788   4.377  0.1782 -0.4070  0.9424
  182DOPC   C1322283   3.252   1.644   4.342  0.3109 -0.8218  0.4375
  182DOPC  H13A22284   3.309   1.620   4.254  0.6350  0.4199  0.2820
  182DOPC  H13B22285   3.188   1.558   4.355  1.0548 -1.6494 -1.1315
  182DOPC  H13C22286   3.196   1.735   4.324  1.1312 -0.2983  0.4896
  182DOPC   C1422287   3.240   1.670   4.579  0.3092 -0.0663  0.1548
  182DOPC  H14A22288   3.165   1.746   4.561  2.3612  1.8433 -0.8527
  182DOPC  H14B22289   3.182   1.581   4.599  0.6743  0.0901  2.1332
  182DOPC  H14C22290   3.290   1.699   4.670  0.0958  1.3644 -0.1557
  182DOPC   C1522291   3.434   1.558   4.484  0.1965  0.0727 -0.3584
  182DOPC  H15A22292   3.519   1.580   4.547 -0.9152 -0.3788  1.3681
  182DOPC  H15B22293   3.475   1.531   4.388  0.8725 -0.9278  0.1905
  182DOPC  H15C22294   3.383   1.469   4.520  0.9036  0.5791  2.0668
  182DOPC   C1122295   3.483   1.853   4.587  0.4059 -0.4061  0.4328
  182DOPC  H11A22296   3.541   1.774   4.639 -0.3416  0.3477  2.5167
  182DOPC  H11B22297   3.552   1.935   4.557  0.8892 -0.4084  1.5259
  182DOPC     P22298   3.338   2.055   4.668  0.2155 -0.4688 -0.2059
  182DOPC   O1322299   3.259   2.093   4.785  1.1217  0.0412  0.2445
  182DOPC   O1422300   3.264   2.068   4.540 -0.2527 -0.0880  0.0605
  182DOPC   O1222301   3.387   1.910   4.680 -0.5981  0.5792  0.5533
  182DOPC   O1122302   3.466   2.149   4.653 -0.4568  0.3590 -0.1409
  182DOPC    C122303   3.568   2.127   4.755 -0.6906  0.0730  0.3742
  182DOPC    HA22304   3.666   2.143   4.705 -0.0496  0.9711  1.8475
  182DOPC    HB22305   3.574   2.022   4.792  2.0714 -0.5722 -1.5927
  182DOPC    C222306   3.560   2.229   4.873  0.9989 -1.0319  0.0500
  182DOPC    HS22307   3.658   2.217   4.924  1.0595 -0.7200  0.0084
  182DOPC   O2122308   3.449   2.209   4.961  0.2632 -0.4779 -0.3259
  182DOPC   C2122309   3.451   2.099   5.026 -0.6084  0.0886 -0.0903
  182DOPC   O2222310   3.530   2.002   5.009  0.7027  0.2847 -0.1635
  182DOPC   C2222311   3.320   2.092   5.104 -0.4027 -0.1095 -0.0933
  182DOPC   H2R22312   3.282   1.990   5.083 -1.5415  0.7953 -2.8870
  182DOPC   H2S22313   3.247   2.160   5.056 -0.4534  0.4031  0.6964
  182DOPC    C322314   3.561   2.374   4.809  0.3542 -0.5425  0.2795
  182DOPC    HX22315   3.463   2.384   4.758  0.6064 -0.0383 -0.1243
  182DOPC    HY22316   3.650   2.378   4.742 -1.2845 -0.1571 -1.9998
  182DOPC   O3122317   3.584   2.472   4.915  0.7035 -0.0295 -0.5284
  182DOPC   C3122318   3.620   2.589   4.884 -0.0546 -0.2270  0.1228
  182DOPC   O3222319   3.646   2.620   4.768  0.7995 -0.3280  0.1307
  182DOPC   C3222320   3.632   2.681   5.007 -0.1587 -0.0762  0.1350
  182DOPC   H2X22321   3.638   2.789   4.980  0.2019  0.7358  3.1651
  182DOPC   H2Y22322   3.548   2.667   5.078  0.9438  3.5815  2.4285
  182DOPC   C2322323   3.326   2.131   5.256  0.4586 -0.2197  0.5918
  182DOPC   H3R22324   3.409   2.070   5.297  1.6604  2.0030  1.6274
  182DOPC   H3S22325   3.229   2.118   5.308  0.2806 -0.4017  0.2145
  182DOPC   C2422326   3.356   2.283   5.273  0.2170 -0.4905 -0.0054
  182DOPC   H4R22327   3.448   2.306   5.214 -1.7903 -0.0634 -3.2719
  182DOPC   H4S22328   3.378   2.312   5.378  0.9090 -2.2186  0.3533
  182DOPC   C2522329   3.240   2.374   5.217 -0.4549  0.2010 -0.9443
  182DOPC   H5R22330   3.141   2.351   5.262 -0.8813  1.1969 -1.3363
  182DOPC   H5S22331   3.236   2.349   5.109  3.0076 -2.3619 -0.6529
  182DOPC   C2622332   3.265   2.522   5.241  0.3135 -0.4253  0.1936
  182DOPC   H6R22333   3.175   2.586   5.232  1.7256  2.2701  3.0921
  182DOPC   H6S22334   3.346   2.559   5.174  0.9652  0.3279  1.3534
  182DOPC   C2722335   3.325   2.561   5.380 -0.3838  0.0736  0.4479
  182DOPC   H7R22336   3.425   2.513   5.395 -0.0065  1.0115  1.0118
  182DOPC   H7S22337   3.265   2.529   5.468  0.2331 -0.7475  0.5894
  182DOPC   C2822338   3.329   2.709   5.394 -0.0668 -0.0403 -0.1173
  182DOPC   H8R22339   3.341   2.743   5.499 -0.1598 -1.9663  0.5564
  182DOPC   H8S22340   3.231   2.759   5.374 -0.0474  0.8745  1.8690
  182DOPC   C2922341   3.433   2.781   5.312 -0.6624 -0.1308  0.1238
  182DOPC   H9R22342   3.414   2.783   5.204  1.1317  1.3279 -0.2230
  182DOPC  C21022343   3.540   2.839   5.355 -0.8646 -0.5166 -0.5216
  182DOPC  H10R22344   3.616   2.881   5.287 -0.4381 -0.3795  0.0320
  182DOPC  C21122345   3.589   2.865   5.497  0.0212  0.5775 -0.2068
  182DOPC  H11R22346   3.675   2.795   5.504  1.5567  2.5340  2.2219
  182DOPC  H11S22347   3.509   2.839   5.569  0.3645 -0.0344 -0.0359
  182DOPC  C21222348   3.644   3.009   5.515  0.0899  0.3902  0.1097
  182DOPC  H12R22349   3.699   3.031   5.421 -2.3328  1.9347 -1.0351
  182DOPC  H12S22350   3.715   3.002   5.600 -0.5077 -0.6671  0.5537
  182DOPC  C21322351   3.533   3.111   5.552 -0.3452 -0.1300 -0.9007
  182DOPC  H13R22352   3.480   3.132   5.457  0.4312  1.0731 -1.0938
  182DOPC  H13S22353   3.582   3.209   5.569 -1.5191  0.0336  2.3274
  182DOPC  C21422354   3.433   3.095   5.671 -0.5014 -0.8465 -0.0307
  182DOPC  H14R22355   3.353   3.020   5.652 -0.1611 -1.3107  0.3306
  182DOPC  H14S22356   3.385   3.195   5.679  0.8019 -0.1541 -0.5052
  182DOPC  C21522357   3.510   3.067   5.799 -0.0999 -0.7059 -0.2139
  182DOPC  H15R22358   3.582   3.145   5.831 -0.9672 -1.1734  3.2834
  182DOPC  H15S22359   3.580   2.982   5.782  1.1752  0.3540 -0.4180
  182DOPC  C21622360   3.416   3.053   5.919  0.2671 -0.2921  0.0944
  182DOPC  H16R22361   3.337   2.985   5.881  0.1136 -0.2365  0.3102
  182DOPC  H16S22362   3.364   3.148   5.946 -0.1989 -0.5480  0.1058
  182DOPC  C21722363   3.472   2.983   6.039 -0.5434 -0.2818  1.1077
  182DOPC  H17R22364   3.510   2.890   5.992  0.9544  1.1270 -0.6313
  182DOPC  H17S22365   3.401   2.943   6.115  1.6783 -0.2547  3.3643
  182DOPC  C21822366   3.572   3.073   6.114  0.4765 -0.1000  0.2327
  182DOPC  H18R22367   3.633   3.026   6.193 -0.5948  2.2584  2.6243
  182DOPC  H18S22368   3.508   3.144   6.171  2.4311  2.0548 -0.1466
  182DOPC  H18T22369   3.650   3.127   6.056  0.9601 -1.9545 -0.9198
  182DOPC   C3322370   3.763   2.661   5.094  0.0852 -0.3378 -0.1004
  182DOPC   H3X22371   3.754   2.753   5.155 -2.9038  0.1879 -1.1342
  182DOPC   H3Y22372   3.859   2.665   5.038  0.1033  0.7795 -0.0194
  182DOPC   C3422373   3.757   2.542   5.188 -0.0112  0.1077  0.1051
  182DOPC   H4X22374   3.741   2.444   5.138 -1.3551  2.2114 -4.1024
  182DOPC   H4Y22375   3.664   2.550   5.249 -1.4730  2.1078 -2.2168
  182DOPC   C3522376   3.884   2.539   5.273 -0.2701 -0.3494 -0.3152
  182DOPC   H5X22377   3.896   2.639   5.321 -0.9173  0.0864 -1.0219
  182DOPC   H5Y22378   3.964   2.524   5.197  0.7702 -0.6135  0.8036
  182DOPC   C3622379   3.889   2.441   5.383  0.0457  0.0669  0.1136
  182DOPC   H6X22380   3.987   2.451   5.434  1.6287 -1.0746 -2.5059
  182DOPC   H6Y22381   3.805   2.472   5.449 -0.6225  1.0977 -1.1641
  182DOPC   C3722382   3.864   2.296   5.356 -0.3136  0.1431  0.2642
  182DOPC   H7X22383   3.798   2.289   5.266  1.1427  0.5130 -0.8620
  182DOPC   H7Y22384   3.962   2.256   5.323 -0.4579  0.1907 -0.2420
  182DOPC   C3822385   3.812   2.218   5.483 -0.3322  0.3642  0.2883
  182DOPC   H8X22386   3.870   2.265   5.565  3.0913  0.1168 -1.8241
  182DOPC   H8Y22387   3.839   2.111   5.465  0.3390  0.3871  1.1009
  182DOPC   C3922388   3.667   2.241   5.486 -0.4023  0.4430 -0.8000
  182DOPC   H9X22389   3.621   2.206   5.392 -1.7536  2.0808 -0.8063
  182DOPC  C31022390   3.593   2.297   5.586 -0.0453 -0.6073 -0.2890
  182DOPC  H10X22391   3.485   2.307   5.568  0.2057 -0.3233 -1.6842
  182DOPC  C31122392   3.654   2.374   5.708 -0.6186 -0.2966 -0.4857
  182DOPC  H11X22393   3.760   2.346   5.729 -1.3970 -1.9112  1.6546
  182DOPC  H11Y22394   3.587   2.345   5.792 -0.4805  0.3558 -0.1381
  182DOPC  C31222395   3.627   2.520   5.674 -0.4429 -0.4070  0.1565
  182DOPC  H12X22396   3.529   2.530   5.623 -0.3714 -0.1645  0.0658
  182DOPC  H12Y22397   3.706   2.557   5.605  1.4669 -1.7512  1.5012
  182DOPC  C31322398   3.629   2.613   5.793 -0.0169  0.0910  0.5231
  182DOPC  H13X22399   3.607   2.718   5.765  0.7758  0.0883 -0.1795
  182DOPC  H13Y22400   3.550   2.580   5.863  0.2015 -0.4474  0.5242
  182DOPC  C31422401   3.763   2.607   5.868  0.5793 -0.7746 -0.3166
  182DOPC  H14X22402   3.783   2.516   5.928 -0.4430 -0.9135 -0.1727
  182DOPC  H14Y22403   3.848   2.591   5.797  1.6421  0.0982  0.7103
  182DOPC  C31522404   3.789   2.730   5.952 -0.6828  0.0933  0.4468
  182DOPC  H15X22405   3.694   2.737   6.009 -1.9791 -2.8871 -1.1038
  182DOPC  H15Y22406   3.801   2.824   5.893  0.0343 -1.6607 -2.3898
  182DOPC  C31622407   3.907   2.722   6.050  0.3413 -0.4530 -0.1541
  182DOPC  H16X22408   3.910   2.615   6.080 -1.7787 -0.2659  0.9691
  182DOPC  H16Y22409   4.000   2.759   6.002 -0.8993  0.5472 -1.8814
  182DOPC  C31722410   3.888   2.820   6.165 -0.3815 -0.3042  0.7183
  182DOPC  H17X22411   3.846   2.917   6.130 -1.1105 -1.7541 -2.8752
  182DOPC  H17Y22412   3.821   2.759   6.229  0.1929 -0.5352  1.1050
  182DOPC  C31822413   4.020   2.853   6.238  0.0560 -0.3275  0.0374
  182DOPC  H18X22414   4.081   2.764   6.263  0.2045 -0.5479 -1.0683
  182DOPC  H18Y22415   4.086   2.922   6.181  1.0440  0.1363  1.6810
  182DOPC  H18Z22416   3.997   2.915   6.328  2.3285  0.9301 -0.1691
  183DOPC     N22417   7.238   5.340   4.163  0.5900 -0.4104  0.1795
  183DOPC   C1222418   7.315   5.308   4.286 -0.6175 -0.1427 -0.2870
  183DOPC  H12A22419   7.401   5.255   4.247  0.4463  0.9814  0.4824
  183DOPC  H12B22420   7.258   5.237   4.345  0.3058  0.7121  1.7179
  183DOPC   C1322421   7.225   5.231   4.069  0.0641  0.2980 -0.7746
  183DOPC  H13A22422   7.322   5.199   4.035  0.5724  0.3434  0.5823
  183DOPC  H13B22423   7.179   5.147   4.118  1.3246 -0.4834 -0.8891
  183DOPC  H13C22424   7.156   5.253   3.988 -0.6712 -1.3445 -0.6285
  183DOPC   C1422425   7.304   5.451   4.095 -0.5407  0.4955  0.2962
  183DOPC  H14A22426   7.278   5.549   4.134 -0.2507  0.7136 -0.0522
  183DOPC  H14B22427   7.411   5.436   4.098 -0.6553 -0.1826  1.2505
  183DOPC  H14C22428   7.274   5.467   3.992  1.6029  1.9628 -0.1666
  183DOPC   C1522429   7.102   5.400   4.199 -0.3271 -0.0174 -0.3740
  183DOPC  H15A22430   7.053   5.456   4.120 -0.8220  0.4187  0.2345
  183DOPC  H15B22431   7.106   5.463   4.286  2.6889  1.5770 -1.5247
  183DOPC  H15C22432   7.032   5.322   4.225 -0.3612  0.5776  1.4303
  183DOPC   C1122433   7.375   5.421   4.376 -0.3424  0.2361 -0.1381
  183DOPC  H11A22434   7.447   5.374   4.446 -0.9561  0.1310  0.4279
  183DOPC  H11B22435   7.440   5.481   4.309  1.5475  1.4713  2.5936
  183DOPC     P22436   7.205   5.452   4.557  0.1152  0.3391 -0.0668
  183DOPC   O1322437   7.190   5.308   4.538 -0.3357 -0.1505  0.6109
  183DOPC   O1422438   7.071   5.524   4.567  0.0798 -0.3029 -0.2107
  183DOPC   O1222439   7.288   5.517   4.439 -0.3187  0.0271 -0.7728
  183DOPC   O1122440   7.300   5.477   4.690  0.5154 -0.4395  0.2947
  183DOPC    C122441   7.441   5.470   4.700 -0.5018  0.4881  0.1118
  183DOPC    HA22442   7.490   5.557   4.652  0.5924 -0.2145 -0.0743
  183DOPC    HB22443   7.464   5.370   4.657  2.9797  1.5104 -0.7306
  183DOPC    C222444   7.508   5.481   4.845 -0.1418  0.7461 -0.2193
  183DOPC    HS22445   7.618   5.467   4.845 -0.3542 -1.3696  1.1062
  183DOPC   O2122446   7.456   5.377   4.932  0.2734  0.6289 -0.1460
  183DOPC   C2122447   7.505   5.255   4.913  0.3962 -0.0150 -0.2215
  183DOPC   O2222448   7.592   5.215   4.836  0.2347  0.0297  0.1244
  183DOPC   C2222449   7.431   5.151   5.008  0.1795 -0.3723  0.0156
  183DOPC   H2R22450   7.356   5.097   4.945 -1.2509 -0.9961  2.1417
  183DOPC   H2S22451   7.375   5.208   5.085 -1.6417  1.5845 -2.5564
  183DOPC    C322452   7.490   5.622   4.911  0.6582 -0.0809 -0.2739
  183DOPC    HX22453   7.382   5.647   4.913  0.4661 -0.8918  0.0923
  183DOPC    HY22454   7.534   5.697   4.842  0.1876  0.6856  0.2534
  183DOPC   O3122455   7.550   5.639   5.044  0.1936 -0.6723 -0.4770
  183DOPC   C3122456   7.663   5.705   5.055 -0.3052  0.5182  0.8858
  183DOPC   O3222457   7.733   5.744   4.960  0.3531 -0.5097 -0.1607
  183DOPC   C3222458   7.695   5.730   5.199  0.8400  0.6659 -0.0313
  183DOPC   H2X22459   7.603   5.774   5.244  0.2015 -0.5482 -0.0812
  183DOPC   H2Y22460   7.702   5.632   5.252 -1.8490 -0.0176 -0.7803
  183DOPC   C2322461   7.518   5.045   5.090  0.4499 -0.4434  0.3879
  183DOPC   H3R22462   7.600   5.009   5.025  0.1536 -0.9560  0.2848
  183DOPC   H3S22463   7.454   4.957   5.113 -1.2402 -0.1221 -2.6568
  183DOPC   C2422464   7.561   5.084   5.229 -0.2779 -0.1873 -0.2247
  183DOPC   H4R22465   7.473   5.100   5.294  1.7988  2.3664  2.2195
  183DOPC   H4S22466   7.595   5.190   5.226  0.5254 -0.3955  0.8343
  183DOPC   C2522467   7.672   4.997   5.295 -0.5225 -0.4210 -0.3112
  183DOPC   H5R22468   7.753   5.020   5.222 -1.2587  0.4741 -0.8657
  183DOPC   H5S22469   7.641   4.892   5.276 -1.3825 -0.4773  1.2139
  183DOPC   C2622470   7.719   5.032   5.432  0.2295  0.3866 -1.0794
  183DOPC   H6R22471   7.721   5.140   5.456 -0.6326  0.0153  0.8711
  183DOPC   H6S22472   7.823   4.992   5.435  0.3799  0.7855 -0.9421
  183DOPC   C2722473   7.632   4.955   5.539  0.0612  0.4344 -0.4221
  183DOPC   H7R22474   7.645   4.844   5.537 -2.7977  0.0036  0.6752
  183DOPC   H7S22475   7.524   4.973   5.523  0.0840  2.1581  1.0985
  183DOPC   C2822476   7.660   5.006   5.683  0.3309  0.9402 -0.0417
  183DOPC   H8R22477   7.642   5.113   5.705 -0.7183  0.3340  2.4649
  183DOPC   H8S22478   7.769   4.988   5.689  0.4917  2.2030  1.7527
  183DOPC   C2922479   7.598   4.917   5.791 -0.1775 -0.1525 -0.1557
  183DOPC   H9R22480   7.603   4.807   5.783 -0.0371 -0.1789  0.2403
  183DOPC  C21022481   7.519   4.959   5.895  0.1876 -0.1116  0.8766
  183DOPC  H10R22482   7.485   4.883   5.967 -0.2065 -1.1475 -0.3571
  183DOPC  C21122483   7.491   5.106   5.925  0.1329 -0.5202 -0.1529
  183DOPC  H11R22484   7.464   5.169   5.838 -0.9400 -0.8370 -0.0639
  183DOPC  H11S22485   7.575   5.157   5.977 -0.1110 -0.2752  0.0023
  183DOPC  C21222486   7.382   5.119   6.035 -0.5645  0.1218 -0.1695
  183DOPC  H12R22487   7.401   5.036   6.106  0.5990  0.3027 -0.2472
  183DOPC  H12S22488   7.292   5.089   5.977 -0.5283 -1.8108  0.7067
  183DOPC  C21322489   7.363   5.255   6.107 -0.7923 -0.2380  0.1237
  183DOPC  H13R22490   7.358   5.335   6.030 -3.4801  0.1825  0.6399
  183DOPC  H13S22491   7.446   5.269   6.180 -2.4625  0.4344  1.9914
  183DOPC  C21422492   7.241   5.277   6.194 -0.4112  0.3554 -0.2203
  183DOPC  H14R22493   7.232   5.192   6.265  0.4204  0.8936  0.5452
  183DOPC  H14S22494   7.148   5.285   6.134 -0.5536  1.6124  0.1484
  183DOPC  C21522495   7.231   5.410   6.278 -0.0195 -0.1190  0.0481
  183DOPC  H15R22496   7.273   5.476   6.199 -0.6934 -0.3283 -0.4902
  183DOPC  H15S22497   7.304   5.402   6.362  1.0979  2.2046 -0.6015
  183DOPC  C21622498   7.090   5.446   6.331  0.2267  0.0175 -0.6002
  183DOPC  H16R22499   7.041   5.357   6.376 -1.1717 -0.5135 -3.0097
  183DOPC  H16S22500   7.034   5.472   6.239  1.6438 -1.5541 -1.9805
  183DOPC  C21722501   7.085   5.567   6.426 -0.1726 -0.8271 -0.6263
  183DOPC  H17R22502   7.109   5.657   6.365 -1.9416 -0.1504 -0.3694
  183DOPC  H17S22503   7.158   5.557   6.510 -0.6866 -1.0265 -0.2008
  183DOPC  C21822504   6.953   5.580   6.495  0.2206  0.0865  0.1483
  183DOPC  H18R22505   6.879   5.633   6.431  2.2255  2.3471 -0.4259
  183DOPC  H18S22506   6.975   5.636   6.589 -2.9450  1.8265  0.0040
  183DOPC  H18T22507   6.910   5.481   6.523 -1.4853  0.3219 -1.4467
  183DOPC   C3322508   7.819   5.816   5.225 -0.2997  0.3214  0.4315
  183DOPC   H3X22509   7.807   5.917   5.180 -0.9723 -1.1240 -2.8930
  183DOPC   H3Y22510   7.903   5.769   5.170  0.5998  0.8481  1.3371
  183DOPC   C3422511   7.854   5.832   5.369  0.3360  0.4466  0.6543
  183DOPC   H4X22512   7.871   5.738   5.426 -0.3181  0.8376  1.5015
  183DOPC   H4Y22513   7.772   5.877   5.429  0.2932 -0.6129  1.4121
  183DOPC   C3522514   7.964   5.929   5.377  0.0842 -0.3678 -0.3724
  183DOPC   H5X22515   7.935   6.025   5.329  2.9211  1.9171  2.0906
  183DOPC   H5Y22516   8.057   5.890   5.330  0.1734  0.5856 -1.0197
  183DOPC   C3622517   7.989   5.949   5.523 -0.2222 -0.2874  0.1463
  183DOPC   H6X22518   7.905   6.002   5.574  0.3979  0.9997 -0.1481
  183DOPC   H6Y22519   8.006   5.856   5.582  0.0664 -1.1862 -1.2955
  183DOPC   C3722520   8.112   6.041   5.533 -0.1025  0.3599 -0.4368
  183DOPC   H7X22521   8.200   5.996   5.482 -0.0339  1.4426 -1.3239
  183DOPC   H7Y22522   8.077   6.132   5.479 -0.9112 -0.4719 -1.3622
  183DOPC   C3822523   8.156   6.092   5.676  0.1113 -0.0611 -0.4049
  183DOPC   H8X22524   8.076   6.156   5.719  1.2116  0.1926  1.3691
  183DOPC   H8Y22525   8.239   6.164   5.663 -0.2580  0.2951 -0.7973
  183DOPC   C3922526   8.209   5.982   5.770  0.1265  0.1326 -0.1017
  183DOPC   H9X22527   8.287   5.922   5.720 -0.2137  1.0825 -1.8406
  183DOPC  C31022528   8.167   5.941   5.896 -0.0058 -0.5839 -0.2321
  183DOPC  H10X22529   8.235   5.873   5.949 -1.8886 -1.1042  1.6593
  183DOPC  C31122530   8.060   5.982   5.989  0.5039  0.0583 -0.3879
  183DOPC  H11X22531   8.004   6.065   5.943  0.5055  0.3582  0.1453
  183DOPC  H11Y22532   8.116   6.034   6.070 -0.3585  0.8386 -0.2770
  183DOPC  C31222533   7.962   5.869   6.030 -0.0673  0.1863 -0.1433
  183DOPC  H12X22534   7.970   5.791   5.951  1.7690  0.5832 -0.4102
  183DOPC  H12Y22535   7.859   5.910   6.024 -0.7073 -1.3313 -0.0206
  183DOPC  C31322536   8.000   5.814   6.171 -0.1499  0.5649 -0.4236
  183DOPC  H13X22537   8.023   5.898   6.239 -0.7798  1.0560 -0.8006
  183DOPC  H13Y22538   7.911   5.761   6.211  0.4457 -0.2230 -0.1191
  183DOPC  C31422539   8.126   5.725   6.182 -0.1015  0.6987 -0.3834
  183DOPC  H14X22540   8.110   5.633   6.123  4.3418 -1.7151  1.6547
  183DOPC  H14Y22541   8.208   5.780   6.130  0.3743  0.1954 -0.1839
  183DOPC  C31522542   8.167   5.684   6.323  0.3681 -0.3614  0.0915
  183DOPC  H15X22543   8.077   5.656   6.383  0.3776  0.2965  0.4219
  183DOPC  H15Y22544   8.203   5.773   6.379 -0.9159 -0.3893  1.0043
  183DOPC  C31622545   8.276   5.572   6.339  0.7351 -0.2467 -0.0776
  183DOPC  H16X22546   8.239   5.474   6.300  1.5967 -0.6983  0.2261
  183DOPC  H16Y22547   8.367   5.597   6.280  0.0574 -2.1383 -2.0652
  183DOPC  C31722548   8.311   5.561   6.490  0.6108 -0.1872 -0.1278
  183DOPC  H17X22549   8.365   5.651   6.526  0.1877 -0.2234  0.6095
  183DOPC  H17Y22550   8.218   5.560   6.550  1.0685 -0.6416  0.5820
  183DOPC  C31822551   8.386   5.434   6.516  0.2494  0.2100 -0.4465
  183DOPC  H18X22552   8.491   5.443   6.480  0.3427 -3.2912 -1.4544
  183DOPC  H18Y22553   8.385   5.404   6.623  1.7970 -1.1186 -0.7662
  183DOPC  H18Z22554   8.339   5.349   6.461 -1.3500  2.5439 -2.9229
  184DOPC     N22555   5.953   1.070   3.983  0.3000  0.1651 -0.7340
  184DOPC   C1222556   6.069   1.123   4.065  0.6060 -0.6529  0.4854
  184DOPC  H12A22557   6.045   1.225   4.093 -0.1202 -1.0360  1.3228
  184DOPC  H12B22558   6.151   1.142   3.998  0.3485 -0.2606  0.2758
  184DOPC   C1322559   5.971   0.928   3.939  0.0784  0.1058 -0.2111
  184DOPC  H13A22560   6.053   0.913   3.870 -0.2647  1.3627 -0.9255
  184DOPC  H13B22561   5.980   0.864   4.026  0.2399  0.8321  0.3150
  184DOPC  H13C22562   5.882   0.905   3.884 -0.0428 -1.4893  0.5966
  184DOPC   C1422563   5.937   1.151   3.864 -0.9711  0.2358 -0.0418
  184DOPC  H14A22564   5.939   1.257   3.883 -2.6393  0.3407 -0.3121
  184DOPC  H14B22565   6.010   1.115   3.792 -0.8213 -2.2503  1.2339
  184DOPC  H14C22566   5.839   1.126   3.827  0.0149  0.6643 -3.2292
  184DOPC   C1522567   5.830   1.075   4.066 -0.0331 -0.2283 -0.5478
  184DOPC  H15A22568   5.842   1.015   4.155 -0.6006  3.5455  2.2892
  184DOPC  H15B22569   5.734   1.041   4.030 -0.0119 -2.1288  1.0386
  184DOPC  H15C22570   5.829   1.176   4.104  2.2428 -0.4705  0.3275
  184DOPC   C1122571   6.108   1.050   4.191 -0.2329  0.7230  0.2074
  184DOPC  H11A22572   6.020   0.996   4.230 -1.6038  4.1876  2.3448
  184DOPC  H11B22573   6.186   0.980   4.152  0.8748  1.5392  0.8916
  184DOPC     P22574   6.077   1.211   4.396  0.1850 -0.1374  0.1820
  184DOPC   O1322575   5.953   1.256   4.331 -0.3133  0.4143 -0.3887
  184DOPC   O1422576   6.151   1.321   4.465  0.8898  0.2716  0.5192
  184DOPC   O1222577   6.163   1.141   4.286 -0.0371  0.2477 -0.1279
  184DOPC   O1122578   6.036   1.112   4.509  0.4182  0.7016  0.5090
  184DOPC    C122579   6.001   0.974   4.496 -0.0499  0.0465 -0.1371
  184DOPC    HA22580   6.078   0.928   4.429 -0.7184 -1.2222 -0.0579
  184DOPC    HB22581   5.908   0.964   4.437 -0.6445  0.4414  0.7185
  184DOPC    C222582   5.990   0.912   4.638 -0.2176  0.6394  0.3634
  184DOPC    HS22583   5.898   0.938   4.694 -1.0873 -1.5515  0.0507
  184DOPC   O2122584   6.114   0.932   4.717  0.3661 -0.2366 -0.0239
  184DOPC   C2122585   6.114   1.039   4.791 -0.0432  0.3877 -0.7020
  184DOPC   O2222586   6.020   1.116   4.806  0.0937 -0.6602  0.2136
  184DOPC   C2222587   6.240   1.051   4.875  0.1113  0.3618 -0.0277
  184DOPC   H2R22588   6.330   1.015   4.821  1.7669  2.9447  0.8078
  184DOPC   H2S22589   6.209   0.992   4.964 -0.1764 -1.5454 -1.3275
  184DOPC    C322590   5.979   0.758   4.624 -0.0712 -0.0067  0.2374
  184DOPC    HX22591   6.062   0.719   4.561 -1.0924 -1.5648 -0.1866
  184DOPC    HY22592   5.889   0.726   4.569  1.0699 -2.0850 -0.5531
  184DOPC   O3122593   5.979   0.692   4.757  0.1824 -0.0033 -0.4002
  184DOPC   C3122594   5.858   0.689   4.814 -0.3118 -0.8540 -0.1417
  184DOPC   O3222595   5.752   0.726   4.767  0.0097  0.0705  0.1414
  184DOPC   C3222596   5.879   0.634   4.956 -0.7494 -0.2376 -0.0769
  184DOPC   H2X22597   5.783   0.591   4.990 -0.0630 -1.4742  0.3296
  184DOPC   H2Y22598   5.938   0.540   4.946 -1.3545 -0.6998  0.6302
  184DOPC   C2322599   6.265   1.197   4.921 -0.0158  1.0178  0.4037
  184DOPC   H3R22600   6.179   1.237   4.979 -0.1538  3.7235 -1.4452
  184DOPC   H3S22601   6.267   1.259   4.828  1.8795 -0.7282 -0.8025
  184DOPC   C2422602   6.384   1.211   5.009  0.0327  0.3361  0.3805
  184DOPC   H4R22603   6.364   1.310   5.056 -3.9977  0.4451 -1.1394
  184DOPC   H4S22604   6.478   1.212   4.951 -0.2843  1.0319 -0.1314
  184DOPC   C2522605   6.383   1.113   5.127  0.2334 -1.0069  0.5462
  184DOPC   H5R22606   6.390   1.005   5.102  1.1708 -1.2899  1.9155
  184DOPC   H5S22607   6.282   1.124   5.174 -0.9657 -3.2008 -1.3098
  184DOPC   C2622608   6.487   1.144   5.237  0.1039  0.3934  0.1070
  184DOPC   H6R22609   6.459   1.247   5.268 -1.0949  0.7884 -2.0884
  184DOPC   H6S22610   6.585   1.142   5.183  1.2101 -2.1513  2.0251
  184DOPC   C2722611   6.471   1.029   5.341 -0.6620 -0.2532 -0.0312
  184DOPC   H7R22612   6.464   0.929   5.293 -0.1818 -0.7402  0.8879
  184DOPC   H7S22613   6.370   1.045   5.385  0.0674 -1.0365  2.0457
  184DOPC   C2822614   6.562   1.029   5.462  0.2785  0.0192  0.1503
  184DOPC   H8R22615   6.530   0.950   5.533  0.2904 -0.3001 -0.2014
  184DOPC   H8S22616   6.563   1.125   5.518  2.7666  0.5113 -0.5896
  184DOPC   C2922617   6.699   0.999   5.421 -0.2946  0.2285  0.0775
  184DOPC   H9R22618   6.739   1.062   5.340  0.0481 -0.8712 -0.6375
  184DOPC  C21022619   6.773   0.886   5.440  0.6834  0.3463  1.1092
  184DOPC  H10R22620   6.878   0.888   5.406  0.6053 -1.6477  0.6446
  184DOPC  C21122621   6.750   0.773   5.535  0.2457  0.0468  0.6097
  184DOPC  H11R22622   6.705   0.684   5.486  1.8721  0.3709 -1.6589
  184DOPC  H11S22623   6.683   0.810   5.616 -2.8614 -2.3219 -0.6622
  184DOPC  C21222624   6.883   0.707   5.598  0.4239 -0.0504  0.7244
  184DOPC  H12R22625   6.857   0.658   5.694  2.1333 -0.8653  0.8205
  184DOPC  H12S22626   6.956   0.789   5.615  0.2375  0.3408 -0.3078
  184DOPC  C21322627   6.955   0.604   5.508  0.2659  0.7122  0.3585
  184DOPC  H13R22628   7.005   0.652   5.422  0.1717 -1.9586 -1.2994
  184DOPC  H13S22629   6.890   0.528   5.459  0.6314  0.5402  0.1390
  184DOPC  C21422630   7.063   0.547   5.607  0.1522  0.3187  0.6944
  184DOPC  H14R22631   7.009   0.474   5.671 -0.2703  0.7817  0.8750
  184DOPC  H14S22632   7.111   0.635   5.655  0.2771  1.6815 -1.7563
  184DOPC  C21522633   7.177   0.469   5.547  0.1889 -0.8595 -0.2391
  184DOPC  H15R22634   7.251   0.433   5.621  1.5878  1.1479 -0.5814
  184DOPC  H15S22635   7.251   0.528   5.489  1.2665 -0.5153  1.4096
  184DOPC  C21622636   7.127   0.363   5.450 -0.8714 -0.0043  0.0360
  184DOPC  H16R22637   7.070   0.410   5.367 -3.8588  0.8626  2.4064
  184DOPC  H16S22638   7.054   0.296   5.500 -1.8317  2.5399  2.2756
  184DOPC  C21722639   7.241   0.285   5.392 -0.1850  0.2985  0.1911
  184DOPC  H17R22640   7.281   0.211   5.464  0.0383  0.8977  0.6944
  184DOPC  H17S22641   7.325   0.353   5.367 -1.5835  2.1403  0.3148
  184DOPC  C21822642   7.187   0.206   5.279  0.2467  0.7105 -0.6089
  184DOPC  H18R22643   7.140   0.275   5.205 -2.4867 -0.5928 -0.1995
  184DOPC  H18S22644   7.118   0.124   5.305  1.6217 -1.4056 -3.1345
  184DOPC  H18T22645   7.269   0.145   5.235  0.2481 -0.7464  1.3246
  184DOPC   C3322646   5.940   0.735   5.056  0.5800 -1.0125 -0.0713
  184DOPC   H3X22647   5.859   0.808   5.077  3.3075  2.3805 -0.4095
  184DOPC   H3Y22648   6.023   0.796   5.014 -1.6247  0.6885 -2.3004
  184DOPC   C3422649   5.977   0.661   5.180 -0.5814 -0.1969 -0.2907
  184DOPC   H4X22650   6.036   0.737   5.236  1.3640 -2.2968  0.6576
  184DOPC   H4Y22651   6.035   0.574   5.144 -2.5200 -0.9352 -1.7892
  184DOPC   C3522652   5.868   0.601   5.278 -0.4233  0.4693  0.7824
  184DOPC   H5X22653   5.812   0.527   5.217  1.4129 -1.0101  0.7774
  184DOPC   H5Y22654   5.801   0.684   5.305 -0.1403  2.6414 -4.1644
  184DOPC   C3622655   5.920   0.522   5.394  0.2107  0.6318 -0.4381
  184DOPC   H6X22656   5.987   0.437   5.366 -2.2748 -1.1730 -1.2644
  184DOPC   H6Y22657   5.991   0.585   5.451  0.0782 -0.3456  0.8423
  184DOPC   C3722658   5.811   0.454   5.483 -0.9147  0.1523  0.5487
  184DOPC   H7X22659   5.720   0.515   5.501 -2.7089 -1.6909 -1.6256
  184DOPC   H7Y22660   5.759   0.374   5.427 -2.6292  1.6814 -0.1397
  184DOPC   C3822661   5.870   0.396   5.614  0.3724  0.0126 -0.3601
  184DOPC   H8X22662   5.942   0.313   5.602  0.0410 -0.0982 -1.7207
  184DOPC   H8Y22663   5.786   0.345   5.665  1.2323 -1.1004 -0.0254
  184DOPC   C3922664   5.928   0.505   5.697 -0.4401  0.8202  0.0263
  184DOPC   H9X22665   6.003   0.569   5.648  0.7105 -1.3008 -1.1308
  184DOPC  C31022666   5.884   0.540   5.821  0.2798  0.3284 -0.1652
  184DOPC  H10X22667   5.943   0.626   5.855 -0.7332  2.1098 -2.5856
  184DOPC  C31122668   5.779   0.482   5.911  0.0424 -0.1642  0.3251
  184DOPC  H11X22669   5.806   0.376   5.933  1.8556 -0.3489 -2.3041
  184DOPC  H11Y22670   5.681   0.499   5.861  1.2080  1.8708 -1.4762
  184DOPC  C31222671   5.776   0.554   6.047 -0.3335 -0.7883  0.1152
  184DOPC  H12X22672   5.751   0.660   6.025  0.0610 -0.7448 -0.1456
  184DOPC  H12Y22673   5.866   0.554   6.113  0.1860  1.6146 -0.5099
  184DOPC  C31322674   5.659   0.511   6.131 -0.4532  0.4055 -0.3803
  184DOPC  H13X22675   5.570   0.571   6.101 -0.9987  0.1793  0.7320
  184DOPC  H13Y22676   5.636   0.404   6.116 -1.5902  0.3960  1.1662
  184DOPC  C31422677   5.688   0.534   6.278 -0.1839 -0.5186 -0.3362
  184DOPC  H14X22678   5.778   0.473   6.304 -1.7939 -3.7378 -1.7304
  184DOPC  H14Y22679   5.713   0.642   6.285  0.7762 -0.6204 -1.6452
  184DOPC  C31522680   5.569   0.510   6.373 -0.5830  0.1184 -0.2897
  184DOPC  H15X22681   5.540   0.403   6.379  0.4947 -0.2251 -0.9916
  184DOPC  H15Y22682   5.479   0.560   6.331 -2.1179 -1.5571  0.8489
  184DOPC  C31622683   5.595   0.558   6.518  1.0226 -0.3929  0.1267
  184DOPC  H16X22684   5.702   0.538   6.543  1.2205  1.5125  0.9707
  184DOPC  H16Y22685   5.597   0.669   6.519  1.4742 -0.3578 -1.3325
  184DOPC  C31722686   5.492   0.516   6.625 -0.2988 -0.0043 -0.8127
  184DOPC  H17X22687   5.398   0.516   6.566  0.3575 -1.1825 -1.8815
  184DOPC  H17Y22688   5.517   0.411   6.652  0.4635  0.4353  0.2554
  184DOPC  C31822689   5.491   0.596   6.754 -0.5798 -0.7444 -0.4136
  184DOPC  H18X22690   5.427   0.562   6.839  1.0843 -1.7821  0.4839
  184DOPC  H18Y22691   5.597   0.586   6.783 -0.1938 -0.0015 -1.5161
  184DOPC  H18Z22692   5.471   0.702   6.729 -3.8537 -1.1013  0.2557
  185DOPC     N22693   6.876   6.155   4.553 -0.8176  0.4291 -0.1514
  185DOPC   C1222694   6.861   6.299   4.597 -0.6150 -0.5174 -0.5485
  185DOPC  H12A22695   6.774   6.345   4.553 -0.4567  0.9010  0.5422
  185DOPC  H12B22696   6.943   6.357   4.560 -1.6882  2.3715  1.2142
  185DOPC   C1322697   6.763   6.063   4.602  0.0482 -0.2748  0.8574
  185DOPC  H13A22698   6.757   6.066   4.710 -2.2954  1.9048  0.7676
  185DOPC  H13B22699   6.674   6.105   4.557  0.7036  0.7489  0.5003
  185DOPC  H13C22700   6.773   5.960   4.569  0.5224  0.3775 -1.1684
  185DOPC   C1422701   7.003   6.092   4.608  0.3755 -0.0874  0.0960
  185DOPC  H14A22702   7.023   5.990   4.577  0.2182 -0.3289  0.7688
  185DOPC  H14B22703   7.084   6.155   4.574 -0.5634  0.6786 -0.8006
  185DOPC  H14C22704   7.003   6.100   4.715  0.8475 -2.5198  0.3530
  185DOPC   C1522705   6.878   6.164   4.402 -0.7489 -0.1742  1.0003
  185DOPC  H15A22706   6.793   6.212   4.357 -0.6311  0.2675  1.2387
  185DOPC  H15B22707   6.896   6.069   4.354  0.4686  1.1704 -1.4138
  185DOPC  H15C22708   6.960   6.224   4.367 -1.7971  0.2104 -0.9283
  185DOPC   C1122709   6.869   6.330   4.744 -0.0160 -0.3392 -0.0176
  185DOPC  H11A22710   6.826   6.431   4.762  1.7074  0.1065  2.0098
  185DOPC  H11B22711   6.797   6.260   4.792  0.3733 -0.0053  1.0988
  185DOPC     P22712   7.113   6.420   4.774 -0.1540 -0.0426  0.1128
  185DOPC   O1322713   7.107   6.465   4.631 -0.7415  0.9003 -0.6533
  185DOPC   O1422714   7.233   6.360   4.830 -0.2583 -0.1666 -0.1821
  185DOPC   O1222715   6.997   6.313   4.794 -0.1248  0.3915 -0.7603
  185DOPC   O1122716   7.074   6.535   4.872 -0.5090  0.6359  0.8226
  185DOPC    C122717   7.026   6.504   5.005  0.3732  0.3692  0.0417
  185DOPC    HA22718   6.958   6.418   5.019  0.7048  0.3725  1.8514
  185DOPC    HB22719   6.966   6.591   5.039  0.5364  0.2534  0.6369
  185DOPC    C222720   7.137   6.488   5.110  0.4695  0.5062 -0.0163
  185DOPC    HS22721   7.227   6.541   5.073  0.1685  1.4273  0.5418
  185DOPC   O2122722   7.161   6.345   5.124 -0.0414  0.3253  0.2681
  185DOPC   C2122723   7.272   6.315   5.190  0.0679 -0.1623 -0.1741
  185DOPC   O2222724   7.363   6.392   5.224  0.4106 -0.5146 -0.3825
  185DOPC   C2222725   7.270   6.167   5.218  0.2152 -0.4388 -0.0425
  185DOPC   H2R22726   7.324   6.121   5.132 -2.2097 -2.8713 -0.4276
  185DOPC   H2S22727   7.164   6.134   5.207 -0.0025 -0.1307  1.0199
  185DOPC    C322728   7.096   6.566   5.241  0.6928  0.2353  0.0963
  185DOPC    HX22729   7.088   6.673   5.211 -1.5438  0.1493  0.2134
  185DOPC    HY22730   7.179   6.545   5.313  1.0867  3.2515  0.6608
  185DOPC   O3122731   6.970   6.521   5.297 -0.3681 -0.4971 -0.0231
  185DOPC   C3122732   6.939   6.557   5.419 -0.1749 -0.2621 -0.5533
  185DOPC   O3222733   6.989   6.645   5.486 -0.0891 -0.3399  0.3363
  185DOPC   C3222734   6.824   6.465   5.469 -0.4080  0.2728 -0.5301
  185DOPC   H2X22735   6.742   6.475   5.396 -1.3764 -2.8547 -0.0069
  185DOPC   H2Y22736   6.863   6.361   5.473  1.8479  1.0908  1.0415
  185DOPC   C2322737   7.341   6.117   5.342 -0.0728 -0.7079 -0.0976
  185DOPC   H3R22738   7.273   6.129   5.429  0.6590  2.3677  0.1819
  185DOPC   H3S22739   7.426   6.187   5.358 -2.7652  3.4580 -2.2032
  185DOPC   C2422740   7.370   5.968   5.334 -0.6470 -0.9989  0.4553
  185DOPC   H4R22741   7.458   5.959   5.266 -1.3202  0.0843 -0.6191
  185DOPC   H4S22742   7.286   5.915   5.284 -1.1820  0.2256 -0.0026
  185DOPC   C2522743   7.405   5.906   5.471  0.5770  0.1270  0.3507
  185DOPC   H5R22744   7.464   5.815   5.447 -1.8410 -1.8406  1.4429
  185DOPC   H5S22745   7.310   5.877   5.521  1.5021 -1.7518  1.1053
  185DOPC   C2622746   7.492   5.990   5.570  0.6544 -1.3368 -0.3282
  185DOPC   H6R22747   7.435   6.079   5.605 -0.1345 -2.3141  0.9368
  185DOPC   H6S22748   7.577   6.023   5.506 -1.4264  2.7865 -1.3422
  185DOPC   C2722749   7.528   5.909   5.687  0.2358  0.3318  0.5222
  185DOPC   H7R22750   7.604   5.834   5.656 -2.1713 -1.8582 -0.4398
  185DOPC   H7S22751   7.441   5.850   5.725  2.3416 -1.8140  2.2944
  185DOPC   C2822752   7.568   5.990   5.812 -0.4774  0.7550 -0.3855
  185DOPC   H8R22753   7.568   5.921   5.899  0.7712  2.4809  1.0698
  185DOPC   H8S22754   7.486   6.064   5.822 -2.6828 -1.6151  0.1474
  185DOPC   C2922755   7.710   6.048   5.799 -0.2540 -0.0519 -0.0861
  185DOPC   H9R22756   7.793   5.976   5.801 -1.4624 -1.4875  0.4782
  185DOPC  C21022757   7.743   6.173   5.832  0.1834 -0.1880  0.0732
  185DOPC  H10R22758   7.851   6.195   5.830  0.0767  2.4714  5.2207
  185DOPC  C21122759   7.645   6.284   5.874 -0.0239  0.0408  0.1439
  185DOPC  H11R22760   7.570   6.238   5.944  0.4867 -1.3700 -0.1922
  185DOPC  H11S22761   7.589   6.319   5.785  0.7546  0.6977 -0.0893
  185DOPC  C21222762   7.699   6.413   5.935 -0.4366  0.5835 -0.3475
  185DOPC  H12R22763   7.778   6.455   5.870 -1.4575  1.3258 -1.1449
  185DOPC  H12S22764   7.746   6.399   6.035 -2.4370 -0.6331  0.4874
  185DOPC  C21322765   7.596   6.526   5.947 -0.5583 -0.5271  0.8292
  185DOPC  H13R22766   7.496   6.487   5.975 -0.3367  0.1341  2.6687
  185DOPC  H13S22767   7.587   6.582   5.851 -1.3458 -1.4720  0.3246
  185DOPC  C21422768   7.641   6.628   6.055 -0.5527  0.3099 -0.4012
  185DOPC  H14R22769   7.751   6.643   6.045 -0.5029  0.4089  0.2194
  185DOPC  H14S22770   7.635   6.576   6.153  2.8281  0.8361  0.2349
  185DOPC  C21522771   7.573   6.764   6.053  0.2540  0.5033  0.2752
  185DOPC  H15R22772   7.566   6.819   5.957  1.9603 -1.4428 -1.0391
  185DOPC  H15S22773   7.625   6.834   6.123  0.0715  0.3540  0.5647
  185DOPC  C21622774   7.424   6.761   6.102 -0.3812  0.9812 -0.4022
  185DOPC  H16R22775   7.376   6.677   6.048 -0.8841 -0.0973  1.6288
  185DOPC  H16S22776   7.376   6.860   6.087 -0.7124  0.7439 -0.9523
  185DOPC  C21722777   7.403   6.724   6.246 -0.2297 -0.5837  0.2266
  185DOPC  H17R22778   7.478   6.788   6.298  0.1741 -1.1170  0.3178
  185DOPC  H17S22779   7.432   6.619   6.272 -0.1366 -0.5063  0.4411
  185DOPC  C21822780   7.263   6.746   6.298  0.1591  0.0422 -0.1374
  185DOPC  H18R22781   7.266   6.755   6.408  0.6765 -0.5119 -0.1005
  185DOPC  H18S22782   7.205   6.655   6.272  2.2221 -1.7732  1.2290
  185DOPC  H18T22783   7.214   6.840   6.263  0.1635  0.1817  0.2320
  185DOPC   C3322784   6.780   6.496   5.614  0.2791  0.5764  0.1292
  185DOPC   H3X22785   6.752   6.603   5.614 -1.7615  0.1409  2.6805
  185DOPC   H3Y22786   6.859   6.483   5.690 -0.1066 -1.5497  0.2314
  185DOPC   C3422787   6.658   6.417   5.668 -0.2371 -0.0534 -0.9563
  185DOPC   H4X22788   6.676   6.308   5.659 -2.5314 -0.6035  0.3553
  185DOPC   H4Y22789   6.561   6.433   5.616 -0.5991 -0.0953 -0.3106
  185DOPC   C3522790   6.630   6.444   5.823 -0.4763 -0.5716  0.5318
  185DOPC   H5X22791   6.562   6.531   5.809  0.4491  0.2138  0.7345
  185DOPC   H5Y22792   6.724   6.466   5.878 -0.8917 -2.0687  1.8777
  185DOPC   C3622793   6.561   6.323   5.889 -0.6910 -0.3624  0.0171
  185DOPC   H6X22794   6.464   6.311   5.836 -1.8484 -0.8397  2.1173
  185DOPC   H6Y22795   6.629   6.236   5.879  0.5815  0.7506 -1.4648
  185DOPC   C3722796   6.530   6.339   6.037  0.1759 -0.3845 -0.0231
  185DOPC   H7X22797   6.629   6.360   6.083  0.0050  0.8370 -0.1898
  185DOPC   H7Y22798   6.459   6.424   6.049 -0.7520 -0.9756 -1.1572
  185DOPC   C3822799   6.481   6.209   6.108  0.1929 -0.3577 -0.0915
  185DOPC   H8X22800   6.481   6.233   6.216  0.8001  2.3307 -0.6314
  185DOPC   H8Y22801   6.563   6.136   6.089  0.8884  0.9665 -2.7486
  185DOPC   C3922802   6.345   6.168   6.063  0.0243 -0.4703 -1.4283
  185DOPC   H9X22803   6.327   6.144   5.957 -2.3308  0.7242 -1.3822
  185DOPC  C31022804   6.231   6.172   6.143  0.3498 -0.2319 -0.1297
  185DOPC  H10X22805   6.139   6.145   6.088  1.2653 -0.1285 -1.7705
  185DOPC  C31122806   6.222   6.232   6.278  0.3956 -0.0998  0.1861
  185DOPC  H11X22807   6.150   6.315   6.264  1.5187  1.0721  1.1328
  185DOPC  H11Y22808   6.320   6.281   6.296  0.8678 -1.0284  0.2080
  185DOPC  C31222809   6.165   6.153   6.389 -0.3692 -0.1404  0.7225
  185DOPC  H12X22810   6.162   6.216   6.481 -1.4498  3.4069 -1.5215
  185DOPC  H12Y22811   6.237   6.071   6.409  0.2747  1.0000  3.7450
  185DOPC  C31322812   6.025   6.109   6.381  1.1292  0.3941 -0.6045
  185DOPC  H13X22813   5.958   6.196   6.364  0.4221 -0.3324 -1.6525
  185DOPC  H13Y22814   6.009   6.045   6.292  0.4084 -1.5316  0.8336
  185DOPC  C31422815   5.970   6.033   6.505 -0.1917  0.3417 -0.1378
  185DOPC  H14X22816   6.036   5.945   6.519  1.1736  1.3815  0.2129
  185DOPC  H14Y22817   5.985   6.095   6.596 -0.9110  1.9650 -1.0940
  185DOPC  C31522818   5.819   5.992   6.495 -0.0708  0.6128  0.3545
  185DOPC  H15X22819   5.786   5.935   6.406  0.3828  2.3943 -1.0144
  185DOPC  H15Y22820   5.766   6.089   6.485 -0.9752  0.0984  0.0800
  185DOPC  C31622821   5.775   5.916   6.628 -0.1041  0.5799  0.1682
  185DOPC  H16X22822   5.818   5.814   6.635  0.6461  0.7569 -1.5094
  185DOPC  H16Y22823   5.812   5.973   6.717 -3.6005  2.8475  0.3661
  185DOPC  C31722824   5.620   5.926   6.660 -0.2166 -0.4798  0.0814
  185DOPC  H17X22825   5.590   6.032   6.677 -0.6398 -0.1259 -2.5256
  185DOPC  H17Y22826   5.578   5.886   6.566  2.6390 -2.4324 -0.4872
  185DOPC  C31822827   5.574   5.825   6.772  0.3086  1.0413 -0.4338
  185DOPC  H18X22828   5.613   5.848   6.873  0.9423  1.7061 -0.8179
  185DOPC  H18Y22829   5.463   5.812   6.763  0.3582 -0.7444  0.9912
  185DOPC  H18Z22830   5.602   5.719   6.752 -1.6471  0.4857 -0.5140
  186DOPC     N22831   1.888   5.542   4.515  0.1570  0.5210 -0.1224
  186DOPC   C1222832   1.842   5.428   4.627  1.1614 -0.0292  0.0537
  186DOPC  H12A22833   1.916   5.351   4.619  2.1732  1.1261 -3.4920
  186DOPC  H12B22834   1.748   5.386   4.594  1.9628 -0.7215 -1.4331
  186DOPC   C1322835   1.921   5.477   4.384 -0.4564  0.4690 -0.7073
  186DOPC  H13A22836   1.997   5.401   4.390 -1.0416 -0.3370 -2.6961
  186DOPC  H13B22837   1.839   5.412   4.357 -0.5547  1.1575 -2.1406
  186DOPC  H13C22838   1.940   5.553   4.310  2.7495  0.8961  0.4160
  186DOPC   C1422839   2.007   5.613   4.572 -0.1176  0.0693 -0.2229
  186DOPC  H14A22840   2.028   5.697   4.507  0.7832 -0.1605 -0.2324
  186DOPC  H14B22841   1.975   5.663   4.662  1.8495 -0.4735  0.8345
  186DOPC  H14C22842   2.094   5.551   4.585  0.5742  1.2604  1.0037
  186DOPC   C1522843   1.777   5.641   4.499 -0.1380 -0.1306 -0.4303
  186DOPC  H15A22844   1.674   5.608   4.496 -1.0871  1.9331  3.2191
  186DOPC  H15B22845   1.782   5.717   4.423 -2.6836  1.4155  0.7994
  186DOPC  H15C22846   1.779   5.691   4.595 -0.5765 -0.1230 -0.4269
  186DOPC   C1122847   1.816   5.463   4.772 -0.3425  0.4649 -0.2850
  186DOPC  H11A22848   1.781   5.381   4.838  1.1149  1.1760  1.4605
  186DOPC  H11B22849   1.905   5.498   4.828  0.4452 -0.8043 -0.6911
  186DOPC     P22850   1.555   5.527   4.757 -0.1003 -0.7537 -0.1667
  186DOPC   O1322851   1.527   5.381   4.734  0.3551  0.1388  0.7178
  186DOPC   O1422852   1.510   5.621   4.650 -0.2533 -0.7407  0.0045
  186DOPC   O1222853   1.714   5.557   4.783  0.2800 -0.4685 -0.7465
  186DOPC   O1122854   1.482   5.564   4.890  0.4094  0.4078  0.5939
  186DOPC    C122855   1.503   5.501   5.017 -0.4391  0.4019 -0.0602
  186DOPC    HA22856   1.593   5.544   5.065  0.3511  0.7346 -1.7513
  186DOPC    HB22857   1.504   5.390   5.021  2.2817  0.1955 -2.6398
  186DOPC    C222858   1.380   5.530   5.110  0.0768  0.1539 -0.8114
  186DOPC    HS22859   1.289   5.506   5.051 -1.4898  1.2815  1.0397
  186DOPC   O2122860   1.375   5.674   5.123  0.0055 -0.2642 -0.4866
  186DOPC   C2122861   1.267   5.723   5.187  0.3468 -0.2122 -0.0089
  186DOPC   O2222862   1.166   5.660   5.211 -0.7707  0.3604 -0.0675
  186DOPC   C2222863   1.304   5.864   5.243  0.2169 -0.3048  0.0843
  186DOPC   H2R22864   1.213   5.923   5.217 -0.6548 -2.0365 -0.9381
  186DOPC   H2S22865   1.399   5.897   5.198  0.3900  0.6302  1.0897
  186DOPC    C322866   1.387   5.458   5.247  0.6387 -0.8593  0.5422
  186DOPC    HX22867   1.295   5.494   5.297 -0.4491  1.3144 -2.7163
  186DOPC    HY22868   1.477   5.502   5.296 -0.1366 -0.1369  1.3545
  186DOPC   O3122869   1.389   5.319   5.228  0.0467 -0.3994  0.0822
  186DOPC   C3122870   1.277   5.248   5.224  0.4221 -0.3043  0.5528
  186DOPC   O3222871   1.162   5.289   5.237 -0.1301  0.1957  0.0607
  186DOPC   C3222872   1.308   5.103   5.227 -0.2348 -0.7137  0.4000
  186DOPC   H2X22873   1.222   5.049   5.184 -0.3095 -0.1714 -0.1372
  186DOPC   H2Y22874   1.403   5.090   5.171 -0.0059  0.1015  0.5929
  186DOPC   C2322875   1.327   5.875   5.398  0.2040  0.2734 -0.1621
  186DOPC   H3R22876   1.417   5.815   5.421 -0.5954 -0.7975  0.2982
  186DOPC   H3S22877   1.248   5.822   5.455 -1.0216 -1.6713 -3.3399
  186DOPC   C2422878   1.332   6.021   5.442  0.0027 -0.2920 -0.3179
  186DOPC   H4R22879   1.236   6.075   5.426 -1.9999 -3.0228  1.6359
  186DOPC   H4S22880   1.412   6.071   5.382  1.6738  1.0065  2.7711
  186DOPC   C2522881   1.378   6.038   5.587 -0.2909  0.0248 -0.4740
  186DOPC   H5R22882   1.403   6.141   5.621 -1.4469 -0.2503  1.3236
  186DOPC   H5S22883   1.478   5.996   5.611  0.9808  3.1497  0.2897
  186DOPC   C2622884   1.270   5.991   5.679  0.1048 -0.0340 -0.1738
  186DOPC   H6R22885   1.275   5.881   5.664  2.3643 -0.2026  1.3916
  186DOPC   H6S22886   1.169   6.021   5.644 -0.9860 -3.2442 -0.1251
  186DOPC   C2722887   1.301   6.010   5.828  0.7029  0.1785  0.1593
  186DOPC   H7R22888   1.316   6.118   5.851  0.6120  0.2641 -0.1685
  186DOPC   H7S22889   1.400   5.966   5.853  1.1657  1.0603 -0.0631
  186DOPC   C2822890   1.190   5.948   5.920  0.6208 -0.6026  0.1488
  186DOPC   H8R22891   1.093   5.962   5.868  1.4078 -1.0824 -1.5184
  186DOPC   H8S22892   1.191   6.001   6.018  0.9950  0.8698 -0.6241
  186DOPC   C2922893   1.201   5.802   5.939  0.2836 -0.2474 -0.2051
  186DOPC   H9R22894   1.114   5.747   5.900 -0.9131  0.8023  0.8946
  186DOPC  C21022895   1.308   5.738   5.987  0.2945 -0.4781 -0.4738
  186DOPC  H10R22896   1.295   5.629   5.980 -1.5900 -0.4462  1.5751
  186DOPC  C21122897   1.433   5.793   6.045  0.8518 -0.4472  0.5915
  186DOPC  H11R22898   1.416   5.900   6.072 -1.6598 -0.7794  0.5992
  186DOPC  H11S22899   1.514   5.787   5.970 -0.9375 -1.7157 -1.3355
  186DOPC  C21222900   1.475   5.725   6.174 -0.2434  0.0337 -0.2805
  186DOPC  H12R22901   1.576   5.762   6.198 -0.6932  1.4881 -0.5350
  186DOPC  H12S22902   1.485   5.620   6.139  0.6515 -0.4703  1.4068
  186DOPC  C21322903   1.378   5.746   6.292  0.2211 -0.6238 -0.0640
  186DOPC  H13R22904   1.286   5.685   6.275  0.7987 -1.3029 -0.8567
  186DOPC  H13S22905   1.347   5.852   6.286 -1.2712 -1.0770 -1.1220
  186DOPC  C21422906   1.436   5.724   6.438  0.5846 -0.7908 -0.5898
  186DOPC  H14R22907   1.351   5.737   6.508  1.0735  0.1126 -0.1492
  186DOPC  H14S22908   1.512   5.805   6.446 -0.9007  0.6409 -0.4443
  186DOPC  C21522909   1.514   5.597   6.463 -0.4002  0.4678 -0.1681
  186DOPC  H15R22910   1.593   5.584   6.386 -1.6608 -0.3735 -1.3589
  186DOPC  H15S22911   1.447   5.510   6.448  0.2756  0.0855 -1.1130
  186DOPC  C21622912   1.570   5.592   6.602 -0.1540  0.1355 -0.1156
  186DOPC  H16R22913   1.626   5.496   6.603 -1.0257 -0.3823  1.0927
  186DOPC  H16S22914   1.485   5.589   6.673 -2.3603 -1.8954 -2.6179
  186DOPC  C21722915   1.675   5.703   6.630  0.8721  0.4112  0.0248
  186DOPC  H17R22916   1.634   5.806   6.635 -1.5819 -0.5476  0.7447
  186DOPC  H17S22917   1.755   5.701   6.552  2.6575  1.8063  1.7280
  186DOPC  C21822918   1.760   5.678   6.757 -0.5420  0.9417  0.4097
  186DOPC  H18R22919   1.832   5.758   6.783 -1.0761  1.2350  1.0280
  186DOPC  H18S22920   1.809   5.579   6.745 -0.7145  0.9313 -0.2405
  186DOPC  H18T22921   1.688   5.655   6.838  1.4417 -0.9495  1.7187
  186DOPC   C3322922   1.335   5.046   5.368  0.1310  0.6800 -0.4222
  186DOPC   H3X22923   1.270   4.960   5.393  1.3098 -0.0027  0.4013
  186DOPC   H3Y22924   1.304   5.125   5.440  0.6288 -0.2782  0.8776
  186DOPC   C3422925   1.478   5.023   5.401 -0.2193 -1.2079  0.0266
  186DOPC   H4X22926   1.528   5.118   5.428 -0.4297 -0.9531 -0.4769
  186DOPC   H4Y22927   1.540   4.979   5.321 -2.4485 -0.6871 -2.1127
  186DOPC   C3522928   1.494   4.934   5.527 -0.6718 -0.1202  0.1689
  186DOPC   H5X22929   1.448   4.837   5.502  0.4630 -0.4433 -0.7634
  186DOPC   H5Y22930   1.436   4.983   5.609 -2.3704 -2.0821  0.2229
  186DOPC   C3622931   1.637   4.905   5.575 -0.0544  0.5307  0.3645
  186DOPC   H6X22932   1.679   4.842   5.494  0.0402  0.0613  0.7768
  186DOPC   H6Y22933   1.695   4.995   5.603  0.0026  0.2255  1.2658
  186DOPC   C3722934   1.630   4.806   5.695 -0.1251  0.2535  0.4978
  186DOPC   H7X22935   1.570   4.719   5.662  0.5391  0.0669 -0.2592
  186DOPC   H7Y22936   1.737   4.781   5.713 -0.2766 -0.3856  0.5465
  186DOPC   C3822937   1.581   4.856   5.830  0.6098  0.0872  0.0380
  186DOPC   H8X22938   1.477   4.885   5.806  0.9891  3.4030  1.8211
  186DOPC   H8Y22939   1.639   4.944   5.864  0.3822 -0.1102  0.9759
  186DOPC   C3922940   1.575   4.735   5.929  0.6313  0.2630 -0.4291
  186DOPC   H9X22941   1.528   4.647   5.882  2.5835 -0.7866 -0.5164
  186DOPC  C31022942   1.638   4.719   6.041  0.1532 -0.2274 -0.0577
  186DOPC  H10X22943   1.622   4.627   6.099 -2.0313 -1.1288 -1.9260
  186DOPC  C31122944   1.718   4.828   6.112 -0.1785 -0.2810 -0.3028
  186DOPC  H11X22945   1.669   4.925   6.136 -0.3826 -0.9370  2.1911
  186DOPC  H11Y22946   1.817   4.852   6.068 -0.3168  2.6431  0.7537
  186DOPC  C31222947   1.738   4.774   6.256  0.2684  0.0116 -0.1200
  186DOPC  H12X22948   1.796   4.679   6.253  2.0860  1.0613  0.2027
  186DOPC  H12Y22949   1.640   4.748   6.301  0.5256  0.2197  0.5722
  186DOPC  C31322950   1.819   4.866   6.345 -0.7927 -0.7811  0.3801
  186DOPC  H13X22951   1.914   4.885   6.290 -0.5506  1.8746  1.5466
  186DOPC  H13Y22952   1.762   4.960   6.356 -1.5901 -1.3703  1.5309
  186DOPC  C31422953   1.858   4.799   6.479 -1.0298  0.4981 -0.0793
  186DOPC  H14X22954   1.936   4.724   6.455 -0.5518  0.5873  1.1206
  186DOPC  H14Y22955   1.906   4.876   6.543 -0.7237  0.6459 -0.4812
  186DOPC  C31522956   1.737   4.719   6.542 -0.2007 -0.2424 -0.5038
  186DOPC  H15X22957   1.708   4.635   6.476 -0.7855 -0.8060  0.4490
  186DOPC  H15Y22958   1.652   4.790   6.554  0.9260  1.1786 -0.5317
  186DOPC  C31622959   1.764   4.649   6.682  0.7740  0.2170 -0.3653
  186DOPC  H16X22960   1.861   4.597   6.668  0.0956 -1.2643  0.2966
  186DOPC  H16Y22961   1.774   4.732   6.755  0.6408  0.0664 -0.1748
  186DOPC  C31722962   1.656   4.558   6.732  0.6249  0.8332  0.0643
  186DOPC  H17X22963   1.561   4.617   6.730  0.1493  0.1999  1.9764
  186DOPC  H17Y22964   1.638   4.482   6.653  2.1066  0.2012  0.3133
  186DOPC  C31822965   1.682   4.500   6.869  0.0932 -0.1628 -0.7957
  186DOPC  H18X22966   1.769   4.431   6.879 -1.3273 -1.9221  0.1244
  186DOPC  H18Y22967   1.709   4.574   6.947 -0.5283 -0.5083 -0.2430
  186DOPC  H18Z22968   1.595   4.440   6.904  0.4644  0.0616  0.5619
  187DOPC     N22969   6.665   1.025   3.991  0.1371  0.0483  0.0694
  187DOPC   C1222970   6.519   1.002   3.959  0.4291  0.1546 -0.2907
  187DOPC  H12A22971   6.499   0.996   3.853 -1.4051  2.0865 -0.1269
  187DOPC  H12B22972   6.468   1.094   3.983  0.4240  0.0154  0.2376
  187DOPC   C1322973   6.742   0.901   3.997  0.0230 -0.1330  0.4059
  187DOPC  H13A22974   6.846   0.922   4.016 -0.0542  1.1179 -0.4873
  187DOPC  H13B22975   6.696   0.829   4.063  0.0730 -2.0691 -1.5504
  187DOPC  H13C22976   6.731   0.857   3.899  2.0789  0.6310 -0.2077
  187DOPC   C1422977   6.682   1.090   4.129 -0.4048 -0.1412  0.3756
  187DOPC  H14A22978   6.634   1.187   4.139  0.6790  0.6310 -1.4287
  187DOPC  H14B22979   6.662   1.014   4.204  0.7948  0.4998  1.3798
  187DOPC  H14C22980   6.785   1.118   4.147 -0.4802  1.0908 -0.8973
  187DOPC   C1522981   6.734   1.103   3.888  0.3264 -0.3728 -0.0122
  187DOPC  H15A22982   6.720   1.074   3.785  1.1495 -1.3392  0.1288
  187DOPC  H15B22983   6.841   1.102   3.905  0.6695 -0.4161 -1.9675
  187DOPC  H15C22984   6.721   1.210   3.881  1.1454 -0.3269 -1.1125
  187DOPC   C1122985   6.440   0.888   4.036  0.1349 -0.0673 -0.3118
  187DOPC  H11A22986   6.331   0.891   4.017 -0.1912  0.9272  1.4798
  187DOPC  H11B22987   6.471   0.791   3.992 -1.5903 -1.0245  0.4642
  187DOPC     P22988   6.482   0.793   4.274 -0.1243  0.1382  0.2804
  187DOPC   O1322989   6.602   0.711   4.235  0.0929  0.2003  0.9379
  187DOPC   O1422990   6.358   0.722   4.302  0.1380 -0.4900 -0.1340
  187DOPC   O1222991   6.459   0.912   4.176  0.8976  0.4932 -0.8156
  187DOPC   O1122992   6.525   0.877   4.407  0.3271  0.4596  0.5645
  187DOPC    C122993   6.437   0.947   4.488  0.5459 -0.3685 -0.8447
  187DOPC    HA22994   6.394   0.879   4.565 -0.4146  1.3370  0.2085
  187DOPC    HB22995   6.349   0.990   4.435 -1.5626 -2.1945  0.9347
  187DOPC    C222996   6.509   1.057   4.569 -0.0635 -0.2115  0.5535
  187DOPC    HS22997   6.601   1.085   4.513 -0.7446  3.9941  1.2201
  187DOPC   O2122998   6.539   1.009   4.704  0.1050 -0.5502  0.0487
  187DOPC   C2122999   6.662   0.973   4.724 -0.1780 -0.1211  0.5240
  187DOPC   O2223000   6.745   0.964   4.629  0.1784 -0.4646 -0.0815
  187DOPC   C2223001   6.684   0.937   4.869  0.0922 -0.0488  0.1495
  187DOPC   H2R23002   6.584   0.915   4.913  0.6623  0.1028  1.5510
  187DOPC   H2S23003   6.729   1.030   4.909  0.3073  0.7207 -1.7726
  187DOPC    C323004   6.406   1.174   4.571  0.0040  0.0020  0.0319
  187DOPC    HX23005   6.323   1.140   4.638  1.6541  1.4475  3.0358
  187DOPC    HY23006   6.377   1.203   4.468  2.3204  1.2570 -0.3300
  187DOPC   O3123007   6.455   1.293   4.641  0.0144  0.1560 -0.2103
  187DOPC   C3123008   6.530   1.378   4.575  0.2771 -0.7269  0.1449
  187DOPC   O3223009   6.565   1.367   4.459 -0.8778 -0.2511  0.0513
  187DOPC   C3223010   6.560   1.498   4.665 -0.5369 -0.1287 -0.2619
  187DOPC   H2X23011   6.669   1.489   4.681 -0.7864 -1.5177  0.8582
  187DOPC   H2Y23012   6.525   1.587   4.609  0.6997  0.7381  0.3158
  187DOPC   C2323013   6.779   0.830   4.892 -0.3761 -0.5961 -0.3337
  187DOPC   H3R23014   6.873   0.859   4.839 -0.1339 -0.1719  0.3290
  187DOPC   H3S23015   6.745   0.734   4.846 -0.3445 -1.4260  1.3122
  187DOPC   C2423016   6.820   0.805   5.038 -0.1293 -0.1005  0.2506
  187DOPC   H4R23017   6.729   0.778   5.096  1.3179 -1.1908  2.1658
  187DOPC   H4S23018   6.868   0.896   5.082 -0.5043  0.1781  0.0932
  187DOPC   C2523019   6.936   0.700   5.059  0.5346 -0.0617  0.2810
  187DOPC   H5R23020   6.920   0.633   4.972 -0.6982  0.7594 -0.1478
  187DOPC   H5S23021   6.929   0.641   5.153  0.8016  0.1961  0.4637
  187DOPC   C2623022   7.078   0.757   5.053 -0.6309 -0.0220  0.0778
  187DOPC   H6R23023   7.086   0.836   4.975 -1.2602 -1.9548 -2.0468
  187DOPC   H6S23024   7.142   0.672   5.018  1.5095  1.7557 -0.5574
  187DOPC   C2723025   7.132   0.801   5.188 -0.6199  0.4940  0.5698
  187DOPC   H7R23026   7.147   0.705   5.243  0.9492  0.2511 -0.2230
  187DOPC   H7S23027   7.064   0.875   5.235 -0.6953  0.5396  0.3879
  187DOPC   C2823028   7.265   0.881   5.189  0.7123  0.2768  0.0361
  187DOPC   H8R23029   7.280   0.947   5.277 -1.0719 -1.1694  1.5015
  187DOPC   H8S23030   7.259   0.947   5.100  0.3658  0.2800  0.0600
  187DOPC   C2923031   7.389   0.793   5.177 -0.0594 -0.7278  0.1334
  187DOPC   H9R23032   7.425   0.773   5.075  1.5256 -1.0364  0.7277
  187DOPC  C21023033   7.466   0.740   5.270 -0.2134 -0.2012 -0.2752
  187DOPC  H10R23034   7.555   0.680   5.245  0.0896 -0.0061  0.3237
  187DOPC  C21123035   7.436   0.762   5.419  0.1235  0.9095  0.0645
  187DOPC  H11R23036   7.454   0.668   5.475 -3.2876 -0.8087 -1.4724
  187DOPC  H11S23037   7.326   0.772   5.426 -0.3861 -3.7781  2.8106
  187DOPC  C21223038   7.505   0.880   5.487  0.2584  0.1148 -0.6138
  187DOPC  H12R23039   7.483   0.975   5.434  1.5660  0.7030 -0.1570
  187DOPC  H12S23040   7.614   0.860   5.493  0.3247  0.4246 -0.7758
  187DOPC  C21323041   7.464   0.890   5.641 -0.0617  0.4233  0.1497
  187DOPC  H13R23042   7.491   0.795   5.690 -1.2250  0.7712  1.5314
  187DOPC  H13S23043   7.356   0.911   5.660  0.1730  1.2510  0.6167
  187DOPC  C21423044   7.533   1.004   5.716 -0.6398  0.2050  0.3562
  187DOPC  H14R23045   7.499   1.101   5.672 -0.6896  0.1874  0.3555
  187DOPC  H14S23046   7.643   1.001   5.704 -0.1842  1.4574  3.1823
  187DOPC  C21523047   7.495   1.000   5.860  0.1461 -0.4344 -0.9340
  187DOPC  H15R23048   7.510   0.894   5.886 -0.3890 -0.0010  1.3042
  187DOPC  H15S23049   7.386   1.023   5.867 -0.5524 -3.8820  2.7509
  187DOPC  C21623050   7.579   1.081   5.956 -0.6420 -0.7827 -0.2326
  187DOPC  H16R23051   7.623   1.169   5.904 -0.0988 -1.3454 -0.7244
  187DOPC  H16S23052   7.667   1.016   5.974  0.8941  0.9189 -1.2183
  187DOPC  C21723053   7.531   1.108   6.096 -0.0125  0.5265  0.0957
  187DOPC  H17R23054   7.612   1.166   6.143  0.6518 -0.2679 -0.0385
  187DOPC  H17S23055   7.510   1.014   6.152  1.0787  0.3533  0.2201
  187DOPC  C21823056   7.420   1.214   6.107  0.0339  0.1634 -0.1425
  187DOPC  H18R23057   7.395   1.234   6.213 -1.3878 -2.2029  0.0480
  187DOPC  H18S23058   7.327   1.183   6.054  0.6333 -0.3310 -0.9376
  187DOPC  H18T23059   7.449   1.303   6.046  1.0058  0.0503  0.1390
  187DOPC   C3323060   6.500   1.495   4.802  0.7362  0.3861 -0.4217
  187DOPC   H3X23061   6.536   1.401   4.851  0.6891  0.7014  0.2311
  187DOPC   H3Y23062   6.389   1.497   4.807  0.7689 -0.3510  2.5777
  187DOPC   C3423063   6.556   1.605   4.886 -0.2127  0.6633 -0.7974
  187DOPC   H4X23064   6.553   1.701   4.829 -1.3358  0.0407 -1.8339
  187DOPC   H4Y23065   6.662   1.587   4.912  0.0962  3.7115  0.5346
  187DOPC   C3523066   6.480   1.627   5.017 -0.1348  0.0073 -0.2186
  187DOPC   H5X23067   6.474   1.527   5.064  1.5346  0.3010  0.7074
  187DOPC   H5Y23068   6.376   1.660   4.996 -1.0407 -2.5759 -0.1584
  187DOPC   C3623069   6.546   1.718   5.122  0.5021 -0.0118 -0.4035
  187DOPC   H6X23070   6.647   1.671   5.122  0.7848  0.5634  0.3568
  187DOPC   H6Y23071   6.556   1.824   5.090 -2.1157  0.6020  0.6030
  187DOPC   C3723072   6.471   1.727   5.255  0.2875  0.2730 -0.0068
  187DOPC   H7X23073   6.393   1.804   5.240  1.6745  1.7352 -0.0548
  187DOPC   H7Y23074   6.414   1.633   5.268  1.9081 -1.2849 -3.1453
  187DOPC   C3823075   6.567   1.759   5.362 -0.0846  0.6838 -0.0016
  187DOPC   H8X23076   6.629   1.850   5.344  0.4964  0.0566 -1.2919
  187DOPC   H8Y23077   6.632   1.670   5.377  0.8046  1.3238  0.0940
  187DOPC   C3923078   6.501   1.789   5.494 -0.4337 -0.1797  0.7338
  187DOPC   H9X23079   6.436   1.877   5.486  0.8118  0.9139  2.0721
  187DOPC  C31023080   6.528   1.719   5.607  0.0371 -0.1945 -0.2090
  187DOPC  H10X23081   6.479   1.750   5.701  1.0257  1.8653 -0.3106
  187DOPC  C31123082   6.609   1.594   5.633 -0.1099  0.1654  0.2327
  187DOPC  H11X23083   6.684   1.611   5.713 -0.1289 -1.8122  0.7037
  187DOPC  H11Y23084   6.674   1.576   5.545 -1.0388 -0.2942 -0.3692
  187DOPC  C31223085   6.538   1.462   5.660  0.2201  0.3511  0.0204
  187DOPC  H12X23086   6.602   1.387   5.712 -0.1929  0.6368  0.9657
  187DOPC  H12Y23087   6.502   1.415   5.567 -2.2819  0.5416  0.8119
  187DOPC  C31323088   6.413   1.467   5.753  0.3115  0.2440 -0.5545
  187DOPC  H13X23089   6.330   1.532   5.718 -0.4370 -0.2271  0.3035
  187DOPC  H13Y23090   6.352   1.375   5.745  1.1782 -0.2536 -1.5928
  187DOPC  C31423091   6.447   1.500   5.893 -0.2266 -0.1488 -0.3595
  187DOPC  H14X23092   6.532   1.440   5.931  0.4661  0.7538 -0.4296
  187DOPC  H14Y23093   6.467   1.610   5.897  0.8538 -0.3539  0.4784
  187DOPC  C31523094   6.330   1.478   5.990  0.3053 -0.0405  0.5198
  187DOPC  H15X23095   6.292   1.376   5.968 -0.5251  0.5946 -1.2311
  187DOPC  H15Y23096   6.245   1.545   5.964  1.0579 -0.1445 -2.5793
  187DOPC  C31623097   6.362   1.490   6.136  0.0464  0.2753 -0.2898
  187DOPC  H16X23098   6.455   1.430   6.149 -0.4348 -0.1807  1.1547
  187DOPC  H16Y23099   6.379   1.598   6.158 -1.4561  0.3792  0.5211
  187DOPC  C31723100   6.258   1.424   6.226 -0.0086  0.4546  0.0092
  187DOPC  H17X23101   6.245   1.317   6.200 -1.9233  1.4898 -4.0410
  187DOPC  H17Y23102   6.294   1.424   6.331  2.0785 -0.0103 -0.6609
  187DOPC  C31823103   6.122   1.489   6.221 -0.2540 -0.4595  0.9454
  187DOPC  H18X23104   6.055   1.412   6.177  1.4815 -1.4534 -0.1046
  187DOPC  H18Y23105   6.066   1.506   6.315 -3.4872 -0.9256 -0.7579
  187DOPC  H18Z23106   6.119   1.586   6.167  1.6495 -1.8475 -1.9642
  188DOPC     N23107   2.814   2.257   4.831  0.0168 -0.9760  0.0039
  188DOPC   C1223108   2.763   2.333   4.952 -0.4918 -0.0200  0.4384
  188DOPC  H12A23109   2.755   2.264   5.035  2.1581  0.4672  1.2158
  188DOPC  H12B23110   2.667   2.371   4.923 -0.5206  1.0537  1.8243
  188DOPC   C1323111   2.718   2.172   4.760  0.6568 -0.6616  0.5996
  188DOPC  H13A23112   2.686   2.085   4.817  3.2844 -1.0696  1.5668
  188DOPC  H13B23113   2.640   2.238   4.725  1.7676  0.9432  1.0416
  188DOPC  H13C23114   2.770   2.127   4.676  1.0443  0.4582  0.2291
  188DOPC   C1423115   2.924   2.164   4.867  0.2750  0.0602  0.2080
  188DOPC  H14A23116   2.891   2.086   4.934  1.9723 -0.7184  0.1797
  188DOPC  H14B23117   2.953   2.107   4.780 -1.1934  0.5130 -0.6142
  188DOPC  H14C23118   3.008   2.215   4.912 -0.4299  1.3618  0.1078
  188DOPC   C1523119   2.871   2.359   4.731  0.8268  0.3466  0.0078
  188DOPC  H15A23120   2.924   2.302   4.655  0.0838  0.8708 -0.9361
  188DOPC  H15B23121   2.938   2.427   4.780  1.7010  1.1858 -2.2059
  188DOPC  H15C23122   2.797   2.423   4.686  2.0612  1.5554 -0.3774
  188DOPC   C1123123   2.853   2.450   5.009  0.3986 -0.5566  0.1489
  188DOPC  H11A23124   2.818   2.466   5.113  2.1333 -0.9522  0.8212
  188DOPC  H11B23125   2.959   2.418   5.006  0.6494  0.2888 -0.3948
  188DOPC     P23126   2.698   2.631   4.892  0.2360 -0.1943  0.1482
  188DOPC   O1323127   2.675   2.603   4.752  0.0279 -0.0455  0.0252
  188DOPC   O1423128   2.694   2.774   4.928 -0.3622 -0.1491  0.1402
  188DOPC   O1223129   2.844   2.575   4.929  0.0087  0.4770  0.5457
  188DOPC   O1123130   2.592   2.552   4.979 -0.0586  0.0891 -0.6542
  188DOPC    C123131   2.456   2.590   4.964 -0.3771 -0.2452 -0.3250
  188DOPC    HA23132   2.419   2.533   4.876  1.3356 -1.2106 -0.4537
  188DOPC    HB23133   2.441   2.698   4.944 -1.1884 -0.6187 -1.9123
  188DOPC    C223134   2.369   2.542   5.093 -0.6137 -0.4234  0.4890
  188DOPC    HS23135   2.265   2.563   5.058 -0.3645 -1.0615 -0.6821
  188DOPC   O2123136   2.392   2.615   5.213 -0.2166 -1.1614  0.1689
  188DOPC   C2123137   2.353   2.744   5.203 -0.0080 -0.3728 -0.1601
  188DOPC   O2223138   2.290   2.800   5.112  0.1260  0.0331 -0.1001
  188DOPC   C2223139   2.398   2.813   5.335 -0.0852 -0.0736  0.1725
  188DOPC   H2R23140   2.418   2.921   5.319  0.9422 -0.1819  0.6234
  188DOPC   H2S23141   2.495   2.778   5.376  0.3915 -1.2516 -1.8629
  188DOPC    C323142   2.392   2.384   5.126  0.1062 -0.3915  0.4634
  188DOPC    HX23143   2.500   2.371   5.150  0.5521  1.8485 -0.0806
  188DOPC    HY23144   2.371   2.324   5.034  1.5040  0.5630 -0.5338
  188DOPC   O3123145   2.313   2.341   5.241  0.5697 -0.0534  0.2890
  188DOPC   C3123146   2.367   2.361   5.360  0.0164  0.7263  0.0398
  188DOPC   O3223147   2.476   2.396   5.390 -0.3086 -0.7098  0.3487
  188DOPC   C3223148   2.265   2.324   5.465  0.7940 -0.3858 -0.1816
  188DOPC   H2X23149   2.173   2.384   5.445  0.9859  0.1142  0.4560
  188DOPC   H2Y23150   2.235   2.219   5.444 -0.4220 -0.2412  0.7110
  188DOPC   C2323151   2.289   2.802   5.444 -0.1138 -0.3758 -0.2284
  188DOPC   H3R23152   2.338   2.820   5.542  1.2785 -0.3393 -0.9016
  188DOPC   H3S23153   2.256   2.696   5.457  0.9663 -0.6598  0.3384
  188DOPC   C2423154   2.168   2.897   5.426  0.1243  0.0781  0.3082
  188DOPC   H4R23155   2.118   2.871   5.331  1.2607 -1.9217  0.1956
  188DOPC   H4S23156   2.216   2.995   5.407  2.2004 -0.9175  0.1162
  188DOPC   C2523157   2.061   2.891   5.541  0.3006 -0.6607  0.0128
  188DOPC   H5R23158   2.116   2.919   5.633 -2.1328 -0.4288  1.4870
  188DOPC   H5S23159   2.022   2.788   5.557  0.4934 -0.7600 -0.1407
  188DOPC   C2623160   1.941   2.983   5.521  0.4659 -0.1335  0.4078
  188DOPC   H6R23161   1.865   2.960   5.598  0.3098  0.7740  0.5351
  188DOPC   H6S23162   1.895   2.966   5.421  0.6530  0.3466  0.2320
  188DOPC   C2723163   1.971   3.139   5.502 -0.0099  0.6006  0.5077
  188DOPC   H7R23164   1.876   3.192   5.482  0.4269  0.9539 -0.7050
  188DOPC   H7S23165   2.033   3.154   5.411  0.9568 -0.9668  0.8714
  188DOPC   C2823166   2.038   3.210   5.619 -0.4591  0.0892  0.2540
  188DOPC   H8R23167   2.133   3.156   5.642 -0.0270  1.3485  1.5751
  188DOPC   H8S23168   1.984   3.196   5.716 -0.4079 -0.9160  0.1468
  188DOPC   C2923169   2.069   3.352   5.591  0.3979 -0.0112  0.1926
  188DOPC   H9R23170   2.027   3.387   5.496 -1.1355 -0.0791  0.8150
  188DOPC  C21023171   2.143   3.436   5.662 -0.4040  0.0641 -1.1504
  188DOPC  H10R23172   2.164   3.535   5.620  0.5531 -0.3624 -1.7039
  188DOPC  C21123173   2.223   3.403   5.786  0.0534  0.0897 -0.8335
  188DOPC  H11R23174   2.327   3.439   5.775  0.4070 -0.2551  1.1500
  188DOPC  H11S23175   2.234   3.297   5.816  1.2101  0.0550 -1.3252
  188DOPC  C21223176   2.165   3.466   5.914  0.1159 -1.0536  0.0394
  188DOPC  H12R23177   2.055   3.460   5.927  0.0834  0.6760  0.9175
  188DOPC  H12S23178   2.182   3.576   5.907  0.2702 -1.1905 -3.7289
  188DOPC  C21323179   2.227   3.406   6.038 -0.1892 -0.3111  0.0710
  188DOPC  H13R23180   2.338   3.413   6.037 -0.1805 -0.2283 -1.6394
  188DOPC  H13S23181   2.198   3.299   6.036 -1.3350 -0.0811 -3.6601
  188DOPC  C21423182   2.175   3.466   6.169 -1.5477 -0.3594 -0.2156
  188DOPC  H14R23183   2.066   3.486   6.164 -1.3283  0.9649 -0.0497
  188DOPC  H14S23184   2.232   3.559   6.185  0.0328 -1.3017 -0.1412
  188DOPC  C21523185   2.208   3.376   6.288 -0.9030  0.0150 -0.1159
  188DOPC  H15R23186   2.200   3.447   6.374  1.4264 -0.2599  0.4006
  188DOPC  H15S23187   2.307   3.326   6.290 -1.3056 -0.8403 -0.8811
  188DOPC  C21623188   2.114   3.264   6.323  0.6572  0.0126 -0.4273
  188DOPC  H16R23189   2.100   3.181   6.250 -0.1621  0.9231 -1.3338
  188DOPC  H16S23190   2.011   3.306   6.324  0.1461 -1.1839 -0.0680
  188DOPC  C21723191   2.138   3.194   6.462 -0.8329  0.4665  0.0273
  188DOPC  H17R23192   2.069   3.108   6.474  0.7033 -1.5932 -3.9530
  188DOPC  H17S23193   2.116   3.268   6.542  0.3733  0.2784  0.5584
  188DOPC  C21823194   2.274   3.129   6.477 -0.5826  0.3889 -0.2071
  188DOPC  H18R23195   2.357   3.178   6.423  0.9247 -1.2512  0.5412
  188DOPC  H18S23196   2.272   3.029   6.429  0.8802  0.1692  0.1569
  188DOPC  H18T23197   2.310   3.128   6.582  1.5857  1.2699 -0.8903
  188DOPC   C3323198   2.309   2.342   5.609  0.3499  0.2470 -0.3275
  188DOPC   H3X23199   2.305   2.451   5.633 -0.9680  0.6188 -2.0387
  188DOPC   H3Y23200   2.415   2.312   5.621 -0.1010 -1.7189 -1.0271
  188DOPC   C3423201   2.222   2.275   5.713 -0.1959 -0.3668  0.2419
  188DOPC   H4X23202   2.277   2.255   5.807  2.7981  0.2465 -1.2680
  188DOPC   H4Y23203   2.190   2.179   5.667 -0.4793 -0.0340 -0.2738
  188DOPC   C3523204   2.088   2.352   5.736 -0.1296 -1.2226 -0.2731
  188DOPC   H5X23205   2.036   2.355   5.638 -0.0011  0.3658 -0.3256
  188DOPC   H5Y23206   2.105   2.454   5.776 -0.4008 -0.9998 -0.7118
  188DOPC   C3623207   1.993   2.282   5.830  0.5338 -0.5477  0.2266
  188DOPC   H6X23208   1.980   2.176   5.799  0.3079 -0.0617 -1.4857
  188DOPC   H6Y23209   2.025   2.270   5.935  1.6401 -1.5125 -0.1984
  188DOPC   C3723210   1.853   2.342   5.847  0.8283  0.3063  0.0497
  188DOPC   H7X23211   1.880   2.444   5.881  2.4882 -0.2582  0.5423
  188DOPC   H7Y23212   1.803   2.346   5.748  0.3485 -2.1003  0.1157
  188DOPC   C3823213   1.774   2.266   5.946 -0.4020  0.8342  0.2157
  188DOPC   H8X23214   1.818   2.284   6.047 -0.6733  0.2511  0.4420
  188DOPC   H8Y23215   1.776   2.159   5.918  2.1647  0.8920 -0.0104
  188DOPC   C3923216   1.627   2.299   5.949  0.1674  0.7481 -0.1001
  188DOPC   H9X23217   1.557   2.251   5.878 -0.6926  0.9764  0.5804
  188DOPC  C31023218   1.567   2.384   6.033  0.8481  0.0710  0.0089
  188DOPC  H10X23219   1.460   2.408   6.023  0.4229 -1.6847  0.0085
  188DOPC  C31123220   1.654   2.458   6.138 -0.1849 -0.7268 -0.4477
  188DOPC  H11X23221   1.630   2.566   6.139 -0.3502 -0.7478 -1.2880
  188DOPC  H11Y23222   1.764   2.453   6.125  0.0205 -0.5161  1.0726
  188DOPC  C31223223   1.607   2.416   6.275  0.5442  0.8703 -0.9887
  188DOPC  H12X23224   1.499   2.428   6.300  1.2447  1.9125  2.1306
  188DOPC  H12Y23225   1.655   2.491   6.342 -2.5415  0.6917  1.6682
  188DOPC  C31323226   1.660   2.274   6.320 -0.1118 -0.0202 -0.1335
  188DOPC  H13X23227   1.621   2.192   6.257 -0.6608  0.0930  0.0507
  188DOPC  H13Y23228   1.769   2.273   6.304  0.1772 -0.8265  1.6183
  188DOPC  C31423229   1.615   2.233   6.464 -0.8822 -0.2844  0.4222
  188DOPC  H14X23230   1.505   2.242   6.474 -1.4514 -2.5007 -2.5608
  188DOPC  H14Y23231   1.642   2.125   6.470  0.4132 -0.0736 -0.9947
  188DOPC  C31523232   1.664   2.312   6.584 -0.3833 -0.1065  0.5566
  188DOPC  H15X23233   1.653   2.422   6.572 -2.3863 -0.1294  1.6887
  188DOPC  H15Y23234   1.773   2.294   6.596  0.2106  2.9598  0.3903
  188DOPC  C31623235   1.587   2.288   6.719 -0.0823  0.0172  0.0987
  188DOPC  H16X23236   1.497   2.352   6.712 -0.0100  0.3024  1.4291
  188DOPC  H16Y23237   1.558   2.181   6.732  1.7173 -0.6634 -1.0597
  188DOPC  C31723238   1.665   2.343   6.848  0.3098 -0.1718 -0.1855
  188DOPC  H17X23239   1.757   2.282   6.852  1.0567  0.9875  1.6976
  188DOPC  H17Y23240   1.695   2.449   6.830 -1.4743  0.2994 -0.6121
  188DOPC  C31823241   1.585   2.352   6.977 -0.2523 -0.1473 -0.0966
  188DOPC  H18X23242   1.559   2.252   7.019  0.1839  0.0992  0.8014
  188DOPC  H18Y23243   1.640   2.411   7.054  2.4194 -0.3753 -1.6926
  188DOPC  H18Z23244   1.490   2.403   6.954 -0.1230 -0.6168 -1.7706
  189DOPC     N23245   3.701   1.087   4.565  0.5848 -0.1995  0.2568
  189DOPC   C1223246   3.760   1.066   4.703 -0.2678  0.2030 -0.6972
  189DOPC  H12A23247   3.690   1.092   4.781  1.0371  2.9899 -0.3501
  189DOPC  H12B23248   3.827   1.148   4.724 -1.0598  0.0337  3.2544
  189DOPC   C1323249   3.603   0.976   4.534  0.0303 -0.1370  0.3683
  189DOPC  H13A23250   3.518   0.984   4.600  0.5601  0.3377  1.0100
  189DOPC  H13B23251   3.575   0.994   4.431 -0.6595  1.9643  0.8641
  189DOPC  H13C23252   3.668   0.891   4.542  2.4305  1.6991  2.0686
  189DOPC   C1423253   3.816   1.092   4.471 -0.0585  0.4617  0.1793
  189DOPC  H14A23254   3.883   1.173   4.497 -1.6661  1.4157  1.5372
  189DOPC  H14B23255   3.865   0.996   4.482 -4.4072 -1.8996  1.4156
  189DOPC  H14C23256   3.789   1.106   4.368  0.7684  1.2327  0.0516
  189DOPC   C1523257   3.635   1.222   4.567 -0.0110  0.2756  0.1599
  189DOPC  H15A23258   3.698   1.290   4.623 -0.0535 -0.4925  1.1621
  189DOPC  H15B23259   3.539   1.219   4.615  0.6093  0.9001  1.5116
  189DOPC  H15C23260   3.618   1.261   4.468 -2.2661 -1.5584 -0.2303
  189DOPC   C1123261   3.822   0.928   4.741  0.4707 -0.7412 -0.5758
  189DOPC  H11A23262   3.893   0.895   4.661  2.7519 -0.6047  1.3015
  189DOPC  H11B23263   3.880   0.945   4.833  0.9650  1.1318 -1.1916
  189DOPC     P23264   3.768   0.672   4.760 -0.0068  0.2327 -0.0730
  189DOPC   O1323265   3.876   0.656   4.861  0.2469 -0.4223  0.2523
  189DOPC   O1423266   3.790   0.622   4.628 -0.5147  0.2127  0.3753
  189DOPC   O1223267   3.728   0.827   4.758 -0.0233  0.2316  0.3116
  189DOPC   O1123268   3.645   0.595   4.821  0.0675 -0.1398 -0.1482
  189DOPC    C123269   3.529   0.677   4.862 -0.1171 -0.9675 -0.3857
  189DOPC    HA23270   3.435   0.619   4.874 -0.8523  0.0125 -1.2011
  189DOPC    HB23271   3.498   0.755   4.789 -0.9000  0.4064  1.3324
  189DOPC    C223272   3.552   0.727   5.010 -0.3510 -0.6184 -0.1564
  189DOPC    HS23273   3.642   0.792   5.014 -0.1648 -0.8078 -1.1808
  189DOPC   O2123274   3.566   0.605   5.089  0.2439  0.2514 -0.0087
  189DOPC   C2123275   3.641   0.626   5.205 -0.6089  0.0043  0.4153
  189DOPC   O2223276   3.693   0.729   5.239 -0.0486  0.2631 -0.0269
  189DOPC   C2223277   3.660   0.495   5.278 -0.4130  0.6972 -0.3312
  189DOPC   H2R23278   3.706   0.427   5.204  0.7212  1.8327 -0.6902
  189DOPC   H2S23279   3.556   0.462   5.301  0.9755 -3.0637  1.3404
  189DOPC    C323280   3.430   0.808   5.042  1.1707 -0.1333 -0.6153
  189DOPC    HX23281   3.345   0.740   5.021  0.0853  1.3234 -1.1196
  189DOPC    HY23282   3.420   0.894   4.972  1.5324  1.5281  1.2742
  189DOPC   O3123283   3.405   0.851   5.173 -0.0043 -0.6905 -0.3183
  189DOPC   C3123284   3.472   0.955   5.204  0.5051 -0.2284 -0.4149
  189DOPC   O3223285   3.520   1.042   5.129 -0.4581  0.2652 -0.0852
  189DOPC   C3223286   3.468   0.966   5.357  0.4292 -0.3819  0.4520
  189DOPC   H2X23287   3.362   0.960   5.389 -0.4266  0.7374 -1.9150
  189DOPC   H2Y23288   3.535   0.888   5.398  0.1749 -1.8272 -1.7122
  189DOPC   C2323289   3.754   0.500   5.402 -0.0529  0.7586  0.2845
  189DOPC   H3R23290   3.859   0.528   5.379  0.5256 -1.1395  0.4257
  189DOPC   H3S23291   3.764   0.396   5.440 -0.4777  1.3068  2.0127
  189DOPC   C2423292   3.690   0.583   5.516  0.1626  0.1529  0.5623
  189DOPC   H4R23293   3.591   0.539   5.541 -0.0366  0.6794  0.7221
  189DOPC   H4S23294   3.673   0.684   5.473 -0.9921 -0.7639 -1.2653
  189DOPC   C2523295   3.772   0.593   5.638 -0.3200  0.2281  0.2590
  189DOPC   H5R23296   3.734   0.664   5.714  0.0680  1.1757 -0.4203
  189DOPC   H5S23297   3.873   0.632   5.613  0.2892 -1.9059 -0.9493
  189DOPC   C2623298   3.813   0.452   5.705 -0.4062 -0.4060 -0.0712
  189DOPC   H6R23299   3.867   0.387   5.632 -0.0790  0.4223 -0.5891
  189DOPC   H6S23300   3.714   0.407   5.728 -0.2953 -0.0169  1.2505
  189DOPC   C2723301   3.906   0.466   5.822 -0.5209  0.4011 -0.5892
  189DOPC   H7R23302   3.970   0.552   5.793 -0.7104 -0.0045 -2.2895
  189DOPC   H7S23303   3.955   0.366   5.830 -2.6809 -0.7311 -0.7256
  189DOPC   C2823304   3.829   0.494   5.962  0.2681  0.1291  0.5698
  189DOPC   H8R23305   3.896   0.452   6.039 -2.8219 -2.4505  2.1011
  189DOPC   H8S23306   3.746   0.419   5.963  0.2051  0.2077  1.4038
  189DOPC   C2923307   3.791   0.634   6.003 -0.1165  1.0271 -0.2714
  189DOPC   H9R23308   3.881   0.695   6.023 -0.2290  0.9532  0.5144
  189DOPC  C21023309   3.673   0.680   6.052  0.0670  0.1284  0.4287
  189DOPC  H10R23310   3.662   0.785   6.084 -0.3242  0.3285 -0.3284
  189DOPC  C21123311   3.549   0.589   6.064  0.6331  0.3620  0.1136
  189DOPC  H11R23312   3.552   0.528   6.157  0.5850 -3.7414 -2.3505
  189DOPC  H11S23313   3.542   0.505   5.992 -1.6640  0.7204 -0.1413
  189DOPC  C21223314   3.407   0.650   6.059  0.6954  0.2370  0.0663
  189DOPC  H12R23315   3.405   0.718   5.970 -0.0185  1.7315  1.1812
  189DOPC  H12S23316   3.400   0.723   6.143 -0.2359  0.0562  0.1480
  189DOPC  C21323317   3.287   0.547   6.068  0.7701  0.4576  0.1052
  189DOPC  H13R23318   3.311   0.465   5.997  2.3169  0.4366  0.6092
  189DOPC  H13S23319   3.191   0.591   6.035  0.8683  1.9358  1.6026
  189DOPC  C21423320   3.249   0.478   6.199  0.0341 -0.6036 -0.8004
  189DOPC  H14R23321   3.231   0.554   6.278 -2.1355 -0.6624 -1.1734
  189DOPC  H14S23322   3.325   0.405   6.236 -1.1115 -1.1573  0.5725
  189DOPC  C21523323   3.118   0.396   6.192 -0.8189  0.1397  0.3449
  189DOPC  H15R23324   3.145   0.310   6.126  0.2841  0.9248 -0.2690
  189DOPC  H15S23325   3.037   0.454   6.144 -0.8780  0.6274  1.0368
  189DOPC  C21623326   3.078   0.358   6.327  0.3575  0.3349 -0.9872
  189DOPC  H16R23327   3.058   0.450   6.386 -1.0930  0.6982 -2.0064
  189DOPC  H16S23328   3.159   0.301   6.377  0.5164  1.4889  0.1174
  189DOPC  C21723329   2.953   0.261   6.338  0.0774  0.1618 -0.1480
  189DOPC  H17R23330   2.983   0.174   6.277 -1.0064 -0.0913 -0.3523
  189DOPC  H17S23331   2.864   0.305   6.287 -0.2234  2.7419  2.3555
  189DOPC  C21823332   2.921   0.224   6.482  0.4088 -0.2013 -0.2625
  189DOPC  H18R23333   2.836   0.153   6.487 -0.0002  0.3061  0.1386
  189DOPC  H18S23334   2.891   0.310   6.546  1.6809 -0.3848  0.6172
  189DOPC  H18T23335   3.013   0.187   6.531  0.4023 -0.5556 -0.5161
  189DOPC   C3323336   3.523   1.107   5.402 -0.1296 -0.3511  0.0428
  189DOPC   H3X23337   3.467   1.188   5.351  0.7778  1.7568  2.2727
  189DOPC   H3Y23338   3.631   1.113   5.379 -0.1877  0.5516 -0.0136
  189DOPC   C3423339   3.496   1.154   5.543  0.2941  0.2394  0.3853
  189DOPC   H4X23340   3.391   1.134   5.571  0.0923  0.8828  0.1034
  189DOPC   H4Y23341   3.505   1.264   5.558  0.0827  0.1785  0.9808
  189DOPC   C3523342   3.576   1.066   5.642  0.0388  0.2511  0.2103
  189DOPC   H5X23343   3.683   1.096   5.645 -0.2150  1.2516 -0.2477
  189DOPC   H5Y23344   3.571   0.957   5.618  0.6572  0.0838  0.7928
  189DOPC   C3623345   3.524   1.084   5.787 -0.4023 -0.1134 -0.1780
  189DOPC   H6X23346   3.429   1.026   5.792 -0.2015 -0.3779  0.9990
  189DOPC   H6Y23347   3.599   1.033   5.851  0.3547  0.3713 -0.6612
  189DOPC   C3723348   3.514   1.232   5.833 -0.0029 -0.5366  0.1406
  189DOPC   H7X23349   3.463   1.298   5.760  1.0077 -0.9587 -0.9856
  189DOPC   H7Y23350   3.455   1.233   5.927 -0.4715 -0.0098 -0.1505
  189DOPC   C3823351   3.642   1.298   5.872  0.4482  0.2215  0.2745
  189DOPC   H8X23352   3.729   1.275   5.807 -0.5518  0.3890 -1.1620
  189DOPC   H8Y23353   3.677   1.248   5.965 -0.9136 -1.3595  0.0012
  189DOPC   C3923354   3.627   1.455   5.872 -0.0831  0.3045  0.3866
  189DOPC   H9X23355   3.577   1.489   5.780  1.9853  2.2249 -0.1061
  189DOPC  C31023356   3.672   1.538   5.971  0.0977 -0.2881 -0.2728
  189DOPC  H10X23357   3.662   1.648   5.970  3.7257  0.1889  0.5439
  189DOPC  C31123358   3.745   1.501   6.095 -0.1471  0.2231 -0.2169
  189DOPC  H11X23359   3.852   1.530   6.097 -0.0109 -0.2795  0.5230
  189DOPC  H11Y23360   3.742   1.390   6.097  2.2173  0.0915  2.6279
  189DOPC  C31223361   3.689   1.536   6.231  0.5519 -0.0949 -0.8098
  189DOPC  H12X23362   3.594   1.480   6.246  0.6673 -0.0421  0.1987
  189DOPC  H12Y23363   3.667   1.643   6.250 -0.1932 -0.9280  4.4184
  189DOPC  C31323364   3.768   1.490   6.353 -0.1641 -0.7716  0.0348
  189DOPC  H13X23365   3.787   1.382   6.334 -1.8055 -0.9264 -0.9740
  189DOPC  H13Y23366   3.867   1.539   6.366  0.1913 -1.9428  2.3611
  189DOPC  C31423367   3.680   1.519   6.476  0.0448  0.1651 -0.4293
  189DOPC  H14X23368   3.643   1.624   6.477  2.9460  1.3204  1.9728
  189DOPC  H14Y23369   3.596   1.447   6.484  0.0525  0.2819  0.9726
  189DOPC  C31523370   3.764   1.515   6.602  0.6335  0.3244 -0.1608
  189DOPC  H15X23371   3.861   1.568   6.590  0.4657  0.5012 -0.7514
  189DOPC  H15Y23372   3.795   1.410   6.619 -2.2184 -0.4903  0.6083
  189DOPC  C31623373   3.694   1.582   6.723  0.5484  0.6310  0.0704
  189DOPC  H16X23374   3.691   1.690   6.700 -3.0292  0.4721 -0.7628
  189DOPC  H16Y23375   3.588   1.557   6.743  0.4917 -1.4517 -2.2851
  189DOPC  C31723376   3.783   1.565   6.852 -1.6790 -0.2249 -0.3131
  189DOPC  H17X23377   3.890   1.551   6.827 -1.4716 -4.5105  2.0860
  189DOPC  H17Y23378   3.783   1.663   6.905 -0.0738  1.5139 -3.2700
  189DOPC  C31823379   3.730   1.454   6.941  0.0527  0.2243  0.2520
  189DOPC  H18X23380   3.712   1.363   6.880 -1.6922 -1.1989  2.7047
  189DOPC  H18Y23381   3.792   1.433   7.030 -1.6580 -1.8045  1.0386
  189DOPC  H18Z23382   3.632   1.485   6.983 -0.9340  0.7848 -2.2387
  190DOPC     N23383   2.513   1.376   4.360 -0.3418 -0.4512  0.1024
  190DOPC   C1223384   2.535   1.308   4.492 -0.3929  0.6555 -0.7297
  190DOPC  H12A23385   2.495   1.366   4.574 -0.9484 -2.2617  1.2143
  190DOPC  H12B23386   2.641   1.296   4.508 -0.6649  1.5921  2.4981
  190DOPC   C1323387   2.558   1.298   4.239 -0.0317 -0.4111  0.3037
  190DOPC  H13A23388   2.662   1.271   4.251 -0.2819 -1.3598  0.5006
  190DOPC  H13B23389   2.504   1.205   4.247 -1.4052  0.2519 -0.8520
  190DOPC  H13C23390   2.531   1.351   4.149  1.6419  1.7483  1.0016
  190DOPC   C1423391   2.600   1.503   4.357 -0.2711  0.2458  0.0416
  190DOPC  H14A23392   2.706   1.482   4.366 -0.0773  0.4443 -1.4306
  190DOPC  H14B23393   2.589   1.556   4.263  2.0408 -0.4744 -0.7049
  190DOPC  H14C23394   2.571   1.576   4.431  0.5206 -0.1646  0.7734
  190DOPC   C1523395   2.368   1.404   4.338 -0.2076 -0.1740 -0.1706
  190DOPC  H15A23396   2.319   1.312   4.367  0.9143  0.2827  3.8121
  190DOPC  H15B23397   2.352   1.432   4.235 -1.0463 -0.2617 -0.0693
  190DOPC  H15C23398   2.335   1.483   4.402  1.1831  0.0649  0.2941
  190DOPC   C1123399   2.471   1.161   4.505 -0.3387  0.4634  0.0739
  190DOPC  H11A23400   2.486   1.130   4.611  0.1751 -0.8394 -0.3736
  190DOPC  H11B23401   2.361   1.168   4.488 -0.5676 -0.1729  1.1699
  190DOPC     P23402   2.681   1.009   4.437 -0.2399  0.4281  0.4923
  190DOPC   O1323403   2.754   1.017   4.302 -0.3710  0.2303  0.6955
  190DOPC   O1423404   2.660   0.871   4.493 -0.1966  0.1502 -0.0769
  190DOPC   O1223405   2.537   1.062   4.417  0.3089 -0.4385  0.7015
  190DOPC   O1123406   2.740   1.092   4.548  0.1363 -0.1342  0.3313
  190DOPC    C123407   2.881   1.105   4.576  0.1680 -0.7106 -0.4572
  190DOPC    HA23408   2.900   1.215   4.571  0.8358 -0.8666 -2.0167
  190DOPC    HB23409   2.948   1.049   4.508 -1.3077 -1.1155 -1.6335
  190DOPC    C223410   2.918   1.054   4.718  0.2061  0.9479  0.0773
  190DOPC    HS23411   3.027   1.076   4.719  0.0843  1.7590 -1.4634
  190DOPC   O2123412   2.901   0.909   4.716 -0.2072 -0.1852 -0.5941
  190DOPC   C2123413   3.002   0.844   4.787  0.6147  0.8418  0.1326
  190DOPC   O2223414   3.115   0.883   4.804 -0.2126  0.6135  0.3490
  190DOPC   C2223415   2.938   0.713   4.829 -0.3889  0.2712  0.3462
  190DOPC   H2R23416   2.923   0.657   4.735  2.1734 -1.7247  0.9996
  190DOPC   H2S23417   2.840   0.739   4.873  0.0829  1.5383  0.6849
  190DOPC    C323418   2.835   1.115   4.833 -0.4362 -0.2543 -0.0336
  190DOPC    HX23419   2.730   1.089   4.809 -0.8202  0.3940  0.8916
  190DOPC    HY23420   2.839   1.226   4.833 -0.5085 -0.2515  0.2073
  190DOPC   O3123421   2.871   1.075   4.968 -0.0441  0.2436  0.2799
  190DOPC   C3123422   2.975   1.130   5.021  0.0374  0.0761 -0.6456
  190DOPC   O3223423   3.062   1.190   4.961  0.0886 -0.0702 -0.6970
  190DOPC   C3223424   2.989   1.101   5.165  0.4456  0.3382 -0.2245
  190DOPC   H2X23425   2.885   1.112   5.203  0.0950  0.0681 -1.0756
  190DOPC   H2Y23426   3.015   0.993   5.162 -1.7138 -0.2349 -0.1758
  190DOPC   C2323427   3.024   0.634   4.930  1.5709 -0.1781  0.5829
  190DOPC   H3R23428   3.132   0.632   4.902  1.7474 -0.7626  1.2871
  190DOPC   H3S23429   2.995   0.527   4.943  0.8291 -0.0665 -0.0703
  190DOPC   C2423430   3.022   0.693   5.069  0.1035 -0.1688 -0.3313
  190DOPC   H4R23431   2.916   0.700   5.100 -0.2206  1.1837 -1.6011
  190DOPC   H4S23432   3.065   0.795   5.061  2.2162 -0.9831  0.0478
  190DOPC   C2523433   3.106   0.618   5.174 -0.1125 -0.0422 -0.1001
  190DOPC   H5R23434   3.208   0.600   5.134 -0.4770 -0.4098 -0.8917
  190DOPC   H5S23435   3.038   0.532   5.187  0.3737 -0.1555  2.0193
  190DOPC   C2623436   3.108   0.681   5.313  0.6386  0.2084  0.4957
  190DOPC   H6R23437   3.009   0.729   5.330  1.9449  2.7746  1.3429
  190DOPC   H6S23438   3.189   0.757   5.319  0.3236  0.4950  1.3430
  190DOPC   C2723439   3.126   0.577   5.427 -0.0971  0.2310 -0.0302
  190DOPC   H7R23440   3.229   0.534   5.427 -0.8587 -1.7142  0.3707
  190DOPC   H7S23441   3.056   0.491   5.422 -1.4492  1.2839  0.2860
  190DOPC   C2823442   3.104   0.636   5.566  0.3998 -0.3553  0.5866
  190DOPC   H8R23443   3.003   0.681   5.577  0.4304  0.0562 -0.6532
  190DOPC   H8S23444   3.173   0.724   5.565  1.3158 -0.8872 -4.1044
  190DOPC   C2923445   3.136   0.555   5.690  0.0073  0.5770  0.1149
  190DOPC   H9R23446   3.241   0.541   5.718 -0.4790  0.5194  2.0512
  190DOPC  C21023447   3.047   0.479   5.760  0.1810 -0.9883  0.3626
  190DOPC  H10R23448   3.087   0.396   5.821  1.4761  0.1048  1.0540
  190DOPC  C21123449   2.887   0.480   5.741  0.0929  0.4572  0.3711
  190DOPC  H11R23450   2.846   0.577   5.705  2.7962  0.6256 -2.7339
  190DOPC  H11S23451   2.839   0.450   5.836  0.5261 -0.0044  0.4523
  190DOPC  C21223452   2.855   0.367   5.640  0.0268  0.3744  0.0623
  190DOPC  H12R23453   2.924   0.282   5.660 -2.4328 -2.4982 -2.5143
  190DOPC  H12S23454   2.876   0.403   5.537 -0.6024 -1.7450 -0.8843
  190DOPC  C21323455   2.706   0.323   5.638  0.2687 -0.4342  0.0083
  190DOPC  H13R23456   2.654   0.412   5.597  1.0610 -0.1365 -0.3731
  190DOPC  H13S23457   2.675   0.307   5.744 -3.0325 -0.8755 -0.9348
  190DOPC  C21423458   2.678   0.204   5.549 -0.8402  0.1667  0.4272
  190DOPC  H14R23459   2.711   0.110   5.599  0.5117  0.8119  0.8100
  190DOPC  H14S23460   2.741   0.219   5.459  0.0875  3.9787  1.5110
  190DOPC  C21523461   2.534   0.183   5.493  0.4204  0.6109 -0.3407
  190DOPC  H15R23462   2.502   0.272   5.435 -0.2423 -0.4443 -1.6480
  190DOPC  H15S23463   2.474   0.181   5.587  2.4542  0.7885  1.0224
  190DOPC  C21623464   2.517   0.055   5.406  1.0923 -0.1559 -0.3317
  190DOPC  H16R23465   2.535  -0.031   5.473 -1.5912 -1.1521 -0.7657
  190DOPC  H16S23466   2.595   0.060   5.326  0.3075 -0.4046 -1.1370
  190DOPC  C21723467   2.380   0.041   5.332 -0.5993  0.1306  0.3500
  190DOPC  H17R23468   2.395  -0.050   5.271  0.9851 -0.3200  1.3352
  190DOPC  H17S23469   2.359   0.124   5.261 -0.1265 -0.1201 -0.0933
  190DOPC  C21823470   2.256   0.016   5.414 -0.1401  0.2460 -0.6068
  190DOPC  H18R23471   2.277  -0.069   5.483  1.0153  1.2998  0.3908
  190DOPC  H18S23472   2.163   0.011   5.354  0.2342 -1.3289 -1.1031
  190DOPC  H18T23473   2.232   0.103   5.479  1.0883  2.1933 -2.6117
  190DOPC   C3323474   3.093   1.187   5.243  0.4173 -0.4648  0.0529
  190DOPC   H3X23475   3.071   1.296   5.238  0.9727 -0.3114  0.7130
  190DOPC   H3Y23476   3.198   1.186   5.206  1.3654  2.6013  2.2384
  190DOPC   C3423477   3.081   1.155   5.399 -0.1482 -0.0119 -0.2405
  190DOPC   H4X23478   3.172   1.203   5.441 -0.0461  1.0688 -1.6301
  190DOPC   H4Y23479   3.089   1.045   5.411  3.0731  0.2896  1.5824
  190DOPC   C3523480   2.956   1.213   5.469 -0.1007 -0.2311  0.1773
  190DOPC   H5X23481   2.971   1.196   5.577  0.0082 -1.1374  0.0310
  190DOPC   H5Y23482   2.869   1.158   5.427  1.0851 -1.6697 -0.4881
  190DOPC   C3623483   2.934   1.364   5.460 -0.1388  0.1781  0.2447
  190DOPC   H6X23484   3.017   1.421   5.508 -1.2397  0.2964  2.1285
  190DOPC   H6Y23485   2.937   1.383   5.351  0.1594  0.2605  0.2677
  190DOPC   C3723486   2.793   1.418   5.502 -0.0274 -0.3185 -0.1233
  190DOPC   H7X23487   2.717   1.396   5.424  1.0489 -3.7363 -0.4170
  190DOPC   H7Y23488   2.766   1.352   5.587  1.1590 -0.2856  0.3049
  190DOPC   C3823489   2.795   1.569   5.546  0.0903 -0.2396  0.1599
  190DOPC   H8X23490   2.894   1.588   5.593 -0.7565  3.1029  0.8519
  190DOPC   H8Y23491   2.716   1.569   5.625 -0.9015  0.9904 -0.7866
  190DOPC   C3923492   2.758   1.658   5.433  0.1267 -0.0108 -0.7262
  190DOPC   H9X23493   2.690   1.623   5.354 -0.6317  0.3733 -0.2638
  190DOPC  C31023494   2.821   1.773   5.408 -0.1641  0.1904 -0.4765
  190DOPC  H10X23495   2.781   1.838   5.328  0.6656  0.9612 -0.2762
  190DOPC  C31123496   2.932   1.836   5.489 -0.1194  0.2008 -0.0994
  190DOPC  H11X23497   3.014   1.763   5.474  0.7755  1.0975  0.3184
  190DOPC  H11Y23498   2.915   1.828   5.598 -1.7392 -2.2673 -0.4469
  190DOPC  C31223499   2.986   1.983   5.452 -0.6058  0.0816 -0.4409
  190DOPC  H12X23500   2.892   2.040   5.434 -1.6165 -2.0243 -2.3459
  190DOPC  H12Y23501   3.039   1.977   5.354 -1.3233  1.3334 -0.9287
  190DOPC  C31323502   3.091   2.049   5.546  0.1263  0.4648  0.0590
  190DOPC  H13X23503   3.165   1.976   5.584 -0.1635 -1.2969 -2.5602
  190DOPC  H13Y23504   3.157   2.126   5.501  0.2564 -0.0484 -0.6361
  190DOPC  C31423505   3.033   2.121   5.670  0.3920  0.3706  0.6099
  190DOPC  H14X23506   2.982   2.215   5.638 -1.7230 -0.7515  0.4459
  190DOPC  H14Y23507   2.954   2.049   5.702  1.2472  0.0438  2.0684
  190DOPC  C31523508   3.136   2.156   5.775 -0.0597  0.2532  0.1410
  190DOPC  H15X23509   3.183   2.060   5.806 -0.8369 -0.8214 -1.8576
  190DOPC  H15Y23510   3.083   2.208   5.858  0.9797  0.2482  0.8376
  190DOPC  C31623511   3.255   2.237   5.733 -0.2804 -0.1776 -0.2659
  190DOPC  H16X23512   3.338   2.221   5.804  1.4048  0.6496 -1.9732
  190DOPC  H16Y23513   3.305   2.199   5.642  0.6762  1.5101 -0.4970
  190DOPC  C31723514   3.229   2.389   5.711  0.6025 -0.7487  0.1362
  190DOPC  H17X23515   3.324   2.433   5.676  1.4751 -2.3371  0.4155
  190DOPC  H17Y23516   3.145   2.389   5.638 -0.8713 -0.8868  1.7539
  190DOPC  C31823517   3.169   2.466   5.832 -1.1157 -0.1845 -0.3746
  190DOPC  H18X23518   3.231   2.461   5.924 -1.4600 -0.9921 -0.1715
  190DOPC  H18Y23519   3.157   2.573   5.805 -0.0912 -0.5195 -2.3929
  190DOPC  H18Z23520   3.065   2.432   5.851 -1.4623  0.1740 -1.5498
  191DOPC     N23521   7.330   0.530   4.361 -0.5830  0.4505  0.1182
  191DOPC   C1223522   7.286   0.513   4.511 -0.2639 -0.2435 -0.1292
  191DOPC  H12A23523   7.225   0.599   4.535  2.2511  0.6026  4.5515
  191DOPC  H12B23524   7.364   0.518   4.586 -1.8464 -2.2808  1.7702
  191DOPC   C1323525   7.395   0.657   4.332 -0.5358 -0.2503 -0.4008
  191DOPC  H13A23526   7.436   0.665   4.232 -1.3775  0.5875 -0.6990
  191DOPC  H13B23527   7.334   0.745   4.347 -1.0150 -0.8748  1.4736
  191DOPC  H13C23528   7.485   0.660   4.392 -1.5959  1.2339  1.1960
  191DOPC   C1423529   7.207   0.526   4.273  0.1195  0.9220 -0.1517
  191DOPC  H14A23530   7.128   0.581   4.321 -1.6654 -2.3603  0.9536
  191DOPC  H14B23531   7.227   0.568   4.175 -0.3181  0.3811 -0.4765
  191DOPC  H14C23532   7.181   0.422   4.258 -0.7352  1.1769 -0.4584
  191DOPC   C1523533   7.421   0.413   4.329  0.3694  0.4456  0.4466
  191DOPC  H15A23534   7.356   0.330   4.354 -1.3545  1.3580 -0.8360
  191DOPC  H15B23535   7.499   0.405   4.403  0.2825 -0.9426  0.4178
  191DOPC  H15C23536   7.451   0.403   4.226  0.8187  3.1084  0.2545
  191DOPC   C1123537   7.212   0.380   4.549  0.5757 -0.2376  1.0817
  191DOPC  H11A23538   7.166   0.380   4.650 -0.0142  0.1486  0.8199
  191DOPC  H11B23539   7.135   0.381   4.469  2.0373 -1.3345 -0.4000
  191DOPC     P23540   7.402   0.220   4.634 -0.6695 -0.2474  0.0466
  191DOPC   O1323541   7.466   0.344   4.683 -0.4141 -0.3178 -0.4345
  191DOPC   O1423542   7.496   0.119   4.578  0.6112 -0.4056  0.1741
  191DOPC   O1223543   7.297   0.267   4.526 -0.1016 -0.4202 -0.6454
  191DOPC   O1123544   7.315   0.155   4.755 -0.2657 -0.1034  0.2235
  191DOPC    C123545   7.227   0.048   4.743  0.4195  0.3916  0.0077
  191DOPC    HA23546   7.235  -0.008   4.838  0.4818  1.8874  0.9081
  191DOPC    HB23547   7.251  -0.012   4.652 -0.9785  1.7017 -1.2935
  191DOPC    C223548   7.080   0.085   4.742  0.6239  0.1904 -0.3085
  191DOPC    HS23549   7.056   0.139   4.648  0.7875 -1.4352 -1.3174
  191DOPC   O2123550   7.040   0.152   4.866 -0.5488  0.5190  0.0797
  191DOPC   C2123551   6.941   0.246   4.864  0.0612  0.0812 -0.7704
  191DOPC   O2223552   6.881   0.288   4.767 -0.2273 -0.0875 -0.2245
  191DOPC   C2223553   6.923   0.298   5.016 -0.4432  0.1056 -0.3247
  191DOPC   H2R23554   6.956   0.404   5.013  1.9510 -0.6031 -2.9459
  191DOPC   H2S23555   7.002   0.241   5.070  3.1092  1.7015 -3.3639
  191DOPC    C323556   6.999  -0.055   4.727 -0.1214 -0.2361  0.9332
  191DOPC    HX23557   7.042  -0.119   4.808 -1.0814  1.4439  2.8529
  191DOPC    HY23558   7.015  -0.102   4.628  1.3329 -0.0051  1.0347
  191DOPC   O3123559   6.854  -0.049   4.757 -1.0289  0.2391  0.2601
  191DOPC   C3123560   6.778  -0.031   4.654  0.0238 -0.2486 -0.8482
  191DOPC   O3223561   6.821  -0.007   4.541 -0.1261 -0.5514 -0.4756
  191DOPC   C3223562   6.625  -0.047   4.690 -0.8764 -0.3060 -0.2104
  191DOPC   H2X23563   6.602   0.053   4.730  1.0431 -0.1976  0.7326
  191DOPC   H2Y23564   6.572  -0.077   4.597  0.8115 -3.4374 -0.3070
  191DOPC   C2323565   6.788   0.272   5.095  0.0131 -0.0066 -0.0594
  191DOPC   H3R23566   6.763   0.164   5.096  0.9040 -0.2174  0.2917
  191DOPC   H3S23567   6.705   0.331   5.051 -1.2509 -0.7035  1.2998
  191DOPC   C2423568   6.795   0.312   5.242  0.0315 -0.1409 -0.4486
  191DOPC   H4R23569   6.800   0.423   5.250 -1.6798  0.0618 -1.7705
  191DOPC   H4S23570   6.879   0.263   5.296 -0.8827 -2.6592 -1.2116
  191DOPC   C2523571   6.661   0.284   5.313  0.1948  0.2635  0.2387
  191DOPC   H5R23572   6.645   0.175   5.321  0.7482  0.1768  0.1602
  191DOPC   H5S23573   6.580   0.341   5.262  0.3012  1.8499  1.7308
  191DOPC   C2623574   6.654   0.324   5.454  0.4465  0.1133 -0.5333
  191DOPC   H6R23575   6.551   0.339   5.494  0.2869 -0.6205 -0.6549
  191DOPC   H6S23576   6.712   0.418   5.467  0.9989  0.1224 -2.7441
  191DOPC   C2723577   6.708   0.210   5.545  0.2739 -0.5712 -0.9219
  191DOPC   H7R23578   6.790   0.153   5.497  1.0959 -0.8531  0.7371
  191DOPC   H7S23579   6.634   0.127   5.549  1.3147 -1.7593 -3.8319
  191DOPC   C2823580   6.734   0.257   5.688 -0.3525  0.2390  0.1802
  191DOPC   H8R23581   6.645   0.301   5.738  0.4615  4.2173 -1.4648
  191DOPC   H8S23582   6.815   0.333   5.687  0.9995 -1.1500 -0.1673
  191DOPC   C2923583   6.776   0.146   5.775 -0.2419 -0.2044 -0.1055
  191DOPC   H9R23584   6.863   0.092   5.737 -0.3590 -0.9416  0.6392
  191DOPC  C21023585   6.714   0.099   5.888  0.1999  0.2380 -0.2977
  191DOPC  H10R23586   6.760   0.012   5.937 -1.1175  1.1514  2.8030
  191DOPC  C21123587   6.583   0.154   5.952  0.3480  0.5337  0.4545
  191DOPC  H11R23588   6.510   0.072   5.970  1.2559 -0.1733  0.9674
  191DOPC  H11S23589   6.524   0.234   5.901  0.7753  0.0334 -0.8763
  191DOPC  C21223590   6.610   0.196   6.095 -0.3236 -0.0241  0.6312
  191DOPC  H12R23591   6.517   0.226   6.147 -0.3861 -1.3213  1.3058
  191DOPC  H12S23592   6.669   0.291   6.094 -2.6253  1.5094  1.4964
  191DOPC  C21323593   6.664   0.081   6.186  0.1855 -0.0168  0.3919
  191DOPC  H13R23594   6.773   0.064   6.171  0.2722 -0.2695  1.2464
  191DOPC  H13S23595   6.612  -0.014   6.163 -0.0349 -0.0293  0.9331
  191DOPC  C21423596   6.640   0.117   6.338 -0.1953 -0.6777  0.5091
  191DOPC  H14R23597   6.685   0.215   6.366  0.7924 -1.7836  3.1202
  191DOPC  H14S23598   6.697   0.056   6.412  0.2265  0.8741  1.5133
  191DOPC  C21523599   6.494   0.119   6.378 -0.5069  0.0222  0.3044
  191DOPC  H15R23600   6.457   0.014   6.385 -0.7159  0.0725 -0.0400
  191DOPC  H15S23601   6.428   0.172   6.307  0.7010 -1.3801 -2.0219
  191DOPC  C21623602   6.487   0.190   6.510  0.2894  0.1292  1.1148
  191DOPC  H16R23603   6.531   0.292   6.512  0.5987  0.0028  2.6504
  191DOPC  H16S23604   6.558   0.143   6.582  3.2130 -0.1431 -1.7028
  191DOPC  C21723605   6.352   0.181   6.575  0.8308  0.3254  0.7533
  191DOPC  H17R23606   6.285   0.252   6.522 -0.1771 -1.6687 -0.7983
  191DOPC  H17S23607   6.346   0.199   6.684 -1.6089  1.3292  0.5335
  191DOPC  C21823608   6.269   0.053   6.555 -0.6037  0.2345 -0.3403
  191DOPC  H18R23609   6.301  -0.037   6.612 -2.8184 -0.1157  0.4764
  191DOPC  H18S23610   6.254   0.026   6.448  2.7355 -0.3634 -0.7411
  191DOPC  H18T23611   6.169   0.084   6.593 -0.4173 -1.5544  1.8286
  191DOPC   C3323612   6.587  -0.161   4.799 -0.3897  0.4787 -0.2015
  191DOPC   H3X23613   6.639  -0.253   4.765  1.1630  0.6037  1.6331
  191DOPC   H3Y23614   6.477  -0.168   4.789 -0.2504 -0.8691 -1.0037
  191DOPC   C3423615   6.633  -0.130   4.941 -0.3931  0.5731 -0.0687
  191DOPC   H4X23616   6.606  -0.024   4.955  1.5820  1.0157  0.6344
  191DOPC   H4Y23617   6.740  -0.154   4.959 -1.2957 -2.2827  2.3597
  191DOPC   C3523618   6.560  -0.207   5.048  0.3295  0.2150  0.0199
  191DOPC   H5X23619   6.453  -0.212   5.020  0.5499  0.0016 -0.8083
  191DOPC   H5Y23620   6.558  -0.165   5.151 -0.0510  0.0862  0.0689
  191DOPC   C3623621   6.596  -0.352   5.066 -0.0280  0.3447 -0.4070
  191DOPC   H6X23622   6.656  -0.377   4.976  1.1720  1.7594 -0.0344
  191DOPC   H6Y23623   6.671  -0.361   5.148 -1.0549 -0.1572  0.5073
  191DOPC   C3723624   6.487  -0.450   5.112 -0.1157  0.3293  0.0203
  191DOPC   H7X23625   6.399  -0.454   5.044  0.4754 -1.0111 -0.7215
  191DOPC   H7Y23626   6.528  -0.553   5.109  0.3086  0.3942  2.1163
  191DOPC   C3823627   6.445  -0.423   5.260 -0.3136  0.3738 -0.5560
  191DOPC   H8X23628   6.426  -0.314   5.266  3.5400  1.1345  0.7938
  191DOPC   H8Y23629   6.535  -0.435   5.324  0.6742 -1.1597 -2.1100
  191DOPC   C3923630   6.326  -0.506   5.306  0.0240 -0.1479  0.2949
  191DOPC   H9X23631   6.258  -0.557   5.236 -0.1095 -0.7310  0.8382
  191DOPC  C31023632   6.296  -0.517   5.437 -0.5434 -0.0531 -0.3106
  191DOPC  H10X23633   6.214  -0.589   5.452  1.4325 -2.9049 -2.2155
  191DOPC  C31123634   6.367  -0.458   5.552  0.8626 -0.8464 -0.3622
  191DOPC  H11X23635   6.477  -0.456   5.534  1.1028 -0.0761  1.0264
  191DOPC  H11Y23636   6.357  -0.532   5.635  2.9130  1.4386  2.0943
  191DOPC  C31223637   6.314  -0.317   5.607 -0.4736  0.4047  0.4553
  191DOPC  H12X23638   6.206  -0.330   5.632 -0.1360  1.7168  2.8542
  191DOPC  H12Y23639   6.317  -0.246   5.521 -1.3263 -0.6239 -0.4567
  191DOPC  C31323640   6.389  -0.267   5.728  0.3003  0.0917 -0.9058
  191DOPC  H13X23641   6.499  -0.279   5.712  0.7375  0.7452  1.2241
  191DOPC  H13Y23642   6.367  -0.159   5.741 -3.9783 -0.7848  0.4913
  191DOPC  C31423643   6.373  -0.352   5.860  0.0414  0.6629 -0.2904
  191DOPC  H14X23644   6.279  -0.407   5.883  2.4167 -2.8300  2.1578
  191DOPC  H14Y23645   6.440  -0.440   5.843 -0.2730  0.3915 -0.1399
  191DOPC  C31523646   6.417  -0.279   5.990 -0.0978  0.0552 -0.1487
  191DOPC  H15X23647   6.328  -0.227   6.032 -0.2487  1.3902 -1.9889
  191DOPC  H15Y23648   6.495  -0.203   5.972 -1.4342  1.4716 -0.1740
  191DOPC  C31623649   6.456  -0.367   6.103 -0.1381 -0.0584 -0.2536
  191DOPC  H16X23650   6.392  -0.457   6.118 -1.4774  0.5622 -1.9203
  191DOPC  H16Y23651   6.564  -0.394   6.093 -0.3368 -0.4727 -1.4507
  191DOPC  C31723652   6.457  -0.293   6.241  0.3096 -0.2164  0.6982
  191DOPC  H17X23653   6.502  -0.365   6.312  0.2184 -1.2166 -0.2313
  191DOPC  H17Y23654   6.515  -0.202   6.214 -0.0352 -0.7583 -2.1286
  191DOPC  C31823655   6.320  -0.272   6.312 -0.2902 -1.0693 -0.4601
  191DOPC  H18X23656   6.279  -0.375   6.324 -0.4671 -0.7968  1.6122
  191DOPC  H18Y23657   6.331  -0.222   6.411 -1.2560 -2.5780  0.4417
  191DOPC  H18Z23658   6.259  -0.205   6.248  0.3301  0.1815  0.2209
  192DOPC     N23659   0.637   4.827   4.420 -0.2803 -0.6395  0.0373
  192DOPC   C1223660   0.674   4.902   4.550  0.5876  0.0656 -0.1715
  192DOPC  H12A23661   0.728   4.993   4.526 -1.5579  1.3798 -0.2370
  192DOPC  H12B23662   0.745   4.846   4.609  0.0529  0.3652  0.7628
  192DOPC   C1323663   0.570   4.699   4.458 -0.3421  0.1450 -0.5277
  192DOPC  H13A23664   0.626   4.647   4.534 -0.7873  0.1179 -0.2134
  192DOPC  H13B23665   0.470   4.720   4.491 -0.6318 -0.1641 -1.1823
  192DOPC  H13C23666   0.561   4.637   4.370 -1.0604 -1.9887  0.9541
  192DOPC   C1423667   0.765   4.798   4.341 -0.4942 -0.6238 -0.3865
  192DOPC  H14A23668   0.839   4.740   4.394  0.2042 -0.3110 -0.9991
  192DOPC  H14B23669   0.752   4.748   4.246  3.4246  0.9645 -1.9972
  192DOPC  H14C23670   0.820   4.889   4.321 -0.7128 -0.5777 -0.7800
  192DOPC   C1523671   0.542   4.895   4.327  0.2779  0.5945  0.7170
  192DOPC  H15A23672   0.576   4.987   4.283  0.7817 -0.8771 -2.2117
  192DOPC  H15B23673   0.452   4.914   4.384  0.1313  0.0008  0.6976
  192DOPC  H15C23674   0.533   4.818   4.252 -0.3802  1.1842  0.1812
  192DOPC   C1123675   0.563   4.925   4.658 -0.1220  0.2707 -0.8456
  192DOPC  H11A23676   0.514   4.826   4.673  1.2472 -0.6967 -2.3479
  192DOPC  H11B23677   0.616   4.957   4.750 -0.8756 -1.8134  0.3811
  192DOPC     P23678   0.310   4.979   4.619  0.0472 -0.2703  0.1022
  192DOPC   O1323679   0.292   4.853   4.546  0.0247  0.2139  0.5020
  192DOPC   O1423680   0.234   5.102   4.574  0.1309  0.3607  0.6689
  192DOPC   O1223681   0.466   5.019   4.607  0.2054 -0.2211  0.4478
  192DOPC   O1123682   0.300   4.955   4.773 -0.4875 -0.2441  0.7277
  192DOPC    C123683   0.260   5.064   4.861 -0.3608  0.0507 -0.1879
  192DOPC    HA23684   0.240   5.012   4.958  1.2024 -2.1479 -0.9593
  192DOPC    HB23685   0.169   5.117   4.826  1.4978  3.4105 -0.3114
  192DOPC    C223686   0.378   5.162   4.887  0.3004  0.5260 -0.1337
  192DOPC    HS23687   0.408   5.202   4.788  0.5003 -3.0038 -1.6562
  192DOPC   O2123688   0.481   5.087   4.942 -0.0954 -0.0392  0.2599
  192DOPC   C2123689   0.593   5.148   4.971  0.3177  0.6001  0.4501
  192DOPC   O2223690   0.624   5.261   4.944  0.0252  0.0798 -0.0091
  192DOPC   C2223691   0.685   5.051   5.047  0.4415 -0.6188 -0.2738
  192DOPC   H2R23692   0.774   5.037   4.983  0.8128  0.5567 -0.0386
  192DOPC   H2S23693   0.631   4.957   5.072  1.7056 -1.1957  0.3691
  192DOPC    C323694   0.342   5.292   4.967 -0.0537 -0.8215 -0.4632
  192DOPC    HX23695   0.245   5.321   4.919  0.2113 -0.2307 -0.6537
  192DOPC    HY23696   0.418   5.373   4.960  0.2077 -0.9448  0.7341
  192DOPC   O3123697   0.317   5.263   5.106 -0.2023  0.1153  0.1344
  192DOPC   C3123698   0.241   5.348   5.175 -0.2121 -0.1094  0.4241
  192DOPC   O3223699   0.169   5.433   5.136  0.1928 -0.1589  0.3173
  192DOPC   C3223700   0.257   5.326   5.328 -0.1627 -0.4103 -0.0195
  192DOPC   H2X23701   0.288   5.420   5.378  1.9715 -0.9516 -0.2614
  192DOPC   H2Y23702   0.162   5.291   5.375  0.9549  0.5746  3.2055
  192DOPC   C2323703   0.741   5.107   5.182  0.1312  0.6818 -0.0603
  192DOPC   H3R23704   0.729   5.217   5.190 -0.9228  0.4678  1.8548
  192DOPC   H3S23705   0.851   5.102   5.169 -0.1517 -1.0515 -2.7131
  192DOPC   C2423706   0.683   5.038   5.305 -0.3351 -0.0356  0.8095
  192DOPC   H4R23707   0.712   4.931   5.296 -0.5485 -0.1617  1.5588
  192DOPC   H4S23708   0.572   5.040   5.299 -0.3086  1.1940  0.3163
  192DOPC   C2523709   0.731   5.093   5.447  0.5336 -0.2212  0.4482
  192DOPC   H5R23710   0.674   5.030   5.518  0.8160 -1.0557 -0.0488
  192DOPC   H5S23711   0.709   5.201   5.456  0.8616  0.1214 -2.0843
  192DOPC   C2623712   0.882   5.077   5.458  0.2706  0.1111  0.4707
  192DOPC   H6R23713   0.923   5.158   5.394 -0.4826 -0.2644 -0.5071
  192DOPC   H6S23714   0.916   4.979   5.418  1.1311  0.2634  0.7921
  192DOPC   C2723715   0.938   5.104   5.599 -0.5152 -0.4889  0.0100
  192DOPC   H7R23716   0.869   5.176   5.649  0.2880 -0.0301  0.4848
  192DOPC   H7S23717   1.038   5.152   5.586 -1.4548  1.9056  0.9057
  192DOPC   C2823718   0.971   4.978   5.680  0.3604  0.5469  0.4518
  192DOPC   H8R23719   1.043   4.927   5.613 -1.2602  0.1321 -1.0368
  192DOPC   H8S23720   0.878   4.918   5.681 -0.2381  1.4701  0.9060
  192DOPC   C2923721   1.028   5.002   5.811 -0.1380 -0.7622 -0.4821
  192DOPC   H9R23722   1.129   5.043   5.802 -0.7519  0.4636 -2.4154
  192DOPC  C21023723   0.969   4.984   5.933 -0.0064  0.4412  1.1549
  192DOPC  H10R23724   1.021   5.016   6.025  0.2034  2.4170  0.3960
  192DOPC  C21123725   0.831   4.930   5.956  0.5152  0.2957  0.2132
  192DOPC  H11R23726   0.831   4.819   5.950 -1.5539  0.3429 -1.7311
  192DOPC  H11S23727   0.768   4.954   5.868  1.4714 -0.7452 -0.7749
  192DOPC  C21223728   0.763   4.975   6.086 -0.0088 -0.4468  0.0963
  192DOPC  H12R23729   0.653   4.973   6.072  0.2868 -1.1101 -2.7493
  192DOPC  H12S23730   0.778   5.082   6.113 -0.6443 -0.3771  0.1825
  192DOPC  C21323731   0.796   4.875   6.202  0.3968 -0.2016 -0.0489
  192DOPC  H13R23732   0.902   4.882   6.235  0.0690 -3.5219  2.2060
  192DOPC  H13S23733   0.771   4.771   6.170 -1.9362 -0.0366  1.0480
  192DOPC  C21423734   0.704   4.891   6.325  0.0518 -0.3317  0.5556
  192DOPC  H14R23735   0.726   4.802   6.387 -1.7813 -0.9027  0.4470
  192DOPC  H14S23736   0.597   4.880   6.296  0.3397  0.3489 -0.8268
  192DOPC  C21523737   0.727   5.015   6.407  0.5945 -0.4448  0.6315
  192DOPC  H15R23738   0.693   5.113   6.366  0.8339 -0.1974  1.0148
  192DOPC  H15S23739   0.837   5.027   6.400  0.3079  1.5270 -1.6779
  192DOPC  C21623740   0.675   5.013   6.550 -0.1572 -0.5682  0.5461
  192DOPC  H16R23741   0.746   5.071   6.613 -1.7330  0.3976  1.4851
  192DOPC  H16S23742   0.675   4.908   6.586  1.8736 -0.3709  1.2702
  192DOPC  C21723743   0.537   5.080   6.567 -0.0096 -0.2836 -0.3427
  192DOPC  H17R23744   0.543   5.182   6.524 -0.3341 -1.2161 -2.7660
  192DOPC  H17S23745   0.515   5.086   6.675 -0.0630  1.4877 -0.4286
  192DOPC  C21823746   0.411   5.000   6.516  0.3680 -0.9713  0.1737
  192DOPC  H18R23747   0.421   4.903   6.570  0.4181 -0.6690  0.7104
  192DOPC  H18S23748   0.406   4.986   6.406 -0.3569  0.4258  0.0141
  192DOPC  H18T23749   0.325   5.063   6.547  0.0481 -0.2260 -2.0415
  192DOPC   C3323750   0.363   5.219   5.366 -0.2281  0.4095 -0.0352
  192DOPC   H3X23751   0.458   5.232   5.310 -0.4089 -0.2422 -0.5152
  192DOPC   H3Y23752   0.321   5.120   5.336  0.7657  0.1156 -0.4940
  192DOPC   C3423753   0.400   5.214   5.516 -0.1019 -0.1728 -0.2734
  192DOPC   H4X23754   0.460   5.124   5.543 -0.1504 -0.5462 -1.3819
  192DOPC   H4Y23755   0.310   5.205   5.581 -0.4918 -2.3785 -1.0406
  192DOPC   C3523756   0.481   5.335   5.560  0.3731 -0.4494 -0.3474
  192DOPC   H5X23757   0.420   5.427   5.548  0.2563  0.2521  4.0994
  192DOPC   H5Y23758   0.564   5.345   5.487 -0.7756  0.3053 -1.5957
  192DOPC   C3623759   0.538   5.316   5.706  0.1604 -0.0415 -0.1520
  192DOPC   H6X23760   0.448   5.294   5.766 -0.4113 -2.5180 -1.7747
  192DOPC   H6Y23761   0.600   5.225   5.692  0.5640  0.1169  0.5391
  192DOPC   C3723762   0.601   5.450   5.765  0.2417 -0.5338  0.1198
  192DOPC   H7X23763   0.704   5.459   5.723  0.5481 -3.2672  0.0876
  192DOPC   H7Y23764   0.545   5.536   5.722 -1.6707 -1.3532  0.8723
  192DOPC   C3823765   0.614   5.450   5.920  0.3835 -0.2126  0.5605
  192DOPC   H8X23766   0.661   5.351   5.937  0.1376 -0.5037 -0.4017
  192DOPC   H8Y23767   0.512   5.444   5.964 -0.4922 -0.7992 -1.4356
  192DOPC   C3923768   0.690   5.578   5.963 -0.0026 -0.9868  0.8360
  192DOPC   H9X23769   0.633   5.670   5.983 -2.1867 -1.4070 -2.6033
  192DOPC  C31023770   0.823   5.579   5.996 -0.3593 -0.0353  0.5713
  192DOPC  H10X23771   0.876   5.669   6.029 -1.1099  0.4478  0.4938
  192DOPC  C31123772   0.912   5.461   5.986  0.0980  0.1078  0.4013
  192DOPC  H11X23773   0.953   5.461   5.882  1.5057 -1.6975  0.9110
  192DOPC  H11Y23774   0.866   5.360   5.992 -1.6040  0.6107 -2.4395
  192DOPC  C31223775   1.030   5.464   6.084 -0.2063 -1.0907  0.3280
  192DOPC  H12X23776   1.075   5.565   6.073  0.4480 -1.4711 -0.5752
  192DOPC  H12Y23777   1.097   5.381   6.053 -1.0555 -1.0969 -1.6219
  192DOPC  C31323778   0.998   5.427   6.230 -0.6147 -0.2062 -0.3079
  192DOPC  H13X23779   0.911   5.488   6.263 -1.1697 -1.5267  0.7182
  192DOPC  H13Y23780   0.956   5.325   6.231 -3.9686  0.9422  3.6032
  192DOPC  C31423781   1.123   5.464   6.323  0.1156 -0.7467  0.1220
  192DOPC  H14X23782   1.207   5.427   6.260 -1.9874 -3.8954 -1.0759
  192DOPC  H14Y23783   1.125   5.575   6.324  2.3708 -0.7214 -1.2130
  192DOPC  C31523784   1.103   5.410   6.464  0.4495  0.0875  0.1997
  192DOPC  H15X23785   0.999   5.430   6.495 -0.0632 -1.5178 -0.4114
  192DOPC  H15Y23786   1.170   5.460   6.538 -0.2456  1.0876  0.1649
  192DOPC  C31623787   1.118   5.256   6.464 -0.5414  0.5075  0.4262
  192DOPC  H16X23788   1.041   5.204   6.403  0.5402 -0.2027 -0.3757
  192DOPC  H16Y23789   1.213   5.232   6.411 -0.0513  0.8126  1.1480
  192DOPC  C31723790   1.133   5.187   6.596  0.5468  0.1513 -0.5654
  192DOPC  H17X23791   1.156   5.079   6.591  2.8596  0.6198 -1.0324
  192DOPC  H17Y23792   1.220   5.239   6.641  0.0092  1.7615 -1.2984
  192DOPC  C31823793   1.008   5.223   6.675  0.1776  0.5514 -0.6905
  192DOPC  H18X23794   1.001   5.159   6.766 -0.3938  0.8561 -0.5123
  192DOPC  H18Y23795   1.000   5.327   6.713  2.1388  0.2985  0.6000
  192DOPC  H18Z23796   0.922   5.203   6.608 -2.6039  0.1588  2.6689
  193DOPC     N23797   0.912   3.326   4.651  0.3239 -0.2420 -0.1780
  193DOPC   C1223798   1.041   3.248   4.658  0.2600  0.2548  0.2843
  193DOPC  H12A23799   1.125   3.309   4.626  0.9293 -0.5907  0.3852
  193DOPC  H12B23800   1.026   3.161   4.596  1.5640 -0.5427  1.0213
  193DOPC   C1323801   0.807   3.257   4.721 -0.4042  0.2709 -1.0401
  193DOPC  H13A23802   0.858   3.206   4.800  0.5558  1.2841 -0.9843
  193DOPC  H13B23803   0.728   3.318   4.764  0.3609  0.1229  0.6156
  193DOPC  H13C23804   0.761   3.183   4.657 -0.1251 -2.6726  1.8974
  193DOPC   C1423805   0.870   3.354   4.508  0.1742  0.2853  0.1664
  193DOPC  H14A23806   0.794   3.431   4.505 -1.1127 -0.7336  2.9532
  193DOPC  H14B23807   0.954   3.394   4.453 -0.3404  2.0153  0.5790
  193DOPC  H14C23808   0.826   3.263   4.470 -1.6894  1.0684  0.3479
  193DOPC   C1523809   0.930   3.458   4.718 -0.8317 -0.6037 -0.3569
  193DOPC  H15A23810   0.910   3.439   4.823 -2.1650 -0.6191 -0.5995
  193DOPC  H15B23811   0.856   3.530   4.688  0.6588  1.0869 -0.1439
  193DOPC  H15C23812   1.029   3.499   4.701 -0.4120 -1.4543 -0.0582
  193DOPC   C1123813   1.082   3.204   4.799 -0.3612 -0.6812  0.0425
  193DOPC  H11A23814   1.192   3.185   4.790  0.2852  2.8807 -1.1407
  193DOPC  H11B23815   1.083   3.288   4.872  2.8048  1.2902 -2.0195
  193DOPC     P23816   1.031   2.942   4.759  0.2383  0.1811 -0.0152
  193DOPC   O1323817   1.170   2.930   4.706  0.5121 -0.3472 -0.1933
  193DOPC   O1423818   0.913   2.931   4.667  0.1189  0.1764  0.2094
  193DOPC   O1223819   1.012   3.084   4.837 -0.1753  0.3467 -0.5218
  193DOPC   O1123820   1.012   2.850   4.890 -0.2443  0.2593 -0.3976
  193DOPC    C123821   1.094   2.870   5.007 -0.2033 -1.0710  0.0191
  193DOPC    HA23822   1.038   2.931   5.081  0.2076 -0.9802  0.2596
  193DOPC    HB23823   1.190   2.918   4.979 -1.0192  0.4072 -0.3612
  193DOPC    C223824   1.120   2.737   5.073 -0.4424  0.2823 -0.3080
  193DOPC    HS23825   1.145   2.669   4.988 -0.1403  0.1341 -0.1055
  193DOPC   O2123826   0.997   2.695   5.137  0.2456 -0.0391  0.0043
  193DOPC   C2123827   0.975   2.578   5.177 -0.0538 -0.0783 -0.0255
  193DOPC   O2223828   1.059   2.485   5.180  0.2251 -0.0350 -0.1739
  193DOPC   C2223829   0.844   2.575   5.246 -0.7990  0.0072  0.7471
  193DOPC   H2R23830   0.777   2.494   5.209 -1.5250  1.3524 -0.9963
  193DOPC   H2S23831   0.790   2.671   5.230 -0.7270 -0.0146  0.3716
  193DOPC    C323832   1.247   2.726   5.166  0.1721 -0.1511  0.7701
  193DOPC    HX23833   1.341   2.757   5.116 -1.4809  1.5610 -1.5343
  193DOPC    HY23834   1.266   2.618   5.184  0.2431 -0.1771  0.5383
  193DOPC   O3123835   1.228   2.799   5.296  0.4659  0.2571  0.3495
  193DOPC   C3123836   1.291   2.911   5.304 -0.0230  0.0929  0.3179
  193DOPC   O3223837   1.384   2.941   5.230 -0.9250 -0.0783  0.0894
  193DOPC   C3223838   1.209   3.012   5.389 -0.7540 -0.4906  0.1943
  193DOPC   H2X23839   1.275   3.063   5.463  0.1611 -0.4422 -0.6290
  193DOPC   H2Y23840   1.171   3.092   5.322  2.6342  0.6434 -0.5999
  193DOPC   C2323841   0.852   2.545   5.396  0.6687 -0.1849  0.0580
  193DOPC   H3R23842   0.899   2.446   5.415 -1.9455 -1.5334 -0.0454
  193DOPC   H3S23843   0.751   2.535   5.442  1.6080 -1.8103  1.9093
  193DOPC   C2423844   0.924   2.656   5.474  0.4685  0.2789 -0.3396
  193DOPC   H4R23845   0.867   2.750   5.458 -0.3959 -0.1536  0.1111
  193DOPC   H4S23846   1.026   2.670   5.432 -0.2529  1.1807 -1.8755
  193DOPC   C2523847   0.924   2.622   5.622  0.0891 -0.7084 -0.5368
  193DOPC   H5R23848   0.953   2.704   5.692 -0.8032 -0.6102 -0.2684
  193DOPC   H5S23849   0.999   2.541   5.632  0.9897  0.0952 -0.6747
  193DOPC   C2623850   0.795   2.564   5.680  0.3869 -0.0205  0.4371
  193DOPC   H6R23851   0.783   2.466   5.629  1.1663 -0.5581  1.2743
  193DOPC   H6S23852   0.709   2.634   5.667 -1.3072 -2.1791 -0.6168
  193DOPC   C2723853   0.804   2.536   5.829  0.4112 -0.1200 -0.0259
  193DOPC   H7R23854   0.812   2.628   5.890 -1.2392 -0.1249  0.2348
  193DOPC   H7S23855   0.896   2.476   5.847  1.2173  1.1603  0.1720
  193DOPC   C2823856   0.674   2.457   5.880 -0.9832  0.0927 -0.0406
  193DOPC   H8R23857   0.695   2.409   5.978  0.5857 -1.7154 -1.1926
  193DOPC   H8S23858   0.661   2.363   5.822 -0.9493 -0.6282  1.0960
  193DOPC   C2923859   0.539   2.533   5.874 -0.6235  0.7970  0.4569
  193DOPC   H9R23860   0.509   2.555   5.771 -1.3540 -0.4718  0.3780
  193DOPC  C21023861   0.472   2.577   5.984  0.1244  0.1497 -0.2835
  193DOPC  H10R23862   0.369   2.613   5.967 -0.4695 -1.0347  0.7184
  193DOPC  C21123863   0.514   2.575   6.129  0.9810  1.0154 -0.1632
  193DOPC  H11R23864   0.578   2.485   6.144  0.5733  0.6371 -0.6249
  193DOPC  H11S23865   0.413   2.551   6.170  1.6665 -2.1594 -0.0983
  193DOPC  C21223866   0.577   2.701   6.197 -0.0393 -0.2279 -0.2513
  193DOPC  H12R23867   0.505   2.786   6.201 -0.5304 -0.6531  0.0987
  193DOPC  H12S23868   0.661   2.733   6.132  0.3949  1.2221  0.9645
  193DOPC  C21323869   0.649   2.673   6.332 -0.4940 -0.4003  0.3710
  193DOPC  H13R23870   0.751   2.634   6.314 -0.3255  0.4233 -0.5397
  193DOPC  H13S23871   0.586   2.604   6.392  0.6851 -0.9733  0.9848
  193DOPC  C21423872   0.670   2.801   6.415 -0.3229 -0.2736 -0.1707
  193DOPC  H14R23873   0.721   2.875   6.350 -0.2133 -0.2937 -0.1075
  193DOPC  H14S23874   0.742   2.772   6.495  1.4832  0.5911 -1.4327
  193DOPC  C21523875   0.549   2.877   6.470  0.7555 -0.6888  0.0526
  193DOPC  H15R23876   0.483   2.909   6.386  1.4181  0.4446 -0.0477
  193DOPC  H15S23877   0.589   2.969   6.517  1.7303 -1.7529  1.3772
  193DOPC  C21623878   0.482   2.799   6.574  0.8680 -0.0446 -0.0368
  193DOPC  H16R23879   0.454   2.696   6.544  2.3037 -0.3813 -0.3215
  193DOPC  H16S23880   0.385   2.852   6.588  0.8197  0.1798 -1.1436
  193DOPC  C21723881   0.574   2.786   6.703 -0.2166  0.1741  0.1430
  193DOPC  H17R23882   0.632   2.879   6.724 -1.7869  0.3439  4.8814
  193DOPC  H17S23883   0.643   2.701   6.682  2.2777  1.4146  2.6835
  193DOPC  C21823884   0.503   2.751   6.834  0.9780 -0.4345 -0.4523
  193DOPC  H18R23885   0.448   2.844   6.861  0.5112  0.1133 -3.0267
  193DOPC  H18S23886   0.569   2.713   6.914  1.9161 -0.1611 -1.0739
  193DOPC  H18T23887   0.431   2.670   6.811  0.0952  0.8739 -2.6042
  193DOPC   C3323888   1.084   2.961   5.455  0.6066  0.1375  0.5275
  193DOPC   H3X23889   1.104   2.879   5.528  0.8291 -1.1381 -0.9107
  193DOPC   H3Y23890   1.017   2.918   5.378 -0.1142 -0.2620  1.3580
  193DOPC   C3423891   1.007   3.080   5.530  0.7114  0.7647  0.8364
  193DOPC   H4X23892   1.010   3.174   5.471 -1.1765  0.7242  0.6371
  193DOPC   H4Y23893   1.073   3.109   5.615  2.7852  1.5160 -0.9290
  193DOPC   C3523894   0.868   3.053   5.577  0.0260 -1.1825 -0.0068
  193DOPC   H5X23895   0.832   2.966   5.517  1.7163 -0.5885 -2.0318
  193DOPC   H5Y23896   0.797   3.135   5.551 -1.7964 -2.0426  1.9719
  193DOPC   C3623897   0.855   3.035   5.728  0.1747  0.0891  0.1532
  193DOPC   H6X23898   0.909   2.942   5.757  1.6367  0.5524 -0.9554
  193DOPC   H6Y23899   0.889   3.126   5.783 -3.5176  2.5301 -1.1695
  193DOPC   C3723900   0.706   3.021   5.772  0.1202 -0.3308 -0.3725
  193DOPC   H7X23901   0.649   3.116   5.760 -1.7668 -1.4542 -0.7298
  193DOPC   H7Y23902   0.659   2.948   5.702 -0.3322 -1.9650  1.5525
  193DOPC   C3823903   0.707   2.969   5.916  0.5713 -0.5231 -0.3646
  193DOPC   H8X23904   0.799   3.003   5.969 -0.2234 -0.4449  1.0066
  193DOPC   H8Y23905   0.716   2.859   5.913 -0.9856 -0.6772  0.0295
  193DOPC   C3923906   0.588   3.013   6.001 -0.8292 -0.1517 -0.3439
  193DOPC   H9X23907   0.514   2.934   6.016  0.5032 -1.1300  1.5176
  193DOPC  C31023908   0.560   3.125   6.063  0.1748 -0.4874 -0.2009
  193DOPC  H10X23909   0.465   3.141   6.117  1.0441  0.4182  1.1117
  193DOPC  C31123910   0.646   3.245   6.059 -0.1704  0.7138 -0.0764
  193DOPC  H11X23911   0.591   3.330   6.014  3.7257  3.3481 -0.4357
  193DOPC  H11Y23912   0.746   3.239   6.010 -0.7640  0.4795 -1.2808
  193DOPC  C31223913   0.679   3.290   6.202  0.0732 -0.2760 -0.2193
  193DOPC  H12X23914   0.593   3.278   6.272  0.3851 -2.2470 -0.1240
  193DOPC  H12Y23915   0.709   3.397   6.194 -0.1890 -0.2796 -1.3535
  193DOPC  C31323916   0.794   3.207   6.255 -0.3445  0.5501  0.0445
  193DOPC  H13X23917   0.768   3.101   6.272  3.5609 -0.5613  0.2248
  193DOPC  H13Y23918   0.870   3.216   6.173 -1.5387 -1.5328 -1.3812
  193DOPC  C31423919   0.856   3.264   6.383 -0.1217  0.0030 -0.2773
  193DOPC  H14X23920   0.957   3.221   6.401 -0.6827 -0.2115  2.9136
  193DOPC  H14Y23921   0.860   3.374   6.366 -1.7230  0.5467  2.2906
  193DOPC  C31523922   0.769   3.222   6.500  0.7363 -0.1691 -0.1429
  193DOPC  H15X23923   0.762   3.112   6.514 -1.0723 -0.1159 -0.3816
  193DOPC  H15Y23924   0.663   3.250   6.485  0.6570 -1.1995 -1.8194
  193DOPC  C31623925   0.807   3.298   6.633  0.2888 -0.3719  0.0669
  193DOPC  H16X23926   0.918   3.294   6.633  0.3025 -0.0446 -0.4435
  193DOPC  H16Y23927   0.774   3.402   6.612  0.0554 -0.4721 -0.0798
  193DOPC  C31723928   0.740   3.243   6.758  0.4689 -0.5778 -0.2751
  193DOPC  H17X23929   0.780   3.142   6.784  0.9317 -0.0867  0.9680
  193DOPC  H17Y23930   0.767   3.304   6.846 -0.4581 -0.5603  0.0004
  193DOPC  C31823931   0.591   3.237   6.735  0.3455 -0.1778 -0.2147
  193DOPC  H18X23932   0.556   3.163   6.659 -0.0865  1.1312 -1.3418
  193DOPC  H18Y23933   0.541   3.229   6.833  0.2055 -1.1416 -0.3565
  193DOPC  H18Z23934   0.561   3.333   6.688  0.3761  0.7204  1.5589
  194DOPC     N23935   2.083   2.000   4.625 -0.2742 -0.0139 -0.2430
  194DOPC   C1223936   2.116   1.932   4.760  0.8032 -0.1141  0.5287
  194DOPC  H12A23937   2.137   1.830   4.733 -2.3292 -0.9481  0.9100
  194DOPC  H12B23938   2.030   1.930   4.825  1.1547  1.4879  1.1128
  194DOPC   C1323939   2.207   2.003   4.536 -0.3310  0.6175 -0.1106
  194DOPC  H13A23940   2.288   2.059   4.581  0.6305  0.1461 -1.2106
  194DOPC  H13B23941   2.240   1.900   4.530 -1.5910  0.2395 -1.0447
  194DOPC  H13C23942   2.180   2.051   4.443 -1.5308 -1.9786 -1.2099
  194DOPC   C1423943   2.041   2.141   4.645 -0.6131  0.4937 -0.0184
  194DOPC  H14A23944   1.960   2.145   4.716  1.0749 -0.2066  2.0282
  194DOPC  H14B23945   2.130   2.189   4.683  0.6349 -1.1350 -0.7588
  194DOPC  H14C23946   2.027   2.186   4.548  0.7388 -1.8629 -1.4078
  194DOPC   C1523947   1.974   1.932   4.551 -0.3931  0.3804 -0.0796
  194DOPC  H15A23948   1.946   1.972   4.455 -1.3746 -0.4608 -0.1593
  194DOPC  H15B23949   1.884   1.930   4.611  0.7292 -2.1378  1.7282
  194DOPC  H15C23950   1.994   1.828   4.530 -0.6312  0.4754 -0.7784
  194DOPC   C1123951   2.227   1.996   4.839  0.3001 -0.6978 -0.2148
  194DOPC  H11A23952   2.199   2.102   4.855 -0.7020 -0.8344 -0.9977
  194DOPC  H11B23953   2.220   1.951   4.941 -1.6366  0.0919  0.0376
  194DOPC     P23954   2.435   1.860   4.757  0.0158  0.0140 -0.0014
  194DOPC   O1323955   2.577   1.885   4.779  0.3364 -0.5361 -0.2305
  194DOPC   O1423956   2.395   1.794   4.632  0.0161 -0.4315 -0.1087
  194DOPC   O1223957   2.353   1.994   4.780  0.2279 -0.5099 -0.0922
  194DOPC   O1123958   2.391   1.766   4.871 -0.4756  0.0305  0.0361
  194DOPC    C123959   2.469   1.684   4.957 -1.1101  0.6449  0.1893
  194DOPC    HA23960   2.577   1.709   4.957 -0.5553 -1.4875 -1.4721
  194DOPC    HB23961   2.472   1.578   4.925  0.6189  0.3986  1.0688
  194DOPC    C223962   2.411   1.683   5.096  0.3047  0.1233 -0.0801
  194DOPC    HS23963   2.476   1.646   5.178 -1.0481  0.3159  1.1230
  194DOPC   O2123964   2.287   1.614   5.098  0.4904 -0.4256 -0.4162
  194DOPC   C2123965   2.293   1.485   5.088  0.9812  0.8996  1.0973
  194DOPC   O2223966   2.394   1.417   5.080  0.3477  0.0810  0.1580
  194DOPC   C2223967   2.150   1.428   5.101 -0.2665  0.5542  0.3466
  194DOPC   H2R23968   2.146   1.343   5.029  0.7243 -0.2116  1.1549
  194DOPC   H2S23969   2.070   1.495   5.063 -0.3903  0.7012  0.8603
  194DOPC    C323970   2.379   1.824   5.160 -0.1023 -0.5829  0.5245
  194DOPC    HX23971   2.270   1.846   5.148 -0.3306 -1.0939  1.5813
  194DOPC    HY23972   2.442   1.902   5.111 -1.4207  0.6455  0.6949
  194DOPC   O3123973   2.391   1.825   5.301 -0.5936  0.1270  0.1875
  194DOPC   C3123974   2.417   1.934   5.355  1.0585 -0.7695 -0.2702
  194DOPC   O3223975   2.418   2.051   5.313 -0.8438  0.0817 -1.0407
  194DOPC   C3223976   2.442   1.910   5.502 -0.2765 -0.1435 -0.3356
  194DOPC   H2X23977   2.348   1.916   5.561 -0.2195 -1.2025 -0.1106
  194DOPC   H2Y23978   2.495   1.815   5.522  0.7229  0.8211  2.0035
  194DOPC   C2323979   2.129   1.374   5.239 -0.1406  0.8045 -0.1573
  194DOPC   H3R23980   2.218   1.314   5.268 -0.2762 -0.2374 -1.8038
  194DOPC   H3S23981   2.041   1.308   5.239  0.6923 -0.3376 -0.7677
  194DOPC   C2423982   2.094   1.489   5.338 -0.2172  0.4057 -0.0705
  194DOPC   H4R23983   2.014   1.545   5.283 -2.2980 -1.9476  0.3772
  194DOPC   H4S23984   2.189   1.544   5.351  0.4507 -0.8296  0.3828
  194DOPC   C2523985   2.040   1.448   5.479 -0.2972  0.2834  0.1214
  194DOPC   H5R23986   2.101   1.391   5.553 -0.9351  0.0012  0.4357
  194DOPC   H5S23987   1.947   1.388   5.468 -0.8344  0.8062  1.6162
  194DOPC   C2623988   1.995   1.573   5.560  0.0364 -0.1598 -0.1995
  194DOPC   H6R23989   1.946   1.538   5.653 -2.2227 -0.1125 -1.3034
  194DOPC   H6S23990   1.917   1.629   5.504 -1.4882 -0.8396  1.1678
  194DOPC   C2723991   2.110   1.673   5.594  0.7911  0.1969 -0.3586
  194DOPC   H7R23992   2.155   1.718   5.503  0.1390  2.1010  0.2120
  194DOPC   H7S23993   2.187   1.615   5.649 -0.1788 -0.8032 -0.0168
  194DOPC   C2823994   2.080   1.796   5.683  1.5061  0.3925 -0.0516
  194DOPC   H8R23995   2.009   1.865   5.632 -1.4062 -2.3931 -0.0835
  194DOPC   H8S23996   2.176   1.849   5.700  0.9309  0.8331  2.1633
  194DOPC   C2923997   2.008   1.755   5.807  0.1111 -0.2236 -0.3584
  194DOPC   H9R23998   1.916   1.700   5.781  1.0011 -0.9419 -2.1257
  194DOPC  C21023999   2.051   1.776   5.931 -0.0579 -0.4616 -0.2974
  194DOPC  H10R24000   1.979   1.742   6.007  1.2161  0.6531  1.4794
  194DOPC  C21124001   2.180   1.845   5.971  0.4052 -0.4273  0.0489
  194DOPC  H11R24002   2.251   1.831   5.887 -0.8248  0.4597 -1.1813
  194DOPC  H11S24003   2.226   1.794   6.058  1.8535  2.0963  0.8599
  194DOPC  C21224004   2.176   2.003   5.993 -0.4904  0.1633  0.5650
  194DOPC  H12R24005   2.105   2.033   6.072 -1.6574 -0.7032 -0.1273
  194DOPC  H12S24006   2.141   2.042   5.896  0.2897 -2.3574 -0.8204
  194DOPC  C21324007   2.321   2.059   6.021  0.5744 -0.2564 -0.2964
  194DOPC  H13R24008   2.315   2.170   6.014  0.2700 -0.2418  0.0943
  194DOPC  H13S24009   2.377   2.006   5.941 -2.2216 -2.0546 -1.2458
  194DOPC  C21424010   2.391   2.032   6.163 -0.2507  0.0710  0.4101
  194DOPC  H14R24011   2.496   2.065   6.149  0.3363 -1.7921  0.1911
  194DOPC  H14S24012   2.398   1.926   6.193 -0.1971  0.2082  0.8949
  194DOPC  C21524013   2.336   2.111   6.281 -0.4154  0.2029  0.2834
  194DOPC  H15R24014   2.371   2.065   6.376  0.5370 -0.8280 -0.5409
  194DOPC  H15S24015   2.226   2.098   6.290 -0.6796  1.9454 -0.0224
  194DOPC  C21624016   2.356   2.261   6.283  0.0082  0.8869 -0.3308
  194DOPC  H16R24017   2.309   2.295   6.188 -0.2977 -0.7217 -0.7961
  194DOPC  H16S24018   2.460   2.300   6.275  0.0372  0.4944 -2.8183
  194DOPC  C21724019   2.275   2.311   6.413  0.0165  0.4371 -0.0598
  194DOPC  H17R24020   2.167   2.286   6.413  0.5641 -2.2077 -0.7366
  194DOPC  H17S24021   2.282   2.422   6.411  1.1403  0.3788  0.1936
  194DOPC  C21824022   2.347   2.270   6.543  0.1753 -0.2947  0.2805
  194DOPC  H18R24023   2.453   2.297   6.521 -0.0261  1.5268  1.2950
  194DOPC  H18S24024   2.334   2.164   6.572 -3.0019  0.5132  2.3106
  194DOPC  H18T24025   2.312   2.332   6.628  1.5201 -0.8532  1.2732
  194DOPC   C3324026   2.532   2.028   5.566  0.4185  0.7941  0.2491
  194DOPC   H3X24027   2.493   2.132   5.558  0.4253  0.6789 -2.5106
  194DOPC   H3Y24028   2.627   2.008   5.513 -0.1735  1.3391 -1.0793
  194DOPC   C3424029   2.554   2.014   5.726  0.4743 -0.0209  0.4399
  194DOPC   H4X24030   2.454   1.985   5.763 -0.7941  2.3539 -0.9261
  194DOPC   H4Y24031   2.597   2.109   5.763 -0.2710  0.3879  0.2738
  194DOPC   C3524032   2.642   1.896   5.765  0.1106  0.6767  0.1634
  194DOPC   H5X24033   2.745   1.907   5.724 -0.8190 -0.1900 -2.5738
  194DOPC   H5Y24034   2.609   1.806   5.709  0.7239  1.6868 -1.8939
  194DOPC   C3624035   2.656   1.873   5.918 -0.5759  0.0870 -0.1956
  194DOPC   H6X24036   2.674   1.968   5.973  0.6299 -1.2096  1.7940
  194DOPC   H6Y24037   2.560   1.833   5.960  0.2735 -0.5967  1.1673
  194DOPC   C3724038   2.757   1.766   5.967 -0.4767  0.0107 -0.1311
  194DOPC   H7X24039   2.732   1.669   5.918  1.8400 -1.0665  0.6767
  194DOPC   H7Y24040   2.854   1.800   5.923 -0.2602 -1.5836 -0.9741
  194DOPC   C3824041   2.771   1.756   6.115  0.3765  0.1626 -0.0599
  194DOPC   H8X24042   2.670   1.758   6.161  0.6216  2.0058  0.5016
  194DOPC   H8Y24043   2.830   1.845   6.149 -0.3826 -0.0300  1.8979
  194DOPC   C3924044   2.847   1.638   6.158  0.0619  0.8064  0.0856
  194DOPC   H9X24045   2.913   1.595   6.082  2.1197 -1.0199  2.6945
  194DOPC  C31024046   2.825   1.576   6.277 -0.5697  0.7299 -0.0496
  194DOPC  H10X24047   2.885   1.488   6.305 -0.8508  0.4607 -0.2927
  194DOPC  C31124048   2.731   1.611   6.385  0.1269 -0.1000 -0.0711
  194DOPC  H11X24049   2.681   1.515   6.410 -0.5179  0.1895 -0.2442
  194DOPC  H11Y24050   2.645   1.667   6.343 -0.7089 -0.0142  1.6906
  194DOPC  C31224051   2.791   1.685   6.508  0.1898  0.8577  0.3413
  194DOPC  H12X24052   2.870   1.756   6.477 -0.4913  0.7153 -1.8997
  194DOPC  H12Y24053   2.837   1.619   6.584  1.7802  0.1195 -1.1963
  194DOPC  C31324054   2.686   1.771   6.583  0.4491 -0.0689 -0.2775
  194DOPC  H13X24055   2.639   1.847   6.517 -3.2854 -1.8042  0.1076
  194DOPC  H13Y24056   2.604   1.699   6.605  1.4089 -1.2163 -0.3627
  194DOPC  C31424057   2.743   1.846   6.704  0.1039  0.7642 -0.1269
  194DOPC  H14X24058   2.784   1.780   6.783 -1.4613  0.5178  0.5276
  194DOPC  H14Y24059   2.815   1.921   6.666  0.7229  1.7496  2.7212
  194DOPC  C31524060   2.640   1.929   6.781  0.1688  0.1452  0.2023
  194DOPC  H15X24061   2.590   1.989   6.702  2.3231  1.2084 -0.4306
  194DOPC  H15Y24062   2.686   2.002   6.851 -1.8404 -1.3449  3.3061
  194DOPC  C31624063   2.540   1.848   6.869 -0.9339  0.6688  0.5359
  194DOPC  H16X24064   2.480   1.777   6.809 -0.4686 -0.5645  1.4805
  194DOPC  H16Y24065   2.592   1.777   6.937  1.3078 -0.1331 -1.8375
  194DOPC  C31724066   2.442   1.932   6.945 -0.6160 -0.1009  0.5727
  194DOPC  H17X24067   2.433   2.031   6.896 -1.7928  0.4900  1.8991
  194DOPC  H17Y24068   2.340   1.889   6.948 -0.3227 -0.7932  3.1773
  194DOPC  C31824069   2.482   1.961   7.094  0.1653 -0.2340 -0.7549
  194DOPC  H18X24070   2.397   2.018   7.137 -0.1897 -0.0597 -1.6694
  194DOPC  H18Y24071   2.487   1.864   7.148  0.6170 -1.5635 -3.0725
  194DOPC  H18Z24072   2.577   2.017   7.101  0.3322 -0.7364  2.7112
  195DOPC     N24073   6.378   7.039   4.644  0.3588 -0.4369 -0.1498
  195DOPC   C1224074   6.495   7.127   4.660  0.1634  0.4773 -1.0653
  195DOPC  H12A24075   6.468   7.227   4.691  1.0575  0.8074 -1.3267
  195DOPC  H12B24076   6.538   7.132   4.561  0.5825 -1.2274 -0.9919
  195DOPC   C1324077   6.281   7.094   4.535  0.2089  0.1518  0.1014
  195DOPC  H13A24078   6.186   7.046   4.521  0.7154 -0.7374 -0.3513
  195DOPC  H13B24079   6.257   7.197   4.560 -2.3117 -0.5669  0.8670
  195DOPC  H13C24080   6.330   7.082   4.440  1.0803 -0.7204  0.6415
  195DOPC   C1424081   6.299   7.029   4.771  0.2016  0.4930 -0.4554
  195DOPC  H14A24082   6.288   7.130   4.809 -2.6845 -0.0898  0.5122
  195DOPC  H14B24083   6.202   6.982   4.762 -0.4518  1.5352  0.7715
  195DOPC  H14C24084   6.352   6.971   4.846 -0.6770  0.9163  0.5201
  195DOPC   C1524085   6.424   6.899   4.612  0.5749 -0.2023  0.1002
  195DOPC  H15A24086   6.499   6.882   4.687  0.1657  2.2353  1.1725
  195DOPC  H15B24087   6.459   6.881   4.511  1.2892 -1.8602  0.6109
  195DOPC  H15C24088   6.345   6.829   4.633 -1.8292  1.8302 -1.5787
  195DOPC   C1124089   6.610   7.086   4.759  0.6966  0.3193  0.3496
  195DOPC  H11A24090   6.676   7.175   4.759 -1.8500  2.3309  1.1593
  195DOPC  H11B24091   6.567   7.063   4.859  0.9124 -0.5825  0.2479
  195DOPC     P24092   6.766   6.875   4.790 -0.2204  0.2232 -0.5035
  195DOPC   O1324093   6.908   6.868   4.746 -0.2430 -0.3662  0.2613
  195DOPC   O1424094   6.701   6.741   4.808 -0.3103  0.5962 -0.1426
  195DOPC   O1224095   6.674   6.965   4.704 -0.0513  0.4886  0.2984
  195DOPC   O1124096   6.752   6.933   4.933 -0.4002  0.3450  0.8039
  195DOPC    C124097   6.843   7.035   4.980 -0.0280 -0.4793  0.7901
  195DOPC    HA24098   6.795   7.135   4.971  3.3813  1.1734 -0.9988
  195DOPC    HB24099   6.927   7.039   4.907 -0.4512 -0.5987  0.2897
  195DOPC    C224100   6.903   7.010   5.124  0.2529  0.7114  0.5618
  195DOPC    HS24101   6.969   6.921   5.124  0.1571  0.6395  0.2573
  195DOPC   O2124102   6.801   6.976   5.220 -0.6534  0.3338 -0.2111
  195DOPC   C2124103   6.775   6.847   5.245  0.0850 -0.4347 -0.3516
  195DOPC   O2224104   6.817   6.755   5.180 -0.1636 -0.0684 -0.0373
  195DOPC   C2224105   6.677   6.830   5.357 -0.2041  0.4736  0.1335
  195DOPC   H2R24106   6.647   6.723   5.360 -1.8450  0.8978 -0.2315
  195DOPC   H2S24107   6.584   6.884   5.328 -1.1761 -1.4961 -0.6102
  195DOPC    C324108   6.998   7.128   5.164  0.7462  0.7088  0.0877
  195DOPC    HX24109   6.953   7.219   5.118 -0.5682 -0.6378 -1.4031
  195DOPC    HY24110   7.095   7.122   5.110  1.4753 -1.6977  1.5204
  195DOPC   O3124111   7.018   7.134   5.311  0.5239  0.3658 -0.2078
  195DOPC   C3124112   7.090   7.033   5.362 -0.2800  0.1198  0.5332
  195DOPC   O3224113   7.156   6.958   5.292  0.1784  0.1192  0.6232
  195DOPC   C3224114   7.075   7.025   5.510 -0.1558 -0.0966 -0.1024
  195DOPC   H2X24115   6.976   7.071   5.531 -1.3021 -2.5878  0.3511
  195DOPC   H2Y24116   7.067   6.916   5.531 -0.8027  0.0155  0.2618
  195DOPC   C2324117   6.728   6.896   5.488  0.4586  0.0384  0.5538
  195DOPC   H3R24118   6.741   7.003   5.465 -1.7641  0.5694  1.4848
  195DOPC   H3S24119   6.826   6.850   5.513 -0.2293 -1.2643  1.0041
  195DOPC   C2424120   6.622   6.896   5.603  0.0870 -0.3813  0.3215
  195DOPC   H4R24121   6.601   6.788   5.621  2.9881 -1.2842 -1.0353
  195DOPC   H4S24122   6.532   6.949   5.566 -0.0254 -0.6511  0.2093
  195DOPC   C2524123   6.658   6.981   5.721 -0.2269  0.1209  0.4362
  195DOPC   H5R24124   6.575   6.971   5.795  0.6920  0.1350  1.5048
  195DOPC   H5S24125   6.660   7.089   5.697 -1.3903  0.0769  0.1125
  195DOPC   C2624126   6.782   6.923   5.801 -0.5921  0.3226  1.0301
  195DOPC   H6R24127   6.873   6.928   5.736  1.0394 -1.1403  3.0807
  195DOPC   H6S24128   6.767   6.815   5.818  0.0994 -0.0078 -0.2409
  195DOPC   C2724129   6.815   6.998   5.932 -0.2583 -0.0561  0.0753
  195DOPC   H7R24130   6.771   7.100   5.931 -0.7506 -0.2698 -0.1483
  195DOPC   H7S24131   6.925   7.012   5.935 -0.0544 -1.1326 -1.4771
  195DOPC   C2824132   6.770   6.917   6.055 -0.0515 -0.8079 -0.2738
  195DOPC   H8R24133   6.833   6.829   6.082  1.2988 -0.6957 -2.7494
  195DOPC   H8S24134   6.663   6.895   6.039 -0.1658  0.1219 -0.8164
  195DOPC   C2924135   6.791   7.017   6.172 -0.1966  0.5043  0.3883
  195DOPC   H9R24136   6.738   7.110   6.147  1.7145  1.6371  0.4057
  195DOPC  C21024137   6.851   6.994   6.291 -0.0988 -0.3366 -0.2419
  195DOPC  H10R24138   6.863   7.076   6.364  1.8735 -1.0361  0.2832
  195DOPC  C21124139   6.932   6.880   6.353  1.0314  0.1123  0.0143
  195DOPC  H11R24140   7.005   6.905   6.433  1.7061 -0.9404 -0.2447
  195DOPC  H11S24141   6.982   6.812   6.281 -2.0346 -1.8846 -0.4327
  195DOPC  C21224142   6.831   6.774   6.413 -0.2352 -0.2917  0.7958
  195DOPC  H12R24143   6.782   6.705   6.340  1.0766 -2.0617  1.5105
  195DOPC  H12S24144   6.754   6.827   6.473 -0.5782 -0.8689  0.8740
  195DOPC  C21324145   6.901   6.671   6.506 -0.1906 -0.8802  0.7901
  195DOPC  H13R24146   6.968   6.724   6.577 -1.1090  0.3012  0.8010
  195DOPC  H13S24147   6.969   6.614   6.439 -3.1445 -0.8880 -2.4265
  195DOPC  C21424148   6.806   6.593   6.598 -0.2971  0.3535  0.3783
  195DOPC  H14R24149   6.737   6.661   6.652 -1.8858 -0.3652 -0.6752
  195DOPC  H14S24150   6.866   6.531   6.668  0.0445 -0.4020 -0.5633
  195DOPC  C21524151   6.726   6.482   6.522  1.0735  1.2354  0.1482
  195DOPC  H15R24152   6.808   6.416   6.488  1.2422  2.0773 -1.1307
  195DOPC  H15S24153   6.683   6.534   6.434 -0.6819  0.6378  0.6001
  195DOPC  C21624154   6.622   6.400   6.592 -0.3271 -0.3999 -0.4322
  195DOPC  H16R24155   6.524   6.452   6.601 -1.0190 -1.1777 -2.6950
  195DOPC  H16S24156   6.648   6.361   6.692 -0.5102  3.1168  1.1287
  195DOPC  C21724157   6.573   6.287   6.504 -0.0805 -0.2252  0.2686
  195DOPC  H17R24158   6.656   6.217   6.480  0.7473  0.6995  0.3559
  195DOPC  H17S24159   6.538   6.335   6.410  2.0018 -3.4875 -2.4526
  195DOPC  C21824160   6.455   6.201   6.569  0.0844 -0.2753 -0.5070
  195DOPC  H18R24161   6.370   6.269   6.590  0.0636 -0.8347  1.4913
  195DOPC  H18S24162   6.486   6.171   6.672 -2.7803 -1.8422  0.0151
  195DOPC  H18T24163   6.433   6.117   6.500  0.1371 -0.7851  0.0869
  195DOPC   C3324164   7.186   7.097   5.586 -0.6655 -0.6062 -0.2645
  195DOPC   H3X24165   7.204   7.205   5.568 -0.8579 -0.5432 -0.0874
  195DOPC   H3Y24166   7.279   7.052   5.545 -1.5673 -0.2200 -2.9685
  195DOPC   C3424167   7.188   7.065   5.738 -0.2224 -0.6796  0.3034
  195DOPC   H4X24168   7.240   6.967   5.749  0.6198 -0.3439 -0.5930
  195DOPC   H4Y24169   7.084   7.049   5.776 -0.4846  0.9330  0.3594
  195DOPC   C3524170   7.253   7.179   5.827  0.5886 -0.0439  0.1627
  195DOPC   H5X24171   7.208   7.272   5.786  1.4496 -0.4860 -1.8884
  195DOPC   H5Y24172   7.360   7.185   5.799  0.0954 -1.3039 -2.1858
  195DOPC   C3624173   7.223   7.165   5.977 -0.1169 -0.4764 -0.3750
  195DOPC   H6X24174   7.115   7.184   5.995  0.0178  0.3368 -0.4223
  195DOPC   H6Y24175   7.245   7.066   6.023  1.9196 -1.1750 -2.6310
  195DOPC   C3724176   7.309   7.259   6.056 -0.2265  0.0973  0.1418
  195DOPC   H7X24177   7.418   7.246   6.041  0.6490  2.4526  3.3176
  195DOPC   H7Y24178   7.288   7.366   6.033  0.3425 -0.1757 -1.7851
  195DOPC   C3824179   7.294   7.230   6.211  0.3876  0.0969 -0.0373
  195DOPC   H8X24180   7.301   7.123   6.240  3.7941  0.2148 -0.0303
  195DOPC   H8Y24181   7.188   7.258   6.232  0.0334 -1.7120  0.7940
  195DOPC   C3924182   7.378   7.320   6.292  0.5315 -0.3962  0.5775
  195DOPC   H9X24183   7.383   7.423   6.255  0.1302 -0.7840 -0.6226
  195DOPC  C31024184   7.458   7.275   6.390 -0.8074 -0.2829 -0.2057
  195DOPC  H10X24185   7.508   7.350   6.452  0.8246 -1.7773  0.3497
  195DOPC  C31124186   7.480   7.134   6.448 -0.0847 -0.3566 -0.5501
  195DOPC  H11X24187   7.573   7.143   6.508  0.4568  2.1714 -1.6403
  195DOPC  H11Y24188   7.491   7.050   6.377 -1.6132 -2.1578  1.2443
  195DOPC  C31224189   7.364   7.093   6.531 -0.9214 -0.4099  0.0344
  195DOPC  H12X24190   7.275   7.073   6.468 -0.0362 -0.9274 -1.1129
  195DOPC  H12Y24191   7.344   7.176   6.602 -0.7189 -0.3440  0.0166
  195DOPC  C31324192   7.379   6.970   6.616  0.0206 -0.2019 -0.5408
  195DOPC  H13X24193   7.426   6.900   6.543 -0.8110 -2.3921  0.9152
  195DOPC  H13Y24194   7.456   6.981   6.696  1.0585 -1.6468 -1.2765
  195DOPC  C31424195   7.247   6.922   6.678  0.5922  0.9715  0.6963
  195DOPC  H14X24196   7.225   6.994   6.760  1.0012  1.2789  0.5405
  195DOPC  H14Y24197   7.166   6.928   6.602  1.9270  0.6661 -0.7877
  195DOPC  C31524198   7.267   6.780   6.729 -0.1123 -0.5482  0.0698
  195DOPC  H15X24199   7.369   6.776   6.774  0.6795  2.6019 -1.1641
  195DOPC  H15Y24200   7.275   6.729   6.630  0.7422  4.5052 -2.8599
  195DOPC  C31624201   7.153   6.723   6.814 -0.0999 -0.4918  0.0496
  195DOPC  H16X24202   7.057   6.778   6.805  0.2433  0.3766  1.4070
  195DOPC  H16Y24203   7.153   6.613   6.799  2.3468 -0.4000 -1.3289
  195DOPC  C31724204   7.189   6.728   6.964  0.4414 -0.7215 -0.7755
  195DOPC  H17X24205   7.289   6.685   6.987  0.1391 -0.0378  2.2218
  195DOPC  H17Y24206   7.196   6.834   6.999  1.0593 -0.2543 -2.2208
  195DOPC  C31824207   7.096   6.652   7.062 -0.6447  0.4660  0.7045
  195DOPC  H18X24208   7.129   6.657   7.168  0.9129 -0.9800  0.3385
  195DOPC  H18Y24209   6.993   6.692   7.059 -1.3862 -1.3881 -1.1244
  195DOPC  H18Z24210   7.093   6.545   7.032  2.4564  0.3366  0.4921
  196DOPC     N24211   1.561   2.298   4.575  0.4353 -0.2384  0.5803
  196DOPC   C1224212   1.465   2.190   4.617  0.2077 -0.0014 -0.6270
  196DOPC  H12A24213   1.440   2.125   4.534 -0.6282 -1.0322  0.3930
  196DOPC  H12B24214   1.367   2.226   4.645  0.9187  1.6720 -0.1354
  196DOPC   C1324215   1.603   2.385   4.686 -0.1017 -0.1533 -0.2113
  196DOPC  H13A24216   1.536   2.403   4.768  0.7731 -1.0465  0.7277
  196DOPC  H13B24217   1.689   2.330   4.720  0.4413 -0.7839 -2.4349
  196DOPC  H13C24218   1.627   2.482   4.642 -0.2156  0.0257  0.1216
  196DOPC   C1424219   1.496   2.387   4.470  0.1641  0.5141 -0.1569
  196DOPC  H14A24220   1.566   2.465   4.444 -0.4764  0.4016 -2.4712
  196DOPC  H14B24221   1.472   2.313   4.395  0.7130 -1.6885  1.6989
  196DOPC  H14C24222   1.401   2.428   4.499 -0.1518  1.3130 -2.1376
  196DOPC   C1524223   1.686   2.245   4.521 -0.3235 -0.1995  0.5609
  196DOPC  H15A24224   1.681   2.197   4.424  1.6615 -0.5003  0.5780
  196DOPC  H15B24225   1.718   2.167   4.589 -2.0147 -1.1439  0.3302
  196DOPC  H15C24226   1.760   2.323   4.515 -0.0788 -0.5332 -1.5666
  196DOPC   C1124227   1.508   2.112   4.742  0.3510 -0.1751  0.2976
  196DOPC  H11A24228   1.511   2.175   4.834 -1.2535 -0.2425  0.4091
  196DOPC  H11B24229   1.433   2.032   4.759 -0.2640  0.1019 -1.0144
  196DOPC     P24230   1.738   2.021   4.843  0.0709 -0.5007 -0.0380
  196DOPC   O1324231   1.831   2.127   4.851  0.1417  0.2746 -0.3449
  196DOPC   O1424232   1.804   1.885   4.831  0.1937  0.1483  0.2347
  196DOPC   O1224233   1.639   2.054   4.721  0.1815  0.0963 -0.2901
  196DOPC   O1124234   1.651   2.012   4.973  0.6365 -0.4774  0.1894
  196DOPC    C124235   1.709   2.002   5.103 -0.8454 -0.6645  0.5444
  196DOPC    HA24236   1.730   2.108   5.128 -0.3495 -0.3743 -1.0345
  196DOPC    HB24237   1.805   1.946   5.108 -0.0744  0.6668  1.0634
  196DOPC    C224238   1.591   1.962   5.202 -0.6968  0.0479 -0.2004
  196DOPC    HS24239   1.626   1.983   5.305  0.8478  0.5845 -0.7967
  196DOPC   O2124240   1.552   1.829   5.190  0.7161  0.1722 -0.5783
  196DOPC   C2124241   1.647   1.743   5.231  0.2160  0.4990  0.1300
  196DOPC   O2224242   1.756   1.778   5.271 -0.9499  0.7683  0.5472
  196DOPC   C2224243   1.597   1.600   5.222 -0.1246 -0.4272 -0.3840
  196DOPC   H2R24244   1.693   1.544   5.218  0.1350  0.0871 -1.8554
  196DOPC   H2S24245   1.549   1.578   5.125  0.4859  0.2336 -0.8462
  196DOPC    C324246   1.466   2.058   5.193 -0.3904 -0.6923  0.5200
  196DOPC    HX24247   1.423   2.020   5.098  1.4217 -0.0331 -0.6187
  196DOPC    HY24248   1.494   2.165   5.181  1.3555 -1.2353 -0.6247
  196DOPC   O3124249   1.368   2.047   5.307  0.2285 -0.0729 -0.3622
  196DOPC   C3124250   1.394   2.117   5.410 -0.3540  0.1655  0.5810
  196DOPC   O3224251   1.494   2.188   5.432  0.1182  0.1199 -0.4471
  196DOPC   C3224252   1.280   2.094   5.509  0.3258  0.0948 -0.0181
  196DOPC   H2X24253   1.208   2.178   5.506  1.3616  1.0135  0.1008
  196DOPC   H2Y24254   1.228   1.997   5.496 -1.6244  0.2511  4.7850
  196DOPC   C2324255   1.502   1.551   5.342 -0.1130  0.1393  0.4299
  196DOPC   H3R24256   1.501   1.440   5.347 -0.7047  0.1177 -0.1043
  196DOPC   H3S24257   1.397   1.583   5.326 -0.9540 -2.3539  0.4907
  196DOPC   C2424258   1.548   1.599   5.479 -1.0765  0.0423 -0.5577
  196DOPC   H4R24259   1.517   1.703   5.504  0.6907  0.1290  1.5945
  196DOPC   H4S24260   1.658   1.595   5.475 -1.0737  0.5216 -1.1697
  196DOPC   C2524261   1.495   1.528   5.604  0.2191 -0.4599 -0.1517
  196DOPC   H5R24262   1.481   1.420   5.583 -1.6852 -0.2961  0.0784
  196DOPC   H5S24263   1.394   1.565   5.632  0.6445  0.7909 -0.2078
  196DOPC   C2624264   1.578   1.552   5.727  0.3600 -0.0625 -0.0070
  196DOPC   H6R24265   1.676   1.500   5.729 -0.2255 -1.2778 -1.0094
  196DOPC   H6S24266   1.541   1.495   5.815 -1.5437 -1.2887 -1.4884
  196DOPC   C2724267   1.605   1.703   5.755 -0.3368 -0.0861  0.0764
  196DOPC   H7R24268   1.515   1.764   5.734 -0.2287  0.2592  0.6231
  196DOPC   H7S24269   1.687   1.734   5.686  1.5545 -0.5152  2.0215
  196DOPC   C2824270   1.637   1.721   5.909 -0.0997 -0.1825  0.4637
  196DOPC   H8R24271   1.713   1.645   5.938  1.1497  1.9495  3.2109
  196DOPC   H8S24272   1.546   1.687   5.964 -1.4573  0.5428 -1.2385
  196DOPC   C2924273   1.674   1.857   5.949  0.6253 -0.5098  0.1999
  196DOPC   H9R24274   1.730   1.915   5.873  1.8230  0.6512  1.8699
  196DOPC  C21024275   1.636   1.931   6.054  0.5494  0.2989 -0.5861
  196DOPC  H10R24276   1.691   2.025   6.068  0.7654  0.1620 -0.5056
  196DOPC  C21124277   1.554   1.886   6.172  0.3226 -0.2957  0.8032
  196DOPC  H11R24278   1.487   1.801   6.147  0.8332 -0.8135  1.1890
  196DOPC  H11S24279   1.491   1.975   6.197 -0.4339 -0.5737 -0.0505
  196DOPC  C21224280   1.641   1.834   6.288  0.9457 -0.3788  0.4929
  196DOPC  H12R24281   1.731   1.898   6.303  2.6210 -2.5058  0.0732
  196DOPC  H12S24282   1.683   1.738   6.252  3.3449  1.0624 -0.8543
  196DOPC  C21324283   1.555   1.820   6.418  0.1226  0.6529  1.0199
  196DOPC  H13R24284   1.479   1.740   6.406 -1.2761  2.2148 -1.7824
  196DOPC  H13S24285   1.517   1.922   6.442 -0.3526  0.7177  0.0401
  196DOPC  C21424286   1.649   1.791   6.533  0.0845 -0.5572 -0.0201
  196DOPC  H14R24287   1.741   1.854   6.541  1.3520 -2.4824  1.8816
  196DOPC  H14S24288   1.694   1.690   6.537 -0.7966 -0.9195  1.8803
  196DOPC  C21524289   1.570   1.802   6.667 -0.1250  0.7143 -1.0159
  196DOPC  H15R24290   1.503   1.715   6.681  1.4738 -0.6736 -1.6154
  196DOPC  H15S24291   1.509   1.895   6.665  0.0676  0.8328 -1.4213
  196DOPC  C21624292   1.669   1.786   6.789 -0.0406  0.2516 -0.2958
  196DOPC  H16R24293   1.745   1.867   6.788  0.0499  0.1907  0.5549
  196DOPC  H16S24294   1.728   1.693   6.777 -0.8344 -0.2310 -0.4914
  196DOPC  C21724295   1.596   1.793   6.922  0.9783  0.3990 -0.0127
  196DOPC  H17R24296   1.642   1.709   6.979 -2.7591 -1.0967  1.0799
  196DOPC  H17S24297   1.494   1.754   6.900  1.2090 -0.4790  0.4302
  196DOPC  C21824298   1.585   1.925   6.998 -0.3700  0.1406  0.5383
  196DOPC  H18R24299   1.689   1.955   7.021 -0.6915  1.0959  0.8057
  196DOPC  H18S24300   1.533   1.905   7.094  0.6526 -0.4912  0.9757
  196DOPC  H18T24301   1.525   1.997   6.938 -4.1678 -2.2106  1.1654
  196DOPC   C3324302   1.337   2.073   5.655 -0.0933  0.0416 -0.0775
  196DOPC   H3X24303   1.402   2.160   5.680  0.0487 -0.2518  0.6093
  196DOPC   H3Y24304   1.405   1.986   5.667  0.3086  0.5392  1.5278
  196DOPC   C3424305   1.228   2.075   5.762 -0.9709 -0.1188 -0.0435
  196DOPC   H4X24306   1.161   1.987   5.751 -0.9536  0.1105 -2.5632
  196DOPC   H4Y24307   1.168   2.169   5.756 -0.3940  0.2215 -0.5479
  196DOPC   C3524308   1.288   2.071   5.909  0.0424 -0.0775  0.4560
  196DOPC   H5X24309   1.362   2.153   5.899  0.3181 -0.4684 -0.8251
  196DOPC   H5Y24310   1.344   1.977   5.928  3.5282  1.5084 -1.1869
  196DOPC   C3624311   1.176   2.108   6.013 -0.1749  0.2437 -0.1956
  196DOPC   H6X24312   1.109   2.181   5.962  1.5905  2.1337  0.1088
  196DOPC   H6Y24313   1.109   2.021   6.035 -0.6586  0.3717 -1.0956
  196DOPC   C3724314   1.214   2.176   6.144  0.1341  0.4917  0.2536
  196DOPC   H7X24315   1.299   2.127   6.197 -0.6023  1.3342  2.3393
  196DOPC   H7Y24316   1.247   2.280   6.122 -0.2938  0.4087 -0.8085
  196DOPC   C3824317   1.098   2.182   6.253  0.1749  0.0695  0.1442
  196DOPC   H8X24318   1.147   2.244   6.331  1.7989  3.0867 -2.9889
  196DOPC   H8Y24319   1.079   2.075   6.274 -2.8361  0.2345 -1.1712
  196DOPC   C3924320   0.966   2.240   6.213 -0.2375 -0.6235 -0.3694
  196DOPC   H9X24321   0.922   2.186   6.128 -0.0975 -0.1426 -0.7531
  196DOPC  C31024322   0.900   2.339   6.276  1.0965  0.3005  0.8482
  196DOPC  H10X24323   0.815   2.384   6.223  2.9833  1.2758 -1.5642
  196DOPC  C31124324   0.940   2.409   6.413  0.1235  0.5464 -0.0380
  196DOPC  H11X24325   0.931   2.519   6.401  0.2604  0.9398  2.8405
  196DOPC  H11Y24326   1.040   2.372   6.444  0.2670  0.0587 -1.0478
  196DOPC  C31224327   0.828   2.385   6.523  0.3559 -0.1564 -0.1689
  196DOPC  H12X24328   0.724   2.394   6.486  0.5899 -0.7781 -1.0124
  196DOPC  H12Y24329   0.839   2.465   6.600  0.3568  0.0631 -0.3958
  196DOPC  C31324330   0.834   2.244   6.598 -0.1131  0.4114 -0.5237
  196DOPC  H13X24331   0.872   2.163   6.532 -1.5948 -0.6259 -0.1543
  196DOPC  H13Y24332   0.908   2.267   6.677 -0.3912  2.4780 -0.7822
  196DOPC  C31424333   0.701   2.193   6.648  0.2440 -0.1625 -0.3699
  196DOPC  H14X24334   0.655   2.274   6.708 -0.8054 -0.5449 -0.6255
  196DOPC  H14Y24335   0.636   2.170   6.560  0.9515 -1.3256 -0.6105
  196DOPC  C31524336   0.709   2.075   6.747 -0.4294 -0.0819  0.5858
  196DOPC  H15X24337   0.767   2.113   6.833  0.2773  1.8366 -0.6663
  196DOPC  H15Y24338   0.786   2.002   6.714 -1.0694 -1.2555  1.6067
  196DOPC  C31624339   0.578   2.018   6.791 -0.5351  0.1223  0.0069
  196DOPC  H16X24340   0.491   2.049   6.729 -1.3780  1.0895  1.5981
  196DOPC  H16Y24341   0.578   1.907   6.799 -1.2259 -0.1262 -2.4920
  196DOPC  C31724342   0.541   2.067   6.938  0.6955 -0.0698  0.4724
  196DOPC  H17X24343   0.551   2.177   6.929  0.6827 -0.0743  0.4002
  196DOPC  H17Y24344   0.434   2.043   6.950  0.9843 -2.4114 -0.9508
  196DOPC  C31824345   0.633   2.017   7.046 -0.2770  0.4047 -1.2895
  196DOPC  H18X24346   0.588   2.036   7.146  1.4987 -0.5410 -0.2624
  196DOPC  H18Y24347   0.640   1.907   7.034 -1.8833 -0.1999  2.0821
  196DOPC  H18Z24348   0.736   2.061   7.045 -0.0038 -0.2234 -1.1647
  197DOPC     N24349   2.230   0.772   4.562  0.0355 -0.1513 -0.6818
  197DOPC   C1224350   2.100   0.845   4.562 -0.0579  0.2864 -0.0838
  197DOPC  H12A24351   2.031   0.789   4.501  1.8030 -1.0267 -1.1135
  197DOPC  H12B24352   2.114   0.945   4.525  0.7603 -0.7255 -2.8031
  197DOPC   C1324353   2.234   0.658   4.661 -0.0746  0.2520 -0.2025
  197DOPC  H13A24354   2.326   0.601   4.649 -0.9122 -1.4637  1.0399
  197DOPC  H13B24355   2.235   0.689   4.765  2.2898 -0.4701  0.0591
  197DOPC  H13C24356   2.152   0.588   4.653  1.7928 -2.3583  1.6977
  197DOPC   C1424357   2.342   0.866   4.586 -0.6547 -0.7686 -0.3325
  197DOPC  H14A24358   2.353   0.900   4.688  3.1224  1.8836 -1.3804
  197DOPC  H14B24359   2.433   0.819   4.553  0.1081  0.4346 -0.0014
  197DOPC  H14C24360   2.329   0.950   4.519  2.3152  0.8800  0.9497
  197DOPC   C1524361   2.246   0.717   4.418  0.3275  0.3044  0.4908
  197DOPC  H15A24362   2.153   0.664   4.401  1.3164 -2.4741  2.8001
  197DOPC  H15B24363   2.324   0.643   4.405  0.4963  0.7669 -1.3981
  197DOPC  H15C24364   2.250   0.789   4.338 -2.3506 -2.0463 -2.0332
  197DOPC   C1124365   2.032   0.859   4.702  0.0770  0.2693 -0.0493
  197DOPC  H11A24366   1.936   0.913   4.692  0.9623  1.7066 -1.3076
  197DOPC  H11B24367   2.016   0.753   4.733  0.7354  0.4739  1.0330
  197DOPC     P24368   2.125   1.076   4.818 -0.0191 -0.2267  0.0263
  197DOPC   O1324369   2.025   1.132   4.725 -0.5673  0.0530 -0.0389
  197DOPC   O1424370   2.265   1.130   4.815 -0.1783  0.0162 -0.1996
  197DOPC   O1224371   2.121   0.920   4.800  0.2054  0.2885 -0.1297
  197DOPC   O1124372   2.072   1.103   4.971 -0.0625 -0.0823 -0.0106
  197DOPC    C124373   2.149   1.057   5.083  0.8726  0.5764  0.6382
  197DOPC    HA24374   2.180   1.145   5.142 -1.4052  1.4055  0.7122
  197DOPC    HB24375   2.242   1.011   5.045  0.6044  2.1870 -2.2788
  197DOPC    C224376   2.060   0.971   5.167 -0.2990  0.1860 -0.3565
  197DOPC    HS24377   2.008   0.893   5.107 -2.3766  0.4888  0.9503
  197DOPC   O2124378   1.954   1.055   5.223  0.5682  0.2656 -0.2103
  197DOPC   C2124379   1.854   0.981   5.275  0.0029  0.3313  1.0238
  197DOPC   O2224380   1.847   0.861   5.272 -0.0202  0.2306  0.3752
  197DOPC   C2224381   1.753   1.079   5.347 -0.3265  0.5307  0.0239
  197DOPC   H2R24382   1.656   1.069   5.293 -0.7492 -1.4730  1.0446
  197DOPC   H2S24383   1.788   1.182   5.327 -0.2019  0.3841 -0.5215
  197DOPC    C324384   2.143   0.903   5.275  0.3012 -0.0130 -1.1775
  197DOPC    HX24385   2.242   0.878   5.230  0.9419  0.1665  0.1013
  197DOPC    HY24386   2.097   0.806   5.303  0.9173  0.2579  0.9904
  197DOPC   O3124387   2.158   0.980   5.400  0.1803  0.3579 -0.6906
  197DOPC   C3124388   2.275   1.037   5.422 -0.2147 -0.3328  0.1578
  197DOPC   O3224389   2.367   1.036   5.338  0.6750  0.0190 -0.1629
  197DOPC   C3224390   2.288   1.097   5.559 -0.3531 -0.6532  0.0570
  197DOPC   H2X24391   2.192   1.147   5.584 -1.6575 -2.6497 -0.6788
  197DOPC   H2Y24392   2.303   1.006   5.620 -1.0477 -2.2247 -1.9916
  197DOPC   C2324393   1.736   1.056   5.499  0.4412  0.3518  0.4269
  197DOPC   H3R24394   1.718   0.951   5.530  0.5842  0.9706  2.8392
  197DOPC   H3S24395   1.654   1.124   5.531 -0.1038  1.0529 -2.2883
  197DOPC   C2424396   1.866   1.096   5.571 -0.1385 -0.3508 -0.4614
  197DOPC   H4R24397   1.921   1.159   5.498  0.1865 -1.5032 -1.2366
  197DOPC   H4S24398   1.921   1.000   5.582  1.8530  0.6848 -0.8464
  197DOPC   C2524399   1.854   1.154   5.709 -0.4108 -0.2110  0.5083
  197DOPC   H5R24400   1.787   1.094   5.774  0.3384  1.4047  2.9199
  197DOPC   H5S24401   1.805   1.254   5.706  0.9790  0.4852  0.5157
  197DOPC   C2624402   1.991   1.164   5.783  0.8082  0.2904 -0.2513
  197DOPC   H6R24403   2.054   1.236   5.727  0.5747 -0.8399 -2.0474
  197DOPC   H6S24404   2.056   1.074   5.789 -0.0724 -0.3088  0.8272
  197DOPC   C2724405   1.987   1.212   5.925 -0.5489  0.0778  0.0600
  197DOPC   H7R24406   2.085   1.208   5.977 -0.9913 -0.1576  0.8933
  197DOPC   H7S24407   1.919   1.150   5.988  1.7026 -1.7578  0.8178
  197DOPC   C2824408   1.941   1.365   5.945  0.1553 -0.4786 -0.4387
  197DOPC   H8R24409   1.834   1.384   5.923  0.1876  0.7092  0.3637
  197DOPC   H8S24410   1.993   1.415   5.861 -1.2297 -0.3547 -1.2636
  197DOPC   C2924411   1.980   1.439   6.074  0.2655  0.3714  0.0036
  197DOPC   H9R24412   2.078   1.487   6.084  0.4651  0.6885 -2.8216
  197DOPC  C21024413   1.900   1.430   6.184 -0.0196  0.6572  0.4778
  197DOPC  H10R24414   1.944   1.473   6.275 -0.8589  0.0634  1.1773
  197DOPC  C21124415   1.759   1.368   6.196 -0.2587  0.1164  0.2060
  197DOPC  H11R24416   1.757   1.316   6.294  0.0783  1.3458  0.8893
  197DOPC  H11S24417   1.730   1.305   6.109  1.4046 -1.3089  0.6293
  197DOPC  C21224418   1.647   1.475   6.210 -0.7903 -0.4794  0.6940
  197DOPC  H12R24419   1.654   1.541   6.121 -0.7088 -1.5304 -0.0943
  197DOPC  H12S24420   1.644   1.533   6.305 -2.0216 -0.9763  0.9831
  197DOPC  C21324421   1.502   1.421   6.192  0.3371 -0.0021  0.2273
  197DOPC  H13R24422   1.471   1.339   6.260  3.3482 -0.5905  1.0364
  197DOPC  H13S24423   1.509   1.399   6.083 -1.6634  0.2865  0.0194
  197DOPC  C21424424   1.406   1.537   6.208  0.3673  0.2505 -0.3958
  197DOPC  H14R24425   1.477   1.620   6.228 -0.0664  0.5236  0.0749
  197DOPC  H14S24426   1.366   1.526   6.311  2.3410 -2.3956  0.1618
  197DOPC  C21524427   1.304   1.567   6.098 -1.0664  0.3945  0.1350
  197DOPC  H15R24428   1.268   1.476   6.047  0.4664  0.3219 -0.8748
  197DOPC  H15S24429   1.355   1.625   6.018 -1.8904 -0.4656 -1.0466
  197DOPC  C21624430   1.186   1.661   6.146  0.3981  0.1303 -0.3370
  197DOPC  H16R24431   1.231   1.761   6.166 -1.6081  1.2046 -0.9913
  197DOPC  H16S24432   1.133   1.626   6.237  0.2069  0.0769 -0.4711
  197DOPC  C21724433   1.080   1.683   6.033  0.2256  0.5676 -0.3088
  197DOPC  H17R24434   1.021   1.768   6.074  0.6344 -1.0543  4.0901
  197DOPC  H17S24435   1.022   1.592   6.058  1.3590  0.4359  2.1643
  197DOPC  C21824436   1.124   1.691   5.888 -0.0731 -0.8472  0.3552
  197DOPC  H18R24437   1.215   1.754   5.881 -0.1065 -0.9762 -2.3391
  197DOPC  H18S24438   1.047   1.739   5.824 -1.2776 -0.3309  2.1501
  197DOPC  H18T24439   1.153   1.594   5.843  1.3932 -0.1808 -0.2299
  197DOPC   C3324440   2.406   1.194   5.580  0.0395 -0.2671 -0.0377
  197DOPC   H3X24441   2.428   1.262   5.494  1.9394 -0.0266  0.5795
  197DOPC   H3Y24442   2.497   1.131   5.589  0.0315 -0.0530  1.8201
  197DOPC   C3424443   2.383   1.288   5.703 -0.0968  0.3566 -0.0554
  197DOPC   H4X24444   2.383   1.236   5.801  1.8274  1.9494  0.8488
  197DOPC   H4Y24445   2.284   1.337   5.690  0.3572  1.7678  1.5184
  197DOPC   C3524446   2.488   1.397   5.719 -0.2942 -1.2436 -0.1011
  197DOPC   H5X24447   2.492   1.469   5.634  1.5229 -0.3956  0.6502
  197DOPC   H5Y24448   2.584   1.341   5.723  0.3275 -0.2535 -0.6940
  197DOPC   C3624449   2.473   1.496   5.838  0.5876 -0.1040  0.5003
  197DOPC   H6X24450   2.564   1.559   5.841 -0.2806  1.1655  2.7206
  197DOPC   H6Y24451   2.403   1.582   5.825  0.7381  0.1611  1.3714
  197DOPC   C3724452   2.444   1.428   5.973  0.4210 -1.0373  0.6037
  197DOPC   H7X24453   2.350   1.370   5.958  0.4422 -0.7412 -0.7873
  197DOPC   H7Y24454   2.529   1.357   5.982  1.1673 -0.0227  2.0978
  197DOPC   C3824455   2.442   1.509   6.105 -0.4925 -0.0292  0.6163
  197DOPC   H8X24456   2.382   1.603   6.096  1.3484  1.0594 -1.4713
  197DOPC   H8Y24457   2.547   1.544   6.116 -1.1703  1.5961  2.5863
  197DOPC   C3924458   2.394   1.407   6.206  0.0993 -0.5363 -0.2279
  197DOPC   H9X24459   2.421   1.302   6.186 -0.8378 -0.5065 -1.8108
  197DOPC  C31024460   2.358   1.441   6.331 -0.5108 -0.0981  0.6528
  197DOPC  H10X24461   2.340   1.353   6.395 -1.7715  0.6402  1.3489
  197DOPC  C31124462   2.318   1.575   6.378 -0.0754  0.0324 -0.5765
  197DOPC  H11X24463   2.326   1.656   6.302  1.7497 -0.8598 -1.3913
  197DOPC  H11Y24464   2.386   1.601   6.463 -1.0870  1.2206 -0.0952
  197DOPC  C31224465   2.179   1.567   6.437  0.1382 -0.1651 -0.4818
  197DOPC  H12X24466   2.155   1.471   6.489 -1.0815  0.1753 -0.3867
  197DOPC  H12Y24467   2.105   1.588   6.357 -0.0255 -2.7409 -1.1075
  197DOPC  C31324468   2.167   1.664   6.551  0.8379  0.1843 -0.7519
  197DOPC  H13X24469   2.190   1.606   6.643  0.3222  0.7949 -0.2293
  197DOPC  H13Y24470   2.242   1.745   6.544  0.3383  0.7053 -0.2032
  197DOPC  C31424471   2.036   1.731   6.562 -0.4001  0.0451 -0.0775
  197DOPC  H14X24472   2.016   1.796   6.475 -0.6204  0.1993  0.0885
  197DOPC  H14Y24473   1.947   1.666   6.574 -0.4905 -0.1406 -1.5878
  197DOPC  C31524474   2.042   1.840   6.671 -0.0310 -0.2250 -0.7014
  197DOPC  H15X24475   2.062   1.806   6.775 -0.7259 -1.3324 -0.9153
  197DOPC  H15Y24476   1.943   1.890   6.668 -1.3961 -2.7688 -1.4856
  197DOPC  C31624477   2.146   1.965   6.674 -0.3924 -0.2922  0.3722
  197DOPC  H16X24478   2.245   1.917   6.687 -0.9786 -1.2168  1.7472
  197DOPC  H16Y24479   2.161   2.024   6.581 -1.4297  1.8028  1.4560
  197DOPC  C31724480   2.111   2.066   6.781 -0.4467 -0.5589 -1.2932
  197DOPC  H17X24481   2.064   2.012   6.866 -0.4030 -1.4689 -1.8325
  197DOPC  H17Y24482   2.209   2.108   6.811 -1.7149  0.5265  1.7462
  197DOPC  C31824483   2.019   2.190   6.737 -1.0086  0.7471  0.2519
  197DOPC  H18X24484   2.014   2.269   6.816 -0.7027  0.0057  1.0261
  197DOPC  H18Y24485   2.053   2.237   6.642  0.1385  0.8355  0.6882
  197DOPC  H18Z24486   1.913   2.155   6.736 -1.7068  2.6776  1.1635
  198DOPC     N24487   0.554   6.390   4.386 -1.0760  0.6213 -0.3266
  198DOPC   C1224488   0.638   6.432   4.507 -0.1074  0.2317  0.0730
  198DOPC  H12A24489   0.673   6.532   4.483 -0.6286  0.8925  1.9263
  198DOPC  H12B24490   0.720   6.363   4.518 -0.6790 -0.5188 -0.3195
  198DOPC   C1324491   0.648   6.365   4.271 -0.5961  0.4256  0.7856
  198DOPC  H13A24492   0.693   6.458   4.241 -0.2369  0.3016  0.9320
  198DOPC  H13B24493   0.725   6.292   4.293  0.0523  0.5991 -0.8177
  198DOPC  H13C24494   0.599   6.331   4.180  1.7447 -1.7096  0.2158
  198DOPC   C1424495   0.443   6.492   4.353 -0.1560  0.5864 -0.1341
  198DOPC  H14A24496   0.388   6.518   4.442  2.1269 -0.6979  1.7609
  198DOPC  H14B24497   0.496   6.575   4.309 -0.5625  0.7684 -0.2918
  198DOPC  H14C24498   0.366   6.453   4.287  1.3135 -2.0660 -0.4222
  198DOPC   C1524499   0.485   6.258   4.413 -0.3205 -1.1484  0.1119
  198DOPC  H15A24500   0.398   6.276   4.475 -0.0888 -0.5593  0.2741
  198DOPC  H15B24501   0.545   6.196   4.478  0.6901  1.7986  2.2148
  198DOPC  H15C24502   0.457   6.204   4.324 -1.8531  1.2404 -0.9704
  198DOPC   C1124503   0.569   6.449   4.638 -0.2522  0.5098  0.5853
  198DOPC  H11A24504   0.519   6.354   4.668  0.8140 -0.8339 -1.6384
  198DOPC  H11B24505   0.646   6.452   4.718 -0.0167 -3.1811  0.6593
  198DOPC     P24506   0.542   6.703   4.666 -0.1271 -0.0299  0.1532
  198DOPC   O1324507   0.597   6.747   4.537  0.0358 -0.1443  0.1872
  198DOPC   O1424508   0.630   6.696   4.782 -0.9203 -0.3258 -0.2528
  198DOPC   O1224509   0.477   6.563   4.642 -0.9705  0.2405  0.7103
  198DOPC   O1124510   0.415   6.788   4.705  0.2878 -0.8490  0.2763
  198DOPC    C124511   0.347   6.766   4.819  0.4458  0.2370 -0.4112
  198DOPC    HA24512   0.330   6.658   4.839 -3.2067  0.9152  1.0679
  198DOPC    HB24513   0.243   6.807   4.814 -0.5091 -2.0058 -0.0382
  198DOPC    C224514   0.407   6.836   4.945 -0.1670  0.5108 -0.9140
  198DOPC    HS24515   0.509   6.796   4.964 -1.1017 -1.0178  1.2140
  198DOPC   O2124516   0.313   6.821   5.056 -0.3303  0.5579  0.4699
  198DOPC   C2124517   0.351   6.786   5.177 -0.1911  0.1931  0.8909
  198DOPC   O2224518   0.463   6.743   5.200  0.5052  0.1901 -0.1130
  198DOPC   C2224519   0.240   6.822   5.275 -0.3549 -0.3486 -0.1251
  198DOPC   H2R24520   0.154   6.759   5.243 -1.5056  0.5814  1.0454
  198DOPC   H2S24521   0.209   6.926   5.250 -0.8878 -1.1971 -3.6245
  198DOPC    C324522   0.439   6.992   4.932  0.1909 -0.2153 -0.4014
  198DOPC    HX24523   0.346   7.029   4.884 -0.0868 -0.3917  0.0007
  198DOPC    HY24524   0.526   6.999   4.863  2.5730 -0.5384  2.3929
  198DOPC   O3124525   0.461   7.056   5.062 -0.1881 -0.4129  0.3480
  198DOPC   C3124526   0.571   7.014   5.120 -0.3267  0.0431  0.0452
  198DOPC   O3224527   0.655   6.946   5.061 -1.1011 -0.4082 -0.0254
  198DOPC   C3224528   0.583   7.076   5.251 -0.3915  0.2743 -0.3971
  198DOPC   H2X24529   0.593   7.186   5.243  3.1778  0.0578 -0.4526
  198DOPC   H2Y24530   0.490   7.065   5.311  0.3072 -1.1816  0.4851
  198DOPC   C2324531   0.255   6.801   5.432 -0.1293 -0.3304  0.3098
  198DOPC   H3R24532   0.275   6.692   5.442 -1.4534 -0.5899  0.3670
  198DOPC   H3S24533   0.156   6.821   5.478 -1.2688 -0.6365 -1.8790
  198DOPC   C2424534   0.370   6.877   5.502  0.0763 -0.1363  0.1815
  198DOPC   H4R24535   0.356   6.986   5.488 -0.2699  0.2482  3.0564
  198DOPC   H4S24536   0.472   6.850   5.467  0.5226  1.8522 -0.1452
  198DOPC   C2524537   0.368   6.847   5.655  0.1454  0.1309 -0.2254
  198DOPC   H5R24538   0.364   6.738   5.679  2.4391  0.2514  0.9802
  198DOPC   H5S24539   0.276   6.895   5.695  0.1250 -0.0400 -0.0648
  198DOPC   C2624540   0.490   6.910   5.732 -0.0586  0.1494  0.0940
  198DOPC   H6R24541   0.494   7.017   5.701  2.2685 -0.4410 -2.0519
  198DOPC   H6S24542   0.577   6.857   5.687 -0.1548  1.7614 -2.1828
  198DOPC   C2724543   0.483   6.884   5.883  0.1573  0.2364  0.3237
  198DOPC   H7R24544   0.488   6.774   5.898  2.7237  0.1766 -0.4166
  198DOPC   H7S24545   0.380   6.919   5.903 -0.3329 -0.6725 -0.5410
  198DOPC   C2824546   0.583   6.971   5.971 -0.2558  0.2119  0.8468
  198DOPC   H8R24547   0.576   7.070   5.921  1.1513 -0.2818 -0.3847
  198DOPC   H8S24548   0.689   6.947   5.951 -0.6906 -0.0310 -1.3966
  198DOPC   C2924549   0.567   6.992   6.115  0.0994 -1.0193 -0.1340
  198DOPC   H9R24550   0.472   7.043   6.139  0.6472 -0.7321  1.5784
  198DOPC  C21024551   0.635   6.948   6.224  0.1955 -0.0720 -0.4831
  198DOPC  H10R24552   0.604   6.976   6.326  5.0802 -0.5406  1.4248
  198DOPC  C21124553   0.768   6.870   6.215  0.6430 -0.2609  0.6671
  198DOPC  H11R24554   0.841   6.905   6.291 -0.6541 -0.0347  1.8718
  198DOPC  H11S24555   0.804   6.887   6.112  1.3515 -0.7314  0.8282
  198DOPC  C21224556   0.756   6.722   6.260 -0.4154  1.2688  0.0479
  198DOPC  H12R24557   0.727   6.720   6.367  0.8235 -0.1976  0.4029
  198DOPC  H12S24558   0.855   6.671   6.254 -2.0773 -2.1673 -0.9794
  198DOPC  C21324559   0.652   6.638   6.181  0.3267 -0.4495 -0.0380
  198DOPC  H13R24560   0.559   6.698   6.173 -1.1524 -2.6012  0.3275
  198DOPC  H13S24561   0.631   6.545   6.237 -1.1940  0.6966  1.3695
  198DOPC  C21424562   0.696   6.601   6.037 -0.0345 -0.2316 -0.5658
  198DOPC  H14R24563   0.800   6.561   6.043  0.2659  0.7655  1.4977
  198DOPC  H14S24564   0.698   6.696   5.979 -0.1212  0.6678  0.8735
  198DOPC  C21524565   0.590   6.500   5.964 -0.1366  0.3879 -0.0169
  198DOPC  H15R24566   0.496   6.531   6.014 -0.4546  0.4231 -0.6321
  198DOPC  H15S24567   0.613   6.395   5.989  0.9038  0.4250 -0.7478
  198DOPC  C21624568   0.583   6.519   5.810  0.5602  0.4138  0.1683
  198DOPC  H16R24569   0.668   6.464   5.765  0.4783 -1.4448  2.0802
  198DOPC  H16S24570   0.593   6.627   5.784 -2.2642  0.4738 -1.0196
  198DOPC  C21724571   0.444   6.459   5.767 -0.7323 -0.5536  0.1506
  198DOPC  H17R24572   0.361   6.520   5.809  0.5791  1.5333 -0.1790
  198DOPC  H17S24573   0.436   6.354   5.803  0.0315 -0.1532  1.5342
  198DOPC  C21824574   0.437   6.467   5.616  0.8938  0.4878 -0.1524
  198DOPC  H18R24575   0.510   6.398   5.568  3.8976  1.6997  2.3642
  198DOPC  H18S24576   0.442   6.567   5.570 -0.0009 -0.2960 -2.0620
  198DOPC  H18T24577   0.337   6.429   5.584  1.6767 -1.3426 -0.5347
  198DOPC   C3324578   0.691   7.014   5.326  0.2185  0.5520  0.5988
  198DOPC   H3X24579   0.788   7.000   5.274 -0.5666  0.3915 -0.8668
  198DOPC   H3Y24580   0.662   6.911   5.355 -2.1788  1.1103  0.4369
  198DOPC   C3424581   0.717   7.087   5.459  0.2455 -0.3487  0.0840
  198DOPC   H4X24582   0.781   7.039   5.535 -0.1000  0.2622  0.7832
  198DOPC   H4Y24583   0.629   7.116   5.521 -1.2306 -1.9571 -1.1673
  198DOPC   C3524584   0.790   7.219   5.437  0.0734 -0.0835  0.1757
  198DOPC   H5X24585   0.743   7.265   5.347 -3.6318  1.6234  2.7496
  198DOPC   H5Y24586   0.899   7.195   5.434  0.1647  0.3788 -0.5427
  198DOPC   C3624587   0.766   7.321   5.549  0.5986  0.1450  1.2383
  198DOPC   H6X24588   0.812   7.418   5.522 -1.9256  0.8347 -1.0188
  198DOPC   H6Y24589   0.658   7.332   5.569  0.4667 -1.1447  1.3489
  198DOPC   C3724590   0.835   7.281   5.683  0.1555  0.1294  0.2857
  198DOPC   H7X24591   0.776   7.201   5.732  2.1793 -2.0398 -0.6078
  198DOPC   H7Y24592   0.935   7.236   5.665 -1.0066 -1.6947 -2.2236
  198DOPC   C3824593   0.865   7.392   5.780 -0.3667 -0.5004 -0.1227
  198DOPC   H8X24594   0.898   7.484   5.726 -3.7888  0.7727 -0.2475
  198DOPC   H8Y24595   0.946   7.352   5.845  1.0252  1.0419 -0.8084
  198DOPC   C3924596   0.740   7.428   5.856  0.4022  0.2565 -0.5769
  198DOPC   H9X24597   0.665   7.480   5.795 -0.9752  1.0410  1.6764
  198DOPC  C31024598   0.721   7.397   5.987 -0.0010 -0.2572  0.3899
  198DOPC  H10X24599   0.635   7.438   6.041  2.4620  3.9352  1.6522
  198DOPC  C31124600   0.823   7.334   6.070 -0.4727 -0.0723 -0.6260
  198DOPC  H11X24601   0.925   7.373   6.048  0.3015 -0.9585  1.1666
  198DOPC  H11Y24602   0.837   7.224   6.061  0.5392  0.2140 -3.2992
  198DOPC  C31224603   0.795   7.381   6.215  0.0844  0.0171  0.6506
  198DOPC  H12X24604   0.697   7.347   6.256 -0.1288  1.7315  1.6334
  198DOPC  H12Y24605   0.794   7.491   6.229  1.5188  0.0430  0.7051
  198DOPC  C31324606   0.907   7.338   6.313  0.6866  0.1414 -0.2568
  198DOPC  H13X24607   1.009   7.363   6.277  0.8201  2.4660  1.4980
  198DOPC  H13Y24608   0.883   7.396   6.405  0.2314  0.8258 -0.8045
  198DOPC  C31424609   0.919   7.184   6.340 -0.2334 -0.0983 -1.0395
  198DOPC  H14X24610   0.825   7.148   6.388 -1.1952  1.8737 -1.3523
  198DOPC  H14Y24611   0.937   7.136   6.242  1.5604 -0.9348 -0.3484
  198DOPC  C31524612   1.047   7.151   6.423 -0.3018 -0.1648 -0.0946
  198DOPC  H15X24613   1.065   7.193   6.524  3.3539 -0.9882 -0.2645
  198DOPC  H15Y24614   1.128   7.194   6.360  0.9727 -1.2394  0.7654
  198DOPC  C31624615   1.070   7.000   6.439  0.6594 -0.5099  0.3665
  198DOPC  H16X24616   1.065   6.949   6.340 -2.0757 -1.7411  1.0474
  198DOPC  H16Y24617   1.168   6.984   6.489  0.3606  2.3893  2.0984
  198DOPC  C31724618   0.971   6.929   6.529  0.7160 -0.7724 -0.1772
  198DOPC  H17X24619   0.976   6.984   6.625  2.3212 -0.2012 -0.5591
  198DOPC  H17Y24620   0.865   6.945   6.500  0.5979 -0.0942  0.5790
  198DOPC  C31824621   0.995   6.783   6.560  0.3915 -0.6409  0.3317
  198DOPC  H18X24622   0.905   6.745   6.612  0.9871 -1.5794  0.7055
  198DOPC  H18Y24623   0.993   6.725   6.465 -0.7834  0.1859 -0.1722
  198DOPC  H18Z24624   1.082   6.764   6.627  0.4952  0.9601  0.6804
  199DOPC     N24625   6.242   0.440   4.025 -0.3112 -0.1972  0.8251
  199DOPC   C1224626   6.192   0.372   4.150 -0.2661 -0.2482 -1.2171
  199DOPC  H12A24627   6.206   0.437   4.235  1.2425 -0.9858 -0.8740
  199DOPC  H12B24628   6.255   0.288   4.173  0.8495  1.0609  0.7768
  199DOPC   C1324629   6.247   0.340   3.912  0.4330  0.8184 -0.1197
  199DOPC  H13A24630   6.145   0.311   3.895  0.3920 -0.3885  1.8494
  199DOPC  H13B24631   6.279   0.380   3.817 -0.9034  0.8890 -0.5583
  199DOPC  H13C24632   6.311   0.258   3.944 -1.8631 -0.6508  0.9535
  199DOPC   C1424633   6.379   0.491   4.050  0.0549 -0.0772  0.3155
  199DOPC  H14A24634   6.451   0.413   4.072 -0.9337 -0.5565  1.9759
  199DOPC  H14B24635   6.426   0.541   3.966  2.9643 -2.6366  0.2081
  199DOPC  H14C24636   6.372   0.564   4.128 -0.2051  0.4646 -0.2078
  199DOPC   C1524637   6.151   0.548   3.988 -0.6730  0.6096 -0.2608
  199DOPC  H15A24638   6.056   0.506   3.958 -0.5355 -1.1956  1.5855
  199DOPC  H15B24639   6.193   0.602   3.904 -0.6232  1.3114  0.2102
  199DOPC  H15C24640   6.117   0.604   4.072 -2.6108  0.3339 -0.8236
  199DOPC   C1124641   6.048   0.326   4.157 -0.5766  0.3438  0.1087
  199DOPC  H11A24642   5.982   0.414   4.140 -1.9160 -0.2816  1.7041
  199DOPC  H11B24643   6.027   0.246   4.083  3.3933 -1.6469  0.8558
  199DOPC     P24644   5.983   0.346   4.422  0.2142  0.2670  0.0602
  199DOPC   O1324645   5.835   0.353   4.426  0.2125  0.5347 -0.3172
  199DOPC   O1424646   6.066   0.468   4.425  0.1101 -0.2118  0.5526
  199DOPC   O1224647   6.025   0.271   4.290  0.4740  0.0647  0.0243
  199DOPC   O1124648   6.022   0.250   4.534 -0.0863  0.3371 -0.4181
  199DOPC    C124649   6.156   0.197   4.543 -0.0080 -0.1406  0.2741
  199DOPC    HA24650   6.219   0.234   4.459  0.2268 -1.0431  0.0359
  199DOPC    HB24651   6.160   0.086   4.542  0.3071 -0.2065  2.5514
  199DOPC    C224652   6.217   0.226   4.683  0.1204  0.3478 -0.5376
  199DOPC    HS24653   6.139   0.198   4.756 -0.4189  0.1814 -1.1675
  199DOPC   O2124654   6.246   0.365   4.691  0.4042  0.9382  0.2008
  199DOPC   C2124655   6.213   0.432   4.808 -0.6144  0.0054 -0.0103
  199DOPC   O2224656   6.151   0.382   4.899 -0.1089 -0.4538  0.8277
  199DOPC   C2224657   6.281   0.571   4.792 -0.2503  0.4868  0.0397
  199DOPC   H2R24658   6.212   0.635   4.733 -0.0421  0.6521 -0.0244
  199DOPC   H2S24659   6.381   0.578   4.745 -0.5535  1.4007 -0.4958
  199DOPC    C324660   6.341   0.137   4.718 -0.1877  0.5242 -0.1370
  199DOPC    HX24661   6.422   0.169   4.648  0.2206  0.3963  0.2735
  199DOPC    HY24662   6.316   0.030   4.703 -2.0536  0.8791  0.1856
  199DOPC   O3124663   6.398   0.162   4.852 -0.2656 -0.4280  0.3516
  199DOPC   C3124664   6.334   0.097   4.942 -0.5074  1.0180 -0.3722
  199DOPC   O3224665   6.245   0.014   4.930  0.3186 -0.2777 -0.0099
  199DOPC   C3224666   6.380   0.148   5.072 -0.1209  0.0551 -0.0854
  199DOPC   H2X24667   6.491   0.139   5.068 -0.2613 -1.5091 -1.1089
  199DOPC   H2Y24668   6.349   0.253   5.093  0.7132  0.2749  0.1159
  199DOPC   C2324669   6.301   0.626   4.929 -0.1238  0.9270 -0.1728
  199DOPC   H3R24670   6.207   0.611   4.986  0.0963  0.0937 -0.0100
  199DOPC   H3S24671   6.318   0.735   4.919  0.6767  0.6978 -1.5805
  199DOPC   C2424672   6.407   0.557   5.010  0.3634  0.2194 -0.0127
  199DOPC   H4R24673   6.490   0.557   4.937  1.8978  0.1055  1.6662
  199DOPC   H4S24674   6.364   0.457   5.032 -1.2437  1.0056  0.6592
  199DOPC   C2524675   6.454   0.638   5.134 -0.5857  0.3735 -0.1703
  199DOPC   H5R24676   6.460   0.746   5.108  1.6371  0.8223  1.8061
  199DOPC   H5S24677   6.559   0.603   5.143 -0.7307  0.1776  0.8929
  199DOPC   C2624678   6.374   0.607   5.267 -0.2849  0.6580 -0.4744
  199DOPC   H6R24679   6.345   0.500   5.268  1.5529  0.0767 -2.4635
  199DOPC   H6S24680   6.278   0.663   5.257 -0.9689 -0.3616  0.2357
  199DOPC   C2724681   6.449   0.654   5.384 -0.3387  0.6413 -0.3888
  199DOPC   H7R24682   6.531   0.726   5.361  0.7779 -0.2445  0.7195
  199DOPC   H7S24683   6.512   0.568   5.414  0.2276  0.5018 -1.8711
  199DOPC   C2824684   6.367   0.697   5.504 -0.4666 -0.9440 -0.5889
  199DOPC   H8R24685   6.311   0.785   5.467 -0.3995 -1.0320 -0.9047
  199DOPC   H8S24686   6.436   0.741   5.579 -1.1533 -0.4490 -0.2441
  199DOPC   C2924687   6.272   0.592   5.563 -0.2022  0.4078 -0.9517
  199DOPC   H9R24688   6.177   0.576   5.510 -1.3111 -1.2915  1.3669
  199DOPC  C21024689   6.295   0.523   5.679  0.7022  0.1932 -0.1922
  199DOPC  H10R24690   6.209   0.471   5.724  0.5881 -1.1846 -1.9072
  199DOPC  C21124691   6.424   0.515   5.758 -0.2462 -0.9298  0.1373
  199DOPC  H11R24692   6.519   0.545   5.709  2.3568 -2.0052  4.0597
  199DOPC  H11S24693   6.449   0.413   5.792 -1.6861 -0.8014  1.7236
  199DOPC  C21224694   6.409   0.590   5.890  0.5263  0.0333  0.2419
  199DOPC  H12R24695   6.348   0.528   5.959 -1.8208 -0.1004 -1.8140
  199DOPC  H12S24696   6.365   0.692   5.885 -0.1489 -0.1921  1.2679
  199DOPC  C21324697   6.544   0.608   5.949 -0.2513 -0.0005 -0.0371
  199DOPC  H13R24698   6.602   0.683   5.891 -0.2026  0.0641  0.0948
  199DOPC  H13S24699   6.595   0.510   5.941  0.4219  0.2503  0.9723
  199DOPC  C21424700   6.553   0.646   6.097  0.1875 -0.4546 -0.3075
  199DOPC  H14R24701   6.492   0.570   6.151 -0.4670  1.4308  1.7756
  199DOPC  H14S24702   6.512   0.745   6.126  1.8150  0.0548  0.3553
  199DOPC  C21524703   6.698   0.637   6.152  0.2520  0.1157  0.3356
  199DOPC  H15R24704   6.750   0.707   6.082 -0.1934 -0.6112 -0.7487
  199DOPC  H15S24705   6.733   0.533   6.135 -0.1925  0.2109 -1.3999
  199DOPC  C21624706   6.723   0.682   6.299  0.0201  0.6688  0.0213
  199DOPC  H16R24707   6.713   0.792   6.303 -1.5400  0.5374  1.0275
  199DOPC  H16S24708   6.827   0.653   6.324 -0.1037 -0.9856 -1.1742
  199DOPC  C21724709   6.628   0.606   6.391 -0.3882 -0.5811 -0.6537
  199DOPC  H17R24710   6.624   0.498   6.365 -0.4756 -0.6594 -0.3129
  199DOPC  H17S24711   6.521   0.627   6.370 -0.5103 -2.3710 -2.0672
  199DOPC  C21824712   6.661   0.628   6.543  0.4054 -0.1503 -0.2871
  199DOPC  H18R24713   6.594   0.568   6.609 -1.5042  2.6546  0.4760
  199DOPC  H18S24714   6.643   0.736   6.558 -1.2169 -0.0389 -2.4615
  199DOPC  H18T24715   6.762   0.582   6.550  0.8365  0.9982  1.6822
  199DOPC   C3324716   6.322   0.083   5.191 -0.4982 -0.0185 -0.0617
  199DOPC   H3X24717   6.385   0.094   5.282 -0.2757  0.0845 -0.2279
  199DOPC   H3Y24718   6.303  -0.026   5.180  1.5716 -0.5469  0.9812
  199DOPC   C3424719   6.193   0.151   5.246 -0.0951  0.1855 -0.2281
  199DOPC   H4X24720   6.115   0.122   5.172  0.0896 -0.9562  0.0168
  199DOPC   H4Y24721   6.200   0.262   5.245 -2.3552  0.4271  1.4626
  199DOPC   C3524722   6.145   0.096   5.384  0.1921  0.0753  0.5508
  199DOPC   H5X24723   6.177  -0.009   5.397  0.3921  0.0189 -0.3030
  199DOPC   H5Y24724   6.034   0.099   5.393  0.2078 -2.9852  3.4639
  199DOPC   C3624725   6.199   0.177   5.505  0.0076  0.0536  0.0264
  199DOPC   H6X24726   6.308   0.193   5.491 -0.2222  1.9238  0.1405
  199DOPC   H6Y24727   6.164   0.281   5.491 -1.7124 -0.3600  1.0080
  199DOPC   C3724728   6.163   0.103   5.634  0.8491 -0.2355 -0.0552
  199DOPC   H7X24729   6.053   0.105   5.648  0.6851  1.4149 -1.2907
  199DOPC   H7Y24730   6.202  -0.000   5.619  0.6895 -0.4177  0.7387
  199DOPC   C3824731   6.235   0.165   5.758 -0.2714  0.7142  0.0851
  199DOPC   H8X24732   6.205   0.271   5.774 -1.8307  0.1017  1.5595
  199DOPC   H8Y24733   6.343   0.184   5.737  0.1166 -0.5126  0.9011
  199DOPC   C3924734   6.231   0.080   5.887 -0.5338  0.1668 -0.6564
  199DOPC   H9X24735   6.258  -0.026   5.885  3.1113  0.9443  0.7448
  199DOPC  C31024736   6.214   0.126   6.012  0.1600  0.2968 -0.3558
  199DOPC  H10X24737   6.205   0.055   6.095 -0.2895 -0.9378 -1.4342
  199DOPC  C31124738   6.174   0.261   6.052  0.2212 -1.0666 -0.3366
  199DOPC  H11X24739   6.167   0.335   5.969  2.6476 -0.2573  0.0696
  199DOPC  H11Y24740   6.255   0.305   6.115  0.9181 -0.0839 -1.8521
  199DOPC  C31224741   6.035   0.257   6.120  0.1422 -0.3917 -0.8863
  199DOPC  H12X24742   5.953   0.215   6.057 -1.6332 -1.4579  1.9288
  199DOPC  H12Y24743   6.011   0.364   6.138 -0.2141 -0.2206 -2.2578
  199DOPC  C31324744   6.036   0.180   6.256  0.0070  0.6631  0.1035
  199DOPC  H13X24745   6.066   0.074   6.247 -0.2007  0.2048  3.4929
  199DOPC  H13Y24746   6.118   0.209   6.326 -1.2537 -1.5389  2.6574
  199DOPC  C31424747   5.899   0.187   6.325  0.1379 -0.4546  0.5799
  199DOPC  H14X24748   5.866   0.292   6.340 -0.6647 -0.3251 -1.7112
  199DOPC  H14Y24749   5.819   0.150   6.257 -0.1921 -0.0227  0.7325
  199DOPC  C31524750   5.889   0.105   6.457 -0.1802 -0.9482  0.5832
  199DOPC  H15X24751   5.950   0.152   6.537  0.2971 -0.3595 -0.1119
  199DOPC  H15Y24752   5.914  -0.003   6.447  1.6492 -0.6493  1.5107
  199DOPC  C31624753   5.739   0.103   6.501  0.5807 -0.2880  0.6057
  199DOPC  H16X24754   5.713   0.206   6.534  1.9517 -0.0750  1.0740
  199DOPC  H16Y24755   5.676   0.085   6.411  1.5295  2.2932 -0.6749
  199DOPC  C31724756   5.713  -0.002   6.605 -0.2724 -0.2511 -0.3808
  199DOPC  H17X24757   5.750  -0.100   6.568 -0.5737  0.0805 -1.6066
  199DOPC  H17Y24758   5.773   0.036   6.690  0.0508 -0.6822 -0.4100
  199DOPC  C31824759   5.563  -0.021   6.634 -0.1354 -0.2825 -0.3176
  199DOPC  H18X24760   5.523  -0.085   6.552 -3.5502 -0.2257  1.1759
  199DOPC  H18Y24761   5.556  -0.069   6.734 -1.0084 -2.7545 -1.4898
  199DOPC  H18Z24762   5.499   0.069   6.637 -0.7867 -0.7250  3.0832
  200DOPC     N24763   1.133   0.942   4.575 -0.0462 -0.4469  0.1359
  200DOPC   C1224764   1.030   0.938   4.694  0.2220 -0.7911 -0.1889
  200DOPC  H12A24765   1.001   0.834   4.697  0.2869 -0.8060 -0.0434
  200DOPC  H12B24766   0.946   0.994   4.654  0.7350  0.3134  0.2372
  200DOPC   C1324767   1.238   0.840   4.603  0.0607 -0.0862 -0.4450
  200DOPC  H13A24768   1.282   0.858   4.700 -1.6491 -2.2892  0.8271
  200DOPC  H13B24769   1.203   0.738   4.600 -1.4738  0.4143 -0.5686
  200DOPC  H13C24770   1.324   0.850   4.539  0.8258  0.1791  0.6046
  200DOPC   C1424771   1.190   1.079   4.569 -0.0576 -0.5750  0.5442
  200DOPC  H14A24772   1.128   1.144   4.510  0.6759 -0.7668 -0.4582
  200DOPC  H14B24773   1.197   1.126   4.666  0.8925  1.7275 -0.5495
  200DOPC  H14C24774   1.286   1.072   4.520 -0.3314 -1.0507  0.0662
  200DOPC   C1524775   1.066   0.906   4.451 -1.1126 -0.3600  0.1970
  200DOPC  H15A24776   0.993   0.980   4.419  1.1052  0.8631 -2.4786
  200DOPC  H15B24777   1.018   0.809   4.460  0.0735 -1.1663 -1.6066
  200DOPC  H15C24778   1.141   0.900   4.374  0.2205 -0.2465  1.4450
  200DOPC   C1124779   1.067   0.983   4.835  0.3201 -0.3165 -0.6430
  200DOPC  H11A24780   0.983   0.944   4.897  0.2721 -1.0411 -1.1563
  200DOPC  H11B24781   1.155   0.930   4.877  0.4048 -1.1257 -1.8069
  200DOPC     P24782   0.943   1.221   4.855 -0.1283  0.0775  0.3063
  200DOPC   O1324783   0.837   1.168   4.761 -0.5655 -0.5001  0.4010
  200DOPC   O1424784   0.985   1.362   4.827 -0.0892  0.3209  0.1745
  200DOPC   O1224785   1.072   1.122   4.846 -0.0933  0.6133 -0.1146
  200DOPC   O1124786   0.879   1.211   4.999  0.0167  0.6693 -0.0160
  200DOPC    C124787   0.936   1.261   5.121  0.3233 -0.2578  0.3962
  200DOPC    HA24788   1.026   1.323   5.100 -0.6262  0.6800 -1.1251
  200DOPC    HB24789   0.974   1.174   5.180  0.6288  1.0814  2.2617
  200DOPC    C224790   0.834   1.337   5.207  0.8876 -0.0480 -0.0504
  200DOPC    HS24791   0.893   1.397   5.281 -0.8856  0.4963  0.9760
  200DOPC   O2124792   0.736   1.256   5.280  0.0643 -0.2954 -0.1093
  200DOPC   C2124793   0.790   1.178   5.375 -0.5222  0.9286  0.2180
  200DOPC   O2224794   0.903   1.184   5.412  0.2874 -0.1911  0.4580
  200DOPC   C2224795   0.695   1.061   5.386 -0.5915 -0.3782 -0.1674
  200DOPC   H2R24796   0.698   1.003   5.292 -1.2164  1.2410 -1.2375
  200DOPC   H2S24797   0.593   1.101   5.402 -0.2738 -0.1863  1.6470
  200DOPC    C324798   0.752   1.431   5.122  0.4893  0.0382  0.4202
  200DOPC    HX24799   0.691   1.371   5.051  0.4112 -0.2744  0.7479
  200DOPC    HY24800   0.826   1.486   5.061  0.8257  1.6008  2.1280
  200DOPC   O3124801   0.670   1.514   5.206 -0.3553  0.0228 -0.1376
  200DOPC   C3124802   0.728   1.629   5.247  0.2517  0.3733 -0.3990
  200DOPC   O3224803   0.835   1.667   5.209  0.3215  0.2703  0.1964
  200DOPC   C3224804   0.632   1.702   5.332 -0.5701 -0.1209  0.3530
  200DOPC   H2X24805   0.606   1.794   5.275  1.3644 -0.0853 -0.5406
  200DOPC   H2Y24806   0.544   1.635   5.345  0.0177 -1.0627 -0.4166
  200DOPC   C2324807   0.736   0.959   5.492 -0.1446  0.3022 -0.7391
  200DOPC   H3R24808   0.846   0.945   5.499  0.0007  1.3871 -0.7482
  200DOPC   H3S24809   0.678   0.865   5.477  1.1110 -0.8320  1.1601
  200DOPC   C2424810   0.687   1.007   5.628  0.1500 -0.1378 -0.3160
  200DOPC   H4R24811   0.580   1.035   5.630  0.0706 -0.4560  0.3711
  200DOPC   H4S24812   0.744   1.094   5.666  0.3776 -0.5627  0.3440
  200DOPC   C2524813   0.695   0.895   5.741 -0.2510 -0.3012 -0.4471
  200DOPC   H5R24814   0.654   0.799   5.703  2.6281 -2.2813  1.0237
  200DOPC   H5S24815   0.647   0.923   5.837  1.0488  0.1179  0.1117
  200DOPC   C2624816   0.842   0.861   5.771 -0.8023 -0.4442  0.1988
  200DOPC   H6R24817   0.898   0.942   5.823 -0.9623  0.5044 -1.0704
  200DOPC   H6S24818   0.898   0.841   5.677  1.8064  1.9849  1.0878
  200DOPC   C2724819   0.850   0.732   5.855 -0.2651 -0.2878 -0.1368
  200DOPC   H7R24820   0.820   0.648   5.789 -0.4259 -0.3217 -0.0210
  200DOPC   H7S24821   0.786   0.742   5.945  0.1672  1.2675  0.0312
  200DOPC   C2824822   0.993   0.709   5.898  0.3332  0.5829  0.2409
  200DOPC   H8R24823   1.026   0.802   5.948  0.8096 -0.9258  2.9271
  200DOPC   H8S24824   1.051   0.703   5.803 -0.3076  0.9210 -0.1846
  200DOPC   C2924825   1.005   0.578   5.981 -0.1907 -0.3382 -0.2236
  200DOPC   H9R24826   0.920   0.570   6.050 -0.9447 -0.6319 -1.1566
  200DOPC  C21024827   1.106   0.490   5.971  0.1639  0.3136  0.0898
  200DOPC  H10R24828   1.115   0.422   6.056 -0.6855  0.3800  0.2421
  200DOPC  C21124829   1.228   0.480   5.883 -0.2148 -0.5880  0.4598
  200DOPC  H11R24830   1.326   0.465   5.933 -0.9021  1.3164  2.5214
  200DOPC  H11S24831   1.251   0.579   5.838  1.3598 -0.7029  0.9448
  200DOPC  C21224832   1.198   0.376   5.776  0.0674 -0.1375 -0.0904
  200DOPC  H12R24833   1.278   0.379   5.699  1.0673  1.5274  0.9663
  200DOPC  H12S24834   1.096   0.390   5.733  0.0258 -0.2588 -0.0309
  200DOPC  C21324835   1.197   0.230   5.833  0.9801 -0.3544 -0.3215
  200DOPC  H13R24836   1.104   0.223   5.893  0.5018 -2.2501 -1.2019
  200DOPC  H13S24837   1.289   0.226   5.896  0.9593  1.5931 -0.0926
  200DOPC  C21424838   1.183   0.120   5.723 -0.5050 -0.0820  0.3126
  200DOPC  H14R24839   1.232   0.141   5.626  1.2135 -0.9148  0.9500
  200DOPC  H14S24840   1.078   0.107   5.690 -0.5060  0.2397  0.1794
  200DOPC  C21524841   1.260  -0.011   5.772  0.1385  0.1237  0.7852
  200DOPC  H15R24842   1.371   0.000   5.770  0.2353 -0.8232 -0.2937
  200DOPC  H15S24843   1.237  -0.091   5.698 -0.3512 -0.0105  1.0835
  200DOPC  C21624844   1.196  -0.059   5.901  0.0548  0.6652  0.6705
  200DOPC  H16R24845   1.085  -0.060   5.899 -0.0148  3.0944  0.0803
  200DOPC  H16S24846   1.235   0.007   5.981  0.6904 -0.9138  1.7028
  200DOPC  C21724847   1.242  -0.205   5.924  0.2001 -0.6812 -0.8018
  200DOPC  H17R24848   1.353  -0.208   5.919  0.1465 -1.7448 -1.7441
  200DOPC  H17S24849   1.214  -0.273   5.840 -0.8669 -0.6354 -0.4943
  200DOPC  C21824850   1.212  -0.260   6.065 -0.6422 -0.4021 -0.5926
  200DOPC  H18R24851   1.176  -0.365   6.061 -1.8968 -0.1378  1.9647
  200DOPC  H18S24852   1.143  -0.191   6.118 -0.6280 -0.4612 -0.4973
  200DOPC  H18T24853   1.306  -0.263   6.125 -1.5873 -0.9016  0.9250
  200DOPC   C3324854   0.681   1.738   5.474  0.0725 -0.5928 -0.1812
  200DOPC   H3X24855   0.621   1.830   5.495  1.7392  0.8585 -1.4739
  200DOPC   H3Y24856   0.787   1.768   5.461 -0.0214 -1.1342 -2.5938
  200DOPC   C3424857   0.642   1.628   5.580  0.0327 -0.2692 -0.3485
  200DOPC   H4X24858   0.540   1.602   5.546  0.1731 -0.0238 -0.9629
  200DOPC   H4Y24859   0.632   1.696   5.668 -1.2756  1.7174 -1.9222
  200DOPC   C3524860   0.739   1.510   5.605 -0.5429  0.2764 -0.0227
  200DOPC   H5X24861   0.839   1.546   5.637 -1.0978  1.0671  0.8708
  200DOPC   H5Y24862   0.744   1.458   5.507  2.8039  0.8010 -0.2454
  200DOPC   C3624863   0.674   1.425   5.707 -0.5942 -0.1250  0.0768
  200DOPC   H6X24864   0.627   1.492   5.783  0.6226 -0.3184  1.0255
  200DOPC   H6Y24865   0.594   1.360   5.666 -1.4117 -0.3826  1.9706
  200DOPC   C3724866   0.777   1.346   5.791 -1.0693 -0.3682 -0.1825
  200DOPC   H7X24867   0.824   1.275   5.719  1.7231  2.9493 -1.9672
  200DOPC   H7Y24868   0.854   1.417   5.827 -1.0263 -0.9575  0.8980
  200DOPC   C3824869   0.711   1.272   5.915 -0.3536  0.2745 -0.3774
  200DOPC   H8X24870   0.609   1.235   5.891 -0.6871  0.6886  0.3483
  200DOPC   H8Y24871   0.686   1.352   5.988 -1.1708 -0.4060  0.1112
  200DOPC   C3924872   0.788   1.158   5.968  0.4763 -0.0718  0.0032
  200DOPC   H9X24873   0.731   1.064   5.960 -0.5879  0.0348  3.9553
  200DOPC  C31024874   0.891   1.156   6.051  0.0062  0.7618  0.1371
  200DOPC  H10X24875   0.924   1.054   6.074 -3.1150 -0.6145 -1.0106
  200DOPC  C31124876   0.967   1.276   6.092 -0.2613  0.7102 -0.6120
  200DOPC  H11X24877   0.918   1.369   6.057 -1.4320  1.2543  2.2613
  200DOPC  H11Y24878   1.067   1.280   6.043  1.1388  0.6521  2.1003
  200DOPC  C31224879   0.986   1.290   6.241  0.5895 -0.0626  0.6306
  200DOPC  H12X24880   0.882   1.283   6.279  0.4756  1.1844  0.5882
  200DOPC  H12Y24881   1.012   1.397   6.255 -1.7510  0.3531  2.3830
  200DOPC  C31324882   1.092   1.205   6.319  0.7674  0.8281  0.0086
  200DOPC  H13X24883   1.049   1.103   6.316  1.9386  0.3436 -0.8197
  200DOPC  H13Y24884   1.185   1.202   6.258  0.7812 -3.2523 -0.0406
  200DOPC  C31424885   1.124   1.254   6.464  0.8243  0.0049  0.3831
  200DOPC  H14X24886   1.222   1.215   6.500  0.2863 -2.6238 -0.7586
  200DOPC  H14Y24887   1.140   1.364   6.454  0.6146 -0.1573 -2.6413
  200DOPC  C31524888   1.003   1.235   6.563  0.1247  0.1199  0.5940
  200DOPC  H15X24889   0.994   1.125   6.577 -2.1604  0.0312 -0.9076
  200DOPC  H15Y24890   0.911   1.283   6.523  0.6845  0.5660 -0.1977
  200DOPC  C31624891   1.026   1.299   6.694 -0.2756 -0.5377  0.2495
  200DOPC  H16X24892   1.130   1.280   6.728  0.5062  1.4830 -0.8169
  200DOPC  H16Y24893   1.036   1.409   6.678  1.8331 -0.8080 -0.6514
  200DOPC  C31724894   0.914   1.274   6.802 -0.0855 -0.0407 -0.3304
  200DOPC  H17X24895   0.909   1.164   6.811  0.6163 -0.0377  0.1895
  200DOPC  H17Y24896   0.959   1.307   6.898 -1.8124  1.2511  0.0919
  200DOPC  C31824897   0.779   1.343   6.762 -0.4115  0.4301  0.1648
  200DOPC  H18X24898   0.746   1.294   6.667  0.3930  0.3322 -0.0689
  200DOPC  H18Y24899   0.690   1.328   6.828 -0.1627  1.0898  0.6594
  200DOPC  H18Z24900   0.791   1.445   6.719 -2.3981  0.2817 -0.8501
  201SOD    SOD24901   1.011   1.082   9.543  0.2411 -0.0905  0.1311
  202SOD    SOD24902   3.030   0.706   3.543  0.5913  0.0265 -0.3210
  203SOD    SOD24903   4.900   1.534   9.728 -0.0689 -0.2749 -0.4275
  204SOD    SOD24904   0.186   6.081   2.860 -0.0639  0.3184 -0.1143
  205SOD    SOD24905   5.502   5.214   9.892  0.0993  0.1818  0.2510
  206SOD    SOD24906   4.194   7.224   4.338  0.2403 -0.0857 -0.2177
  207SOD    SOD24907   3.056   2.419   3.287 -0.1940 -0.0131 -0.4352
  208SOD    SOD24908   0.338   6.122   8.933  0.1296 -0.0421 -0.0993
  209SOD    SOD24909   7.326   7.422   3.676  0.2337  0.5792  0.0686
  210SOD    SOD24910   2.069   1.530  10.047  0.1017 -0.3126  0.0572
  211SOD    SOD24911   0.963   5.749  10.473 -0.5825  0.6009  0.1112
  212SOD    SOD24912   6.878   5.509   9.019  0.0411 -0.1251  0.3539
  213SOD    SOD24913   6.769   4.634   3.995 -0.1053 -0.2758 -0.5322
  214SOD    SOD24914   2.527   0.779   9.873 -0.4306 -0.2458  0.3327
  215SOD    SOD24915   5.726   6.804   9.702 -0.3466 -0.1412 -0.4813
  216SOD    SOD24916   4.395   1.004   8.353 -0.0795 -0.2292  0.0528
  217SOD    SOD24917   0.655   1.418   4.106 -0.2615  0.1054  0.0112
  218SOD    SOD24918   4.047   5.767  10.595 -0.3071 -0.6630  0.3382
  219SOD    SOD24919   0.365   1.413  10.555 -0.2537 -0.1056 -0.2555
  220SOD    SOD24920   5.088   4.710   4.180  0.3535  0.1615  0.5186
  221SOD    SOD24921   6.181   5.766   2.706 -0.7079 -0.2068 -0.2415
  222SOD    SOD24922   5.734   3.981   8.602  0.1122 -0.1419  0.0340
  223SOD    SOD24923   5.411   3.198   2.604 -0.4538  0.4180  0.0555
  224SOD    SOD24924   6.654   2.559   2.559 -0.7500  0.1228  0.0750
  225SOD    SOD24925   5.915   7.065   3.958  0.5136 -0.4006  0.4917
  226SOD    SOD24926   7.315   5.036   9.400 -0.0364 -0.4188 -0.3072
  227CLA    CLA24927   1.887   2.856   3.977 -0.3415 -0.5225 -0.5158
  228CLA    CLA24928   3.582   0.591   3.705  0.2374 -0.0580  0.1500
  229CLA    CLA24929   5.247   4.150   3.812  0.2198 -0.2089  0.0015
  230CLA    CLA24930   0.472   5.994   9.645 -0.0040 -0.0316 -0.1343
  231CLA    CLA24931   0.719   5.225   9.393  0.1198  0.1294  0.0155
  232CLA    CLA24932   2.217   1.537   9.814  0.0628  0.5466  0.1465
  233CLA    CLA24933   3.763   5.485   9.889  0.1418 -0.0331  0.3832
  234CLA    CLA24934   7.365   1.545  10.317 -0.0087  0.0889  0.1092
  235CLA    CLA24935   6.704   0.232   2.677 -0.1700  0.0434  0.1967
  236CLA    CLA24936   1.150   5.174  10.251 -0.0130  0.1185  0.0331
  237CLA    CLA24937   5.899   1.203  10.147  0.0310  0.0404 -0.0687
  238CLA    CLA24938   6.150   2.135   3.702 -0.0883 -0.0571 -0.0161
  239CLA    CLA24939   6.789   5.714   3.464 -0.2928  0.1513  0.1166
  240CLA    CLA24940   7.651   7.393  10.388 -0.1443  0.1446 -0.1329
  241CLA    CLA24941   5.013   1.663   2.881  0.3048 -0.0304 -0.2025
  242CLA    CLA24942   5.257   3.245   9.209 -0.2830  0.1541  0.0916
  243CLA    CLA24943   0.270   6.830   3.361  0.3441 -0.0505 -0.1612
  244CLA    CLA24944   6.146   6.009   2.880 -0.2230 -0.2228 -0.3626
  245CLA    CLA24945   5.313   7.491   2.737  0.2607  0.3954  0.1677
  246CLA    CLA24946   4.033   0.892  10.287 -0.0440 -0.2206  0.0405
  247CLA    CLA24947   3.790   3.921   3.653 -0.4329 -0.0987 -0.1191
  248CLA    CLA24948   4.304   2.205   2.358  0.2277 -0.0700  0.2549
  249CLA    CLA24949   0.604   1.745   2.805  0.6918  0.4673 -0.1064
  250CLA    CLA24950   0.001   3.371   9.708  0.0262 -0.3788 -0.3904
  251CLA    CLA24951   4.349   5.388  10.414  0.2973  0.0733  0.1501
  252CLA    CLA24952   7.346   0.334   3.639  0.1397  0.2141 -0.1281
  253TIP3   OH224953   6.020   0.352   9.370 -0.1608 -0.0288 -0.3952
  253TIP3    H124954   6.079   0.279   9.349  0.7071  0.8413 -1.0501
  253TIP3    H224955   5.974   0.371   9.288  1.1132  1.4720 -0.7984
  254TIP3   OH224956   7.233   4.292   9.081 -0.3402  0.1259 -0.2390
  254TIP3    H124957   7.295   4.292   9.154  1.4048  0.2353 -1.6693
  254TIP3    H224958   7.224   4.384   9.057 -2.0040  0.2442  0.6773
  255TIP3   OH224959   3.687   0.412   8.689 -0.7021 -0.5458 -0.4543
  255TIP3    H124960   3.757   0.357   8.653  0.2231  1.2422 -1.5164
  255TIP3    H224961   3.636   0.352   8.743  0.8897 -2.2021 -0.6663
  256TIP3   OH224962   3.769   2.636   8.784 -0.1101  0.0737  0.2144
  256TIP3    H124963   3.776   2.691   8.862 -1.3362 -1.5878  1.5544
  256TIP3    H224964   3.688   2.664   8.743 -0.0379  0.1848  0.1468
  257TIP3   OH224965   4.942   3.499  10.381  0.7324 -0.0515  0.3732
  257TIP3    H124966   4.993   3.568  10.425 -0.1790  0.3366  0.8616
  257TIP3    H224967   4.937   3.429  10.446 -0.3447  0.3956  0.8182
  258TIP3   OH224968   2.659   0.879  10.063 -0.1318 -0.0919  1.0151
  258TIP3    H124969   2.743   0.925  10.068 -0.1152 -0.0272  0.1841
  258TIP3    H224970   2.601   0.931  10.119 -0.1629  1.0772 -0.0519
  259TIP3   OH224971   2.356   3.017  11.120 -0.2796  0.0899  0.5777
  259TIP3    H124972   2.326   3.005  11.030  1.9668  1.4845 -0.4617
  259TIP3    H224973   2.424   2.951  11.132 -2.3876 -1.9160  2.2966
  260TIP3   OH224974   2.926   4.837   9.106 -0.1345 -0.3178 -0.2360
  260TIP3    H124975   3.004   4.879   9.072 -0.3778 -0.6374 -1.2304
  260TIP3    H224976   2.958   4.778   9.174  0.2260  1.2934  1.0445
  261TIP3   OH224977   0.324   6.060   9.169  0.5412 -0.1012  0.2927
  261TIP3    H124978   0.270   6.106   9.234  0.7090  0.4955  0.0184
  261TIP3    H224979   0.410   6.052   9.210  0.9308  1.1609 -0.2171
  262TIP3   OH224980   3.860   6.088  10.701 -0.8061 -0.0360 -0.0550
  262TIP3    H124981   3.894   6.001  10.679 -0.5189  0.2522 -0.7827
  262TIP3    H224982   3.839   6.128  10.617  1.8136  1.6945 -0.0054
  263TIP3   OH224983   6.642   3.325   9.352 -0.1241  0.1465  0.2289
  263TIP3    H124984   6.679   3.244   9.319 -1.3120 -1.0631  1.7277
  263TIP3    H224985   6.696   3.394   9.313  1.8397 -1.3972  0.0901
  264TIP3   OH224986   7.544   7.303  10.656  0.0229  0.1644  0.0738
  264TIP3    H124987   7.525   7.209  10.646  1.2903 -0.3966  2.1631
  264TIP3    H224988   7.587   7.327  10.574 -0.7507 -0.9532 -0.6985
  265TIP3   OH224989   4.061   0.487   9.178 -0.7565  0.6265 -0.3748
  265TIP3    H124990   3.989   0.492   9.241  1.1864 -0.6911  2.1487
  265TIP3    H224991   4.106   0.571   9.186 -0.4870  0.4448  0.0715
  266TIP3   OH224992   2.566   4.531  10.445  0.3252 -0.3275 -0.1115
  266TIP3    H124993   2.487   4.483  10.419  0.5431  0.1387 -1.7696
  266TIP3    H224994   2.574   4.515  10.539 -0.5931 -2.0688 -0.2800
  267TIP3   OH224995   3.376   2.262   9.470  0.1060 -0.3173  0.0294
  267TIP3    H124996   3.375   2.336   9.409  2.8331 -0.7924 -0.7559
  267TIP3    H224997   3.287   2.228   9.469 -0.9058  2.1264 -0.5994
  268TIP3   OH224998   1.210   3.742  10.449  0.7502  0.6339 -0.5182
  268TIP3    H124999   1.238   3.651  10.434 -0.4688 -0.0523  1.0753
  268TIP3    H225000   1.193   3.776  10.361  0.0699 -1.0733 -1.1008
  269TIP3   OH225001   6.448   7.365   9.813  0.4884  0.5053  0.4179
  269TIP3    H125002   6.451   7.461   9.820  1.6550  0.4669  0.7278
  269TIP3    H225003   6.540   7.338   9.821  0.2692 -0.5856 -0.5368
  270TIP3   OH225004   2.342   3.538  11.229  0.2313 -0.1717 -0.3682
  270TIP3    H125005   2.436   3.549  11.214  0.6015 -0.9123  1.2328
  270TIP3    H225006   2.301   3.590  11.160  1.8048  0.1390 -1.1210
  271TIP3   OH225007   5.798   4.679   9.955  0.1175  0.1600  0.5843
  271TIP3    H125008   5.851   4.665  10.033 -0.1459  1.8207  1.0914
  271TIP3    H225009   5.712   4.643   9.978  0.7633 -1.9332 -0.0077
  272TIP3   OH225010   0.518   2.288  10.455 -0.1701  0.8144 -0.6132
  272TIP3    H125011   0.472   2.287  10.539 -0.0604  0.5099 -0.5536
  272TIP3    H225012   0.448   2.287  10.389 -0.2809 -1.3889 -0.5357
  273TIP3   OH225013   6.831   3.802   9.119 -0.5145  0.6360 -0.3666
  273TIP3    H125014   6.858   3.892   9.134 -0.2438  0.9436 -2.4762
  273TIP3    H225015   6.801   3.800   9.028 -1.1204 -1.2625 -0.1754
  274TIP3   OH225016   6.439   6.368  10.485  0.1238  0.0154 -0.6172
  274TIP3    H125017   6.500   6.343  10.555 -0.5875 -0.3228 -0.1081
  274TIP3    H225018   6.496   6.398  10.414  0.9494 -1.2791 -0.5529
  275TIP3   OH225019   2.682   2.817  10.660 -0.2301 -0.1790 -0.3999
  275TIP3    H125020   2.715   2.796  10.573  0.4836 -3.5600  0.5296
  275TIP3    H225021   2.589   2.837  10.647 -0.3966 -1.7007 -1.8538
  276TIP3   OH225022   0.398   6.954  10.612 -0.2903  0.4710  0.1347
  276TIP3    H125023   0.345   6.941  10.691  0.9207 -0.1469  0.8732
  276TIP3    H225024   0.424   7.046  10.616 -0.7487  0.6026  0.1241
  277TIP3   OH225025   5.318   5.415  10.284  0.2751 -0.2948 -0.0989
  277TIP3    H125026   5.345   5.507  10.283  1.1621 -0.5551 -1.0305
  277TIP3    H225027   5.238   5.413  10.230  0.8813 -0.2435 -1.0190
  278TIP3   OH225028   2.914   0.896  10.525  0.1640 -0.3210 -0.9422
  278TIP3    H125029   2.960   0.959  10.470  1.3226  0.6093  0.9979
  278TIP3    H225030   2.931   0.925  10.615 -1.3874 -1.9509 -0.0555
  279TIP3   OH225031   3.140   0.133  10.578  0.1757 -0.5270  0.2387
  279TIP3    H125032   3.162   0.069  10.510 -0.7680 -1.2273  0.5744
  279TIP3    H225033   3.175   0.216  10.545 -1.7303 -0.5030 -1.9328
  280TIP3   OH225034   1.198   1.345   9.125 -0.3676  0.1548  0.1298
  280TIP3    H125035   1.239   1.430   9.112  0.4233 -0.2772 -0.3013
  280TIP3    H225036   1.265   1.282   9.099 -1.3341 -0.5796 -0.6526
  281TIP3   OH225037   2.274   4.180  10.677  0.3967 -0.4068 -0.6979
  281TIP3    H125038   2.268   4.230  10.758 -2.6314 -0.0705 -1.0222
  281TIP3    H225039   2.189   4.193  10.634  1.5863 -1.2330 -3.5500
  282TIP3   OH225040   4.739   3.078  10.325  0.3819 -0.4941 -0.2085
  282TIP3    H125041   4.688   3.102  10.402  0.6756 -1.1545  0.2096
  282TIP3    H225042   4.696   2.999  10.292  2.3470 -2.4359  1.4693
  283TIP3   OH225043   0.485   6.758  10.451  0.1369  0.5556 -0.2244
  283TIP3    H125044   0.492   6.803  10.367 -0.6420  0.0629 -0.5647
  283TIP3    H225045   0.465   6.827  10.514  2.6653  1.2453 -0.0587
  284TIP3   OH225046   1.853   6.000   4.445 -0.0501  0.3193  0.1413
  284TIP3    H125047   1.805   5.918   4.431 -2.9204  1.9537 -0.2834
  284TIP3    H225048   1.838   6.021   4.537  0.4283  0.5232  0.1764
  285TIP3   OH225049   7.084   7.117   4.541 -0.1511 -0.2830 -0.2834
  285TIP3    H125050   7.027   7.140   4.614  0.5718 -0.2957  0.3080
  285TIP3    H225051   7.150   7.186   4.540  0.2482 -0.6591 -0.4724
  286TIP3   OH225052   5.621   0.643   2.914  0.1720  0.0702 -0.1457
  286TIP3    H125053   5.668   0.724   2.933  2.7593 -0.9363 -1.7531
  286TIP3    H225054   5.631   0.590   2.992 -0.1421  0.6698  0.3105
  287TIP3   OH225055   0.015   0.342   2.741  0.2758 -0.0291 -0.5081
  287TIP3    H125056   0.014   0.259   2.692  0.8454 -0.6189  0.4527
  287TIP3    H225057   0.086   0.331   2.804 -0.4552  0.7185  0.4567
  288TIP3   OH225058   6.210   1.195   2.598  0.3857  0.2960  0.2402
  288TIP3    H125059   6.185   1.287   2.592  2.4338  0.8974  0.2581
  288TIP3    H225060   6.230   1.169   2.508  1.3126  0.3295  0.4319
  289TIP3   OH225061   5.391   2.534   3.379  0.1132 -0.6057 -0.5906
  289TIP3    H125062   5.403   2.491   3.464 -1.3776 -2.1553 -1.0970
  289TIP3    H225063   5.298   2.526   3.362  0.1852  0.8676 -1.7957
  290TIP3   OH225064   2.928   7.553   2.071  0.3125 -0.4496  0.2193
  290TIP3    H125065   2.919   7.517   2.159 -1.0861  0.3669  0.4364
  290TIP3    H225066   2.844   7.534   2.029  0.3625  0.5972 -0.3870
  291TIP3   OH225067   1.670   0.438   3.757  0.0601 -0.2580 -0.1999
  291TIP3    H125068   1.640   0.453   3.668  1.0005  1.3696 -0.2772
  291TIP3    H225069   1.749   0.491   3.766 -1.2684  1.5410  2.3195
  292TIP3   OH225070   6.586   3.240   4.060 -0.2659  0.1517  0.3542
  292TIP3    H125071   6.674   3.234   4.023  0.4055 -0.0381  1.8908
  292TIP3    H225072   6.585   3.324   4.105  0.5480 -1.4224  3.6217
  293TIP3   OH225073   5.092   3.597   3.190  0.1269 -0.2218  0.3647
  293TIP3    H125074   5.079   3.551   3.107  0.3220 -1.0565  0.7830
  293TIP3    H225075   5.185   3.618   3.191  0.8121 -2.8705  1.6580
  294TIP3   OH225076   2.100   6.076   4.336  0.2787 -0.2124  0.1774
  294TIP3    H125077   2.007   6.062   4.351  0.8377 -3.4031  1.4079
  294TIP3    H225078   2.110   6.071   4.241 -0.5011 -2.8632  0.1569
  295TIP3   OH225079   0.844   1.916   2.186 -0.6336  0.0434  0.0770
  295TIP3    H125080   0.804   1.942   2.269 -1.8358 -1.7614  0.1117
  295TIP3    H225081   0.780   1.941   2.120  0.6805  2.2585 -0.4740
  296TIP3   OH225082   0.837   4.417   2.767  0.5683  0.0817  0.0350
  296TIP3    H125083   0.830   4.322   2.775 -0.2712  0.0794 -0.5979
  296TIP3    H225084   0.752   4.450   2.797  1.0709  0.6848  0.8467
  297TIP3   OH225085   3.012   2.605   3.664  0.1824  0.6312  0.4150
  297TIP3    H125086   2.945   2.668   3.692 -1.0101 -0.4507  0.1030
  297TIP3    H225087   3.065   2.589   3.743 -0.5610  0.7394  0.9447
  298TIP3   OH225088   3.271   6.077   3.537  0.1543 -0.0682 -0.0106
  298TIP3    H125089   3.205   6.030   3.486 -0.5931 -0.4360  1.2547
  298TIP3    H225090   3.350   6.023   3.527  0.2026  0.1997 -1.2612
  299TIP3   OH225091   6.969   1.619   2.449 -0.1858  0.4554  0.4680
  299TIP3    H125092   7.024   1.576   2.515  0.8233  1.4510  0.2976
  299TIP3    H225093   6.953   1.706   2.483 -2.3894 -0.0613  0.8944
  300TIP3   OH225094   3.276   2.887   3.752 -0.5426  0.4706  0.0324
  300TIP3    H125095   3.199   2.857   3.704 -0.4075 -0.2440  0.2531
  300TIP3    H225096   3.254   2.976   3.779 -1.6951 -0.0762  0.9564
  301TIP3   OH225097   4.637   2.017   2.050 -0.3719 -0.0177  0.2008
  301TIP3    H125098   4.564   2.079   2.063  0.0875  0.3770  0.9718
  301TIP3    H225099   4.692   2.059   1.984 -0.7776 -0.2565 -0.2903
  302TIP3   OH225100   4.369   4.254   3.884 -0.3284 -0.1906 -0.2588
  302TIP3    H125101   4.379   4.304   3.803 -1.0835  0.9521  0.3306
  302TIP3    H225102   4.353   4.320   3.951  0.8489 -1.0675  0.9459
  303TIP3   OH225103   6.550   5.252   3.911 -0.8833  0.3100  0.1683
  303TIP3    H125104   6.566   5.341   3.942 -0.9078 -0.2715  1.9511
  303TIP3    H225105   6.483   5.217   3.970 -0.0078 -1.2851  0.2779
  304TIP3   OH225106   1.039   2.885   4.417 -0.4082  0.0226  0.8098
  304TIP3    H125107   1.029   2.847   4.505 -3.3280  1.7468  1.3785
  304TIP3    H225108   0.959   2.937   4.405 -0.1158 -0.1593 -2.9199
  305TIP3   OH225109   5.969   2.283   2.927  0.2347  0.4124  0.8143
  305TIP3    H125110   5.990   2.191   2.908  0.0317  0.7781 -1.4843
  305TIP3    H225111   6.006   2.298   3.014  0.6786 -1.7028  1.0674
  306TIP3   OH225112   6.241   2.605   4.133  0.4722 -0.0647  0.0176
  306TIP3    H125113   6.159   2.569   4.170  0.1480  0.2587 -0.3815
  306TIP3    H225114   6.230   2.700   4.139  1.2671 -0.0101  0.9337
  307TIP3   OH225115   3.845   1.209   3.972  0.1690 -0.4772 -0.0493
  307TIP3    H125116   3.853   1.137   3.910  0.0434 -1.1321  0.6829
  307TIP3    H225117   3.838   1.287   3.917  0.2326 -1.0234 -0.8511
  308TIP3   OH225118   7.331   5.456   2.471 -0.1865  0.5983  0.7834
  308TIP3    H125119   7.279   5.378   2.487 -2.6290  2.0932  0.5984
  308TIP3    H225120   7.270   5.529   2.483  1.8580  2.4720  0.4403
  309TIP3   OH225121   0.254   0.312   2.895  0.1178  0.3312  0.4300
  309TIP3    H125122   0.269   0.226   2.934 -2.3999 -0.7608 -0.8047
  309TIP3    H225123   0.342   0.343   2.871  1.0237 -2.2648  0.1457
  310TIP3   OH225124   6.785   6.384   3.076  0.1516  0.0021  0.3015
  310TIP3    H125125   6.848   6.335   3.128  0.0956 -0.7667 -0.3316
  310TIP3    H225126   6.726   6.317   3.041  0.6423  0.4012 -1.3726
  311TIP3   OH225127   2.678   5.358   3.949 -0.6673  0.1225 -0.7834
  311TIP3    H125128   2.632   5.368   4.033 -2.0340 -1.6066 -1.2704
  311TIP3    H225129   2.736   5.434   3.945 -0.4458  0.1853  1.7922
  312TIP3   OH225130   3.038   6.859   2.488  0.2696 -0.3218  0.7622
  312TIP3    H125131   3.077   6.879   2.403  0.9988 -0.7479  0.9828
  312TIP3    H225132   3.069   6.929   2.546 -0.0116 -0.1771  0.7407
  313TIP3   OH225133   0.371   0.030   2.783 -0.1012  0.1228 -0.3080
  313TIP3    H125134   0.368   0.060   2.692 -0.1502  0.6929 -0.1210
  313TIP3    H225135   0.442  -0.033   2.785 -0.7614 -0.6691 -0.9707
  314TIP3   OH225136   5.375   4.617   3.357  0.2670 -0.0445 -0.1097
  314TIP3    H125137   5.334   4.530   3.363 -2.4184  1.0524 -0.7685
  314TIP3    H225138   5.343   4.653   3.274  1.5886  1.4654 -0.0117
  315TIP3   OH225139   0.505   4.587   4.139 -0.6255 -0.4453 -0.9946
  315TIP3    H125140   0.468   4.655   4.082 -0.0607  1.5738  0.8825
  315TIP3    H225141   0.600   4.600   4.132 -0.5486  0.6250  1.1743
  316TIP3   OH225142   3.028   6.949   1.982 -0.5037 -0.5730  0.3187
  316TIP3    H125143   3.042   6.944   2.077  0.8940 -1.1776  0.0992
  316TIP3    H225144   3.068   6.870   1.947 -1.3069 -0.5291 -0.7632
  317TIP3   OH225145   7.049   5.005   5.098 -1.6304  1.1113 -1.1325
  317TIP3    H125146   6.992   4.937   5.134 -1.2645  1.6376  0.5360
  317TIP3    H225147   7.020   5.086   5.140 -1.0279  1.7364 -1.8836
  318TIP3   OH225148   4.867   2.315   2.980  0.2840 -0.0182  0.4428
  318TIP3    H125149   4.932   2.245   2.987  0.3397 -0.1853 -1.2920
  318TIP3    H225150   4.790   2.273   2.942 -0.0149  0.6531  0.2856
  319TIP3   OH225151   0.416   6.228   3.317 -0.6256 -0.2695 -0.4523
  319TIP3    H125152   0.501   6.243   3.359 -1.4162  1.4629  0.6368
  319TIP3    H225153   0.414   6.134   3.299  1.0789 -0.5227  0.4655
  320TIP3   OH225154   1.799   6.677   3.803 -0.4643 -0.0636 -0.5294
  320TIP3    H125155   1.708   6.671   3.830 -0.2142  0.0301  0.3747
  320TIP3    H225156   1.801   6.746   3.737 -0.9339  0.3985 -0.0577
  321TIP3   OH225157   3.771   7.560   4.118 -0.4743  0.2946 -0.1061
  321TIP3    H125158   3.719   7.490   4.157 -1.2673  0.2824 -1.1524
  321TIP3    H225159   3.711   7.605   4.059  0.5416  0.6380 -0.9203
  322TIP3   OH225160   7.262   4.152   2.260  0.4955  0.3233  0.0975
  322TIP3    H125161   7.217   4.111   2.333 -1.3086  0.1787 -1.0466
  322TIP3    H225162   7.274   4.082   2.196 -0.0099  0.9344 -0.6867
  323TIP3   OH225163   5.454   4.151   9.792 -0.3488 -0.4117 -0.2972
  323TIP3    H125164   5.418   4.240   9.798  0.1275 -0.3034  1.8187
  323TIP3    H225165   5.391   4.097   9.840  0.6310 -0.7485  0.6604
  324TIP3   OH225166   3.342   1.118   9.429 -0.7400  0.5677 -0.5691
  324TIP3    H125167   3.311   1.183   9.492  0.5028  0.6189  0.0131
  324TIP3    H225168   3.316   1.034   9.466 -0.0408  0.5999  0.0030
  325TIP3   OH225169   3.086   0.741  10.324 -0.2853  0.1854 -0.2388
  325TIP3    H125170   3.163   0.732  10.381 -0.3318 -1.4059 -0.3683
  325TIP3    H225171   3.059   0.832  10.334  1.6729  0.8242 -0.2637
  326TIP3   OH225172   4.463   6.004  10.583  0.2765 -0.0964  0.5674
  326TIP3    H125173   4.460   5.992  10.488  1.2286 -1.8864  0.7149
  326TIP3    H225174   4.475   6.098  10.594  0.7249  0.0881 -1.1132
  327TIP3   OH225175   0.400   7.565   9.235  0.0531  0.0796 -0.3589
  327TIP3    H125176   0.422   7.646   9.190 -1.4579  0.1865 -0.9604
  327TIP3    H225177   0.410   7.585   9.328  2.0766  0.1979 -0.5590
  328TIP3   OH225178   1.726   5.720   9.831  0.2825  0.1215 -0.2226
  328TIP3    H125179   1.693   5.760   9.751  0.7507 -1.7134 -1.3751
  328TIP3    H225180   1.819   5.742   9.832  0.3795 -0.2682 -0.4542
  329TIP3   OH225181   0.865   3.312  10.014 -0.3735  0.1128  0.6438
  329TIP3    H125182   0.832   3.297   9.925 -1.1464  2.6850  0.4146
  329TIP3    H225183   0.796   3.277  10.070  0.3071 -1.9137  0.2881
  330TIP3   OH225184   3.955   2.200  11.060  0.4056 -0.8136 -0.3379
  330TIP3    H125185   3.904   2.144  11.002  0.7173 -0.1465 -1.2798
  330TIP3    H225186   3.901   2.279  11.071  1.0168 -0.2952 -0.9744
  331TIP3   OH225187   1.584   6.773   8.856 -0.2072  0.3143 -0.3184
  331TIP3    H125188   1.679   6.767   8.866 -0.2095  0.0532 -0.4433
  331TIP3    H225189   1.558   6.686   8.825 -0.6194  0.0271  0.7807
  332TIP3   OH225190   4.930   2.645   9.008  0.1801 -0.3262 -0.5928
  332TIP3    H125191   4.891   2.584   8.946  1.4097 -1.8198  0.0316
  332TIP3    H225192   5.017   2.609   9.026  0.2151  0.5612  1.2938
  333TIP3   OH225193   1.812   4.622  10.635 -0.1798 -0.5646 -0.0703
  333TIP3    H125194   1.897   4.628  10.593  0.0882  0.5557  0.5840
  333TIP3    H225195   1.768   4.549  10.591 -0.0025  0.6601 -2.4434
  334TIP3   OH225196   2.452   1.273   9.030  0.6205 -0.3999 -0.3227
  334TIP3    H125197   2.430   1.185   8.996  1.3687 -0.4566 -0.6753
  334TIP3    H225198   2.542   1.265   9.059  0.9803  0.4909 -1.1680
  335TIP3   OH225199   5.114   6.495   9.290 -0.8641 -0.0740  0.1220
  335TIP3    H125200   5.127   6.410   9.248  0.3331 -0.3584  1.0303
  335TIP3    H225201   5.057   6.477   9.365  0.4222 -0.3275  1.0660
  336TIP3   OH225202   7.332   3.853   9.825 -0.2132  0.4931 -0.3679
  336TIP3    H125203   7.383   3.810   9.756 -0.9566  0.5678 -0.9797
  336TIP3    H225204   7.303   3.782   9.882  0.3747  0.4264 -0.1430
  337TIP3   OH225205   3.699   4.736   8.577  0.2933 -0.2290 -0.0768
  337TIP3    H125206   3.671   4.658   8.530  1.8645 -0.9824  0.1687
  337TIP3    H225207   3.666   4.723   8.666 -3.1361  1.4414 -0.9323
  338TIP3   OH225208   0.585   3.458  11.257  0.0117  0.4646  0.1453
  338TIP3    H125209   0.528   3.532  11.239  1.1386  1.1715 -0.6319
  338TIP3    H225210   0.667   3.497  11.286  0.6493 -0.4644 -0.3461
  339TIP3   OH225211   5.429   2.106  11.062  0.3891 -0.0387  0.0375
  339TIP3    H125212   5.334   2.104  11.074  0.2434 -0.0637 -1.0710
  339TIP3    H225213   5.459   2.171  11.126 -0.4788  0.6863 -0.2714
  340TIP3   OH225214   1.117   7.098   9.475 -0.2230  0.1457 -0.2017
  340TIP3    H125215   1.188   7.060   9.528 -0.3998  2.6577  2.0207
  340TIP3    H225216   1.158   7.117   9.391  1.2250 -0.2109  0.3865
  341TIP3   OH225217   5.551   0.797   9.200 -0.0655 -0.1572  0.1251
  341TIP3    H125218   5.588   0.726   9.147 -0.2044  0.8640 -1.4291
  341TIP3    H225219   5.615   0.868   9.192 -1.0895  0.7249 -0.4182
  342TIP3   OH225220   5.470   1.819   8.800  0.4034  0.9729 -0.4500
  342TIP3    H125221   5.466   1.907   8.837 -0.5010  0.9215 -0.3916
  342TIP3    H225222   5.534   1.825   8.730  0.4351  1.6521 -0.3689
  343TIP3   OH225223   1.029   2.277   9.102 -0.5711 -0.1336  0.4337
  343TIP3    H125224   1.099   2.330   9.063 -0.8406  0.5324  0.8547
  343TIP3    H225225   1.025   2.306   9.193 -0.4189 -1.1963  0.7900
  344TIP3   OH225226   5.784   2.996  10.582 -0.2228 -0.1462 -0.0197
  344TIP3    H125227   5.799   2.988  10.676  0.1912  0.9796  0.0308
  344TIP3    H225228   5.791   2.907  10.549  0.4063 -0.4583  0.9049
  345TIP3   OH225229   7.473   1.770   9.581  0.2399  0.2099 -0.2952
  345TIP3    H125230   7.551   1.721   9.606 -0.0209  0.2608  0.6601
  345TIP3    H225231   7.403   1.733   9.635 -0.1396  1.0255 -0.2068
  346TIP3   OH225232   1.994   1.329   9.774  0.2322  0.6427 -0.0960
  346TIP3    H125233   2.082   1.360   9.753 -0.4012  2.7062  0.0216
  346TIP3    H225234   1.949   1.407   9.806 -1.8415 -0.2042 -0.8120
  347TIP3   OH225235   2.712   0.797   8.723  0.2002  0.1595 -0.0588
  347TIP3    H125236   2.635   0.794   8.666  1.2876 -1.7772 -1.5528
  347TIP3    H225237   2.702   0.723   8.782 -0.1296  1.2354  1.3082
  348TIP3   OH225238   4.384   5.111   9.333  0.3948 -0.0259 -0.1488
  348TIP3    H125239   4.311   5.092   9.274  0.4037  0.2973 -0.2661
  348TIP3    H225240   4.342   5.148   9.411  0.1890 -2.2911  0.9138
  349TIP3   OH225241   3.171   4.169  11.135  0.0048  0.7730 -0.2980
  349TIP3    H125242   3.120   4.141  11.211  0.9403  0.8697  0.3943
  349TIP3    H225243   3.157   4.264  11.131  0.7660  0.9266  0.3993
  350TIP3   OH225244   5.737   2.408  11.301  0.3852  0.4656  0.4408
  350TIP3    H125245   5.752   2.464  11.377 -0.6107  0.8950  0.3356
  350TIP3    H225246   5.770   2.458  11.227  2.6858 -0.5457  0.7186
  351TIP3   OH225247   5.677   4.588   9.628  0.4831 -0.0409 -0.0703
  351TIP3    H125248   5.734   4.611   9.555  0.9072 -0.6443  0.0653
  351TIP3    H225249   5.588   4.603   9.595  0.6534 -0.7223 -0.8489
  352TIP3   OH225250   1.542   0.350  10.902 -0.7545  0.6080 -0.0861
  352TIP3    H125251   1.486   0.273  10.892 -1.1682  0.7427  1.0060
  352TIP3    H225252   1.626   0.324  10.866 -1.3354  0.1925 -1.1908
  353TIP3   OH225253   3.805   0.677  10.402 -0.3027 -0.4571  0.2956
  353TIP3    H125254   3.858   0.625  10.462 -0.7829 -1.8688 -0.4527
  353TIP3    H225255   3.857   0.755  10.385  0.8355 -1.0843  0.7990
  354TIP3   OH225256   2.141   1.098   8.866  0.0631  0.2725  0.1599
  354TIP3    H125257   2.123   1.118   8.774 -0.5289 -0.3825  0.1321
  354TIP3    H225258   2.218   1.041   8.864 -0.1361  0.0075  0.0512
  355TIP3   OH225259   0.010   0.773   8.710 -0.0902  0.2565  0.4864
  355TIP3    H125260   0.083   0.825   8.677 -0.2027  0.4073  0.4730
  355TIP3    H225261  -0.053   0.770   8.638 -0.2319  0.3862  0.6047
  356TIP3   OH225262   7.256   1.708   9.757 -0.2224 -0.2432 -0.3001
  356TIP3    H125263   7.273   1.614   9.757 -1.6920 -0.5684  1.6568
  356TIP3    H225264   7.164   1.716   9.729 -0.9071  0.3528  1.9398
  357TIP3   OH225265   0.227   6.219   9.376  0.0526 -0.8154  0.4519
  357TIP3    H125266   0.140   6.254   9.356  0.7463  0.3028 -0.7687
  357TIP3    H225267   0.210   6.140   9.428 -1.7089 -0.9677 -0.2835
  358TIP3   OH225268   5.870   4.178  10.143  0.3832  0.5430 -0.5171
  358TIP3    H125269   5.912   4.136  10.067  0.7263  1.5631 -0.9144
  358TIP3    H225270   5.913   4.263  10.149  0.2067  0.5563  0.7074
  359TIP3   OH225271   2.855   5.749   8.670  0.2911  0.1281 -0.0527
  359TIP3    H125272   2.943   5.712   8.675  0.3420  0.2726  0.1430
  359TIP3    H225273   2.833   5.747   8.577  1.8763  3.2681 -0.6319
  360TIP3   OH225274   3.009   4.163   9.927 -0.4189 -0.7321 -0.7294
  360TIP3    H125275   2.919   4.148   9.956  0.0543 -2.2968  0.0351
  360TIP3    H225276   3.059   4.173  10.008  0.2160 -0.6104 -1.1286
  361TIP3   OH225277   0.650   7.478   9.222 -0.2014 -0.1103 -0.2896
  361TIP3    H125278   0.670   7.414   9.153  0.4544  1.0861 -1.2395
  361TIP3    H225279   0.557   7.497   9.211  0.0278  0.5038 -1.2264
  362TIP3   OH225280   6.296   1.346   9.134 -0.0689 -0.0173  0.0115
  362TIP3    H125281   6.330   1.270   9.087  1.2474  0.2554  0.4702
  362TIP3    H225282   6.316   1.328   9.226  0.3671  0.9131  0.1127
  363TIP3   OH225283   6.930   6.113  10.636  0.0039  0.2723 -0.1354
  363TIP3    H125284   6.981   6.136  10.714 -0.6672  1.1583  0.0561
  363TIP3    H225285   6.908   6.021  10.649  0.6543  0.1666  0.2855
  364TIP3   OH225286   7.120   4.579  10.165 -0.0695  0.3389  0.4384
  364TIP3    H125287   7.191   4.542  10.111 -1.8359  0.2119 -1.9535
  364TIP3    H225288   7.162   4.651  10.213  1.9145 -0.4386 -0.0264
  365TIP3   OH225289   3.098   6.081   8.742 -0.5136  0.0383  0.4260
  365TIP3    H125290   3.141   6.068   8.658 -0.1370  0.7242  0.4984
  365TIP3    H225291   3.120   6.003   8.793 -0.8496 -0.4374 -0.1494
  366TIP3   OH225292   2.087   0.699   8.196  0.0688  0.1937 -0.0445
  366TIP3    H125293   2.078   0.785   8.155  0.6701  0.6573  0.7628
  366TIP3    H225294   2.091   0.718   8.290  2.6826 -0.4789  0.0347
  367TIP3   OH225295   2.981   1.052   9.127 -0.3718  0.4835  0.3359
  367TIP3    H125296   2.948   1.109   9.196  0.0276  1.5670 -0.3392
  367TIP3    H225297   3.035   1.109   9.072  0.3617 -0.6312 -0.1514
  368TIP3   OH225298   1.971   0.821  10.597 -0.0768  0.2709  1.1014
  368TIP3    H125299   2.059   0.784  10.604 -0.0432  0.1517  0.1657
  368TIP3    H225300   1.984   0.906  10.554 -0.4959 -0.0940  0.2331
  369TIP3   OH225301   7.526   3.784   9.573 -0.0071 -0.0119  0.0437
  369TIP3    H125302   7.590   3.761   9.640 -2.4672 -1.1247  2.2020
  369TIP3    H225303   7.482   3.701   9.553 -3.0963  1.1734  1.3523
  370TIP3   OH225304   3.387   6.276  11.243  0.2602  0.2457  0.0252
  370TIP3    H125305   3.312   6.217  11.235 -0.6510  1.1607  1.4115
  370TIP3    H225306   3.362   6.353  11.192 -0.6605  1.3679  2.0351
  371TIP3   OH225307   4.608   1.312   9.745 -0.2218  0.3146  0.4652
  371TIP3    H125308   4.618   1.402   9.714 -0.0588  0.4851  1.0061
  371TIP3    H225309   4.550   1.319   9.821 -0.9343 -0.1459 -0.0208
  372TIP3   OH225310   1.780   4.176  10.693  0.0138  0.5267  0.0612
  372TIP3    H125311   1.706   4.224  10.730 -0.5962 -1.4834  1.6112
  372TIP3    H225312   1.812   4.122  10.765  2.2288  0.4134 -0.9310
  373TIP3   OH225313   2.082   0.945  10.043 -0.6399  0.2494 -0.2416
  373TIP3    H125314   2.014   0.980   9.985 -0.6456  0.5608 -0.0525
  373TIP3    H225315   2.039   0.936  10.128 -0.4408  0.4612 -0.1183
  374TIP3   OH225316   3.513   1.102   9.698  0.1035  0.2264 -0.2486
  374TIP3    H125317   3.489   1.010   9.710  1.0997  0.0573  0.5463
  374TIP3    H225318   3.455   1.150   9.757 -0.4076  0.1222 -0.6529
  375TIP3   OH225319   5.888   0.414   9.639  0.1830 -0.1632 -0.2773
  375TIP3    H125320   5.942   0.413   9.718 -1.2401 -2.2764  0.7590
  375TIP3    H225321   5.939   0.364   9.575  0.0077 -1.1174  0.3090
  376TIP3   OH225322   4.923   3.887   8.907  0.3460 -0.3671  0.1333
  376TIP3    H125323   4.977   3.854   8.834  0.8600  0.8089 -0.0340
  376TIP3    H225324   4.833   3.873   8.878  0.5090 -2.2584  0.3681
  377TIP3   OH225325   0.260   3.007   8.304 -0.2912  0.0450 -0.2888
  377TIP3    H125326   0.193   2.996   8.371  1.3243 -0.7688  1.2802
  377TIP3    H225327   0.306   2.923   8.301 -0.0616  0.1769 -2.1697
  378TIP3   OH225328   0.440   3.526   9.341  0.5332  0.0342  0.3901
  378TIP3    H125329   0.387   3.469   9.396  2.4462 -0.1173  2.1865
  378TIP3    H225330   0.496   3.466   9.292  0.3492  0.2728 -0.1244
  379TIP3   OH225331   6.040   4.212   9.884  0.0486  0.0359 -0.2377
  379TIP3    H125332   6.103   4.278   9.854 -1.3941  1.6033 -0.0036
  379TIP3    H225333   6.007   4.171   9.805  0.8446 -0.3072 -0.3970
  380TIP3   OH225334   2.830   0.008  10.911  0.2332  0.7737  0.9987
  380TIP3    H125335   2.880   0.054  10.978 -0.3306  1.2801  1.0772
  380TIP3    H225336   2.834   0.064  10.834 -0.5806  1.0389  1.1389
  381TIP3   OH225337   7.279   2.060  10.915  0.3346 -0.5896 -0.0232
  381TIP3    H125338   7.314   1.981  10.955 -0.7145 -1.2855 -0.4251
  381TIP3    H225339   7.239   2.030  10.833  1.4629  0.6334 -1.0719
  382TIP3   OH225340   5.283   3.259   9.717 -0.2469  0.1070  0.7755
  382TIP3    H125341   5.261   3.293   9.631  0.0668 -2.2014 -0.3123
  382TIP3    H225342   5.204   3.269   9.769 -0.1041  2.5373  0.6149
  383TIP3   OH225343   1.895   2.534   8.999  0.4897 -0.4079 -0.0451
  383TIP3    H125344   1.882   2.484   8.918  3.1250  0.1853 -0.9170
  383TIP3    H225345   1.947   2.609   8.973  0.1855  0.5883  1.9948
  384TIP3   OH225346   0.224   1.184   8.890 -0.2980  0.0773  0.3359
  384TIP3    H125347   0.266   1.166   8.806 -1.1633  2.4452 -0.6975
  384TIP3    H225348   0.285   1.149   8.955  1.6536  0.4592 -1.1864
  385TIP3   OH225349   2.642   6.986   8.778 -0.1621 -0.7205  0.4646
  385TIP3    H125350   2.645   6.916   8.713 -2.3645 -1.0256  0.6326
  385TIP3    H225351   2.664   6.943   8.861  0.6184 -0.7385  0.2614
  386TIP3   OH225352   5.422   2.956  10.123  0.1750 -0.2124  0.0501
  386TIP3    H125353   5.383   3.024  10.179 -0.2618 -0.2945 -0.1467
  386TIP3    H225354   5.421   2.994  10.035  0.6219 -0.1834  0.0596
  387TIP3   OH225355   3.945   4.515  10.587 -0.0715 -1.0825 -0.0158
  387TIP3    H125356   4.038   4.532  10.599 -0.5040  0.9564  0.9343
  387TIP3    H225357   3.924   4.448  10.651  0.2919  0.2646  1.5890
  388TIP3   OH225358   1.520   6.377   9.571  0.5791 -0.2984 -0.2532
  388TIP3    H125359   1.525   6.473   9.575  0.0167 -0.2730 -0.0906
  388TIP3    H225360   1.441   6.359   9.520  1.2273 -0.6783 -1.1566
  389TIP3   OH225361   5.585   5.043  10.031 -0.2365 -1.0774  0.2267
  389TIP3    H125362   5.663   5.050   9.975 -1.0758 -0.8572 -0.9621
  389TIP3    H225363   5.619   5.034  10.120  1.1277 -0.2510 -0.1961
  390TIP3   OH225364   7.296   4.955  10.598  0.1054 -0.2699 -0.1673
  390TIP3    H125365   7.266   4.994  10.680  1.9763  1.9151 -0.4104
  390TIP3    H225366   7.385   4.927  10.616 -0.3585 -2.2834 -0.7559
  391TIP3   OH225367   1.690   1.049  10.170  0.4756 -0.0216 -0.6276
  391TIP3    H125368   1.702   1.138  10.203  1.1002 -0.3909  0.1742
  391TIP3    H225369   1.596   1.035  10.173  0.5154 -0.0840  1.1513
  392TIP3   OH225370   5.959   4.047   9.650  0.1145  0.2973 -0.4692
  392TIP3    H125371   5.947   4.108   9.577  1.0767  1.1471  0.0656
  392TIP3    H225372   5.872   4.039   9.688  0.2429  2.7669  0.5426
  393TIP3   OH225373   4.241   1.287   9.573  0.4143  1.1335  0.2684
  393TIP3    H125374   4.209   1.260   9.659  1.6931  1.9080  1.0161
  393TIP3    H225375   4.175   1.347   9.540 -0.5597  0.0946  0.2576
  394TIP3   OH225376   5.537   3.286   8.752  0.0244 -0.7895  0.0803
  394TIP3    H125377   5.457   3.256   8.708  0.3774  2.0105 -2.7930
  394TIP3    H225378   5.595   3.210   8.750 -0.8802 -1.5018 -2.2185
  395TIP3   OH225379   6.194   6.506   8.897 -0.6026 -0.0037 -0.3158
  395TIP3    H125380   6.168   6.520   8.806 -0.7234  0.6929 -0.1789
  395TIP3    H225381   6.230   6.418   8.898 -1.6627 -0.4622 -0.8073
  396TIP3   OH225382   0.404   5.849  10.556 -0.1428 -0.4765  0.1917
  396TIP3    H125383   0.420   5.835  10.650 -0.1333  3.5311  0.9776
  396TIP3    H225384   0.309   5.855  10.549 -0.3672 -3.3488 -0.6735
  397TIP3   OH225385   3.629   1.910  10.667  0.7571 -0.8233  0.4400
  397TIP3    H125386   3.620   1.846  10.597 -3.0172 -0.4897  0.4270
  397TIP3    H225387   3.599   1.992  10.628  1.8826  0.1303  1.5202
  398TIP3   OH225388   1.245   3.372   8.431 -0.2297 -0.2114  0.1245
  398TIP3    H125389   1.168   3.429   8.432 -0.8379 -1.0066 -0.0999
  398TIP3    H225390   1.218   3.296   8.380  0.2191 -1.1516  1.2323
  399TIP3   OH225391   5.072   3.305   8.942 -0.1597 -0.7875  0.0807
  399TIP3    H125392   5.008   3.295   9.012  0.1872  1.4065  0.7653
  399TIP3    H225393   5.154   3.275   8.980 -0.6169 -3.2998 -0.6987
  400TIP3   OH225394   6.123   6.360  10.858  0.3221  0.3891 -0.0978
  400TIP3    H125395   6.038   6.322  10.882  0.5715  0.2830  0.6214
  400TIP3    H225396   6.143   6.421  10.929  0.0508  1.7006 -1.0988
  401TIP3   OH225397   7.206   0.841  10.867  0.2945 -0.1929 -0.2630
  401TIP3    H125398   7.128   0.870  10.820 -0.7803 -0.9809  0.9671
  401TIP3    H225399   7.266   0.915  10.863  0.0234 -0.0505 -2.3718
  402TIP3   OH225400   5.155   5.984  10.386  0.1335 -0.1462  0.3102
  402TIP3    H125401   5.180   6.077  10.382  1.3637 -0.4611  0.3619
  402TIP3    H225402   5.223   5.939  10.336 -0.2856 -1.0629  0.5476
  403TIP3   OH225403   4.015   6.903  10.881 -1.0448 -0.0712 -0.0989
  403TIP3    H125404   4.003   6.991  10.915 -1.9564 -0.9021  1.9102
  403TIP3    H225405   3.992   6.909  10.788 -2.7416  1.4757  0.3704
  404TIP3   OH225406   7.206   3.897   9.532 -0.4265 -0.0890 -0.1029
  404TIP3    H125407   7.285   3.949   9.518 -0.0101 -0.7992 -0.4995
  404TIP3    H225408   7.220   3.818   9.480 -1.4746 -0.1609 -0.3085
  405TIP3   OH225409   2.878   0.492  11.018 -0.0948 -0.6228  0.5167
  405TIP3    H125410   2.973   0.481  11.020  0.3592  2.0831 -1.0791
  405TIP3    H225411   2.852   0.457  10.933 -0.8472 -2.9841  1.6647
  406TIP3   OH225412   2.441   3.355  10.555  0.3246  0.9162  0.3666
  406TIP3    H125413   2.518   3.305  10.581 -1.0066 -0.9745  0.8605
  406TIP3    H225414   2.454   3.441  10.595  2.4037  0.8317 -0.0272
  407TIP3   OH225415   7.114   3.500  10.244  0.2291  0.1244 -0.0498
  407TIP3    H125416   7.163   3.419  10.255 -0.1279 -0.2189 -0.9271
  407TIP3    H225417   7.037   3.489  10.299  0.2185 -0.0981 -0.1087
  408TIP3   OH225418   6.161   6.103  10.770  0.0086 -0.4351 -0.6788
  408TIP3    H125419   6.248   6.076  10.743  0.7337  0.3054  0.8028
  408TIP3    H225420   6.173   6.190  10.809 -0.9866 -1.2309  1.5772
  409TIP3   OH225421   6.330   7.164   8.782  0.0764 -0.2217  1.1306
  409TIP3    H125422   6.305   7.254   8.760  0.2899 -0.0404  1.6262
  409TIP3    H225423   6.294   7.112   8.710 -2.0811 -0.0327  2.0103
  410TIP3   OH225424   4.953   1.587  11.190  0.4102 -0.6086 -0.3903
  410TIP3    H125425   5.022   1.525  11.169  3.4869  2.4102 -0.0466
  410TIP3    H225426   4.944   1.640  11.110  0.5596  0.7715  0.4712
  411TIP3   OH225427   6.481   4.526  10.067 -0.2785  0.6179  0.6322
  411TIP3    H125428   6.505   4.495   9.980 -1.3143 -1.3385  0.9859
  411TIP3    H225429   6.438   4.610  10.052  0.9179  1.0460 -0.5674
  412TIP3   OH225430   0.981   6.184  10.172  0.1763 -0.0662  0.4703
  412TIP3    H125431   1.039   6.137  10.112  0.7121  1.0287  0.1197
  412TIP3    H225432   1.039   6.245  10.219 -0.5567  0.4579  0.7071
  413TIP3   OH225433   6.021   5.448  10.260 -0.3779  0.3401  0.1230
  413TIP3    H125434   6.063   5.363  10.262 -1.6421 -0.3436 -0.5138
  413TIP3    H225435   6.085   5.506  10.220  0.1445 -0.5523 -0.3700
  414TIP3   OH225436   0.064   5.523   9.958 -0.0686  0.1591 -0.4108
  414TIP3    H125437  -0.012   5.571   9.990 -0.4054  0.3484 -1.4917
  414TIP3    H225438   0.136   5.555  10.012 -0.3822  1.4860 -0.7489
  415TIP3   OH225439   2.094   1.510   9.488  0.3798  0.4626  0.3786
  415TIP3    H125440   2.186   1.537   9.478  0.4383 -0.0753 -0.6865
  415TIP3    H225441   2.079   1.512   9.582  1.3504  1.0019  0.5443
  416TIP3   OH225442   2.742   5.417   8.955  0.6681 -0.0166  0.2835
  416TIP3    H125443   2.734   5.513   8.958  0.3541  0.0613 -1.5700
  416TIP3    H225444   2.653   5.385   8.960  0.7410 -0.1990  0.4192
  417TIP3   OH225445   6.241   3.311   9.539 -0.4058  0.0775 -0.5312
  417TIP3    H125446   6.221   3.310   9.632  0.3991 -0.3499 -0.3650
  417TIP3    H225447   6.248   3.219   9.514  1.3257  0.1980 -0.5868
  418TIP3   OH225448   4.306   3.540   9.462 -0.2388  0.2387 -0.6638
  418TIP3    H125449   4.304   3.461   9.409 -4.2889  0.3647 -0.9613
  418TIP3    H225450   4.283   3.611   9.402 -2.5984  0.7144  0.6673
  419TIP3   OH225451   2.423   1.016   8.924  0.5324  0.5472  0.3969
  419TIP3    H125452   2.494   1.004   8.987 -0.8474 -0.0827  1.9101
  419TIP3    H225453   2.384   0.929   8.914 -0.3794  0.9795  0.0267
  420TIP3   OH225454   7.665   3.920  10.156 -0.1935  0.3825  0.4745
  420TIP3    H125455   7.629   3.895  10.242  1.0426 -0.8882  0.6653
  420TIP3    H225456   7.754   3.948  10.175 -0.1317  0.7348 -0.3235
  421TIP3   OH225457   5.455   0.204  10.578 -0.0371  0.5787 -0.1570
  421TIP3    H125458   5.372   0.161  10.599 -0.0453  0.3210 -0.7156
  421TIP3    H225459   5.521   0.137  10.597 -0.1339 -0.2313 -2.4367
  422TIP3   OH225460   3.715   6.350  10.215 -0.0157 -0.2251 -0.5774
  422TIP3    H125461   3.625   6.377  10.233 -0.5778 -2.6315  0.6589
  422TIP3    H225462   3.715   6.324  10.124 -1.0666 -1.8276 -0.1511
  423TIP3   OH225463   4.521   2.153  10.565 -0.5225  0.0779  0.0488
  423TIP3    H125464   4.427   2.140  10.573 -1.0489  2.9706 -0.3757
  423TIP3    H225465   4.540   2.138  10.472 -0.3099 -1.6116  0.3351
  424TIP3   OH225466   2.844   6.265  10.016 -0.0151  0.5366  0.0684
  424TIP3    H125467   2.843   6.178   9.975  1.0800  0.0936  0.9169
  424TIP3    H225468   2.781   6.259  10.087  0.4884  0.2288  0.4981
  425TIP3   OH225469   3.405   4.280   8.629 -0.7940 -0.3358 -0.1709
  425TIP3    H125470   3.322   4.234   8.619 -1.7171  0.4118  2.8856
  425TIP3    H225471   3.459   4.221   8.682 -1.0514  0.8868  1.5678
  426TIP3   OH225472   7.185   1.791  10.467  0.1460  0.2301  0.5703
  426TIP3    H125473   7.208   1.731  10.395 -2.8889  0.0756 -0.4095
  426TIP3    H225474   7.179   1.735  10.544  1.3131  0.0297  0.5392
  427TIP3   OH225475   3.575   4.077   9.481 -0.1884  0.1627 -0.8386
  427TIP3    H125476   3.538   4.164   9.490 -1.2091 -0.1487 -1.7440
  427TIP3    H225477   3.646   4.088   9.418  0.4426  0.5356 -0.0736
  428TIP3   OH225478   3.310   1.825   9.977  0.5405 -0.7104  0.0358
  428TIP3    H125479   3.321   1.823  10.072  1.3523  3.4364  0.2185
  428TIP3    H225480   3.374   1.889   9.947 -0.7399 -0.7368 -3.1484
  429TIP3   OH225481   7.589   0.415   9.279 -0.0119  0.0858  0.4551
  429TIP3    H125482   7.578   0.493   9.225  3.1039  0.0592 -0.3967
  429TIP3    H225483   7.609   0.345   9.216 -0.9207 -1.0098  1.3393
  430TIP3   OH225484   0.257   3.580   8.919  0.5642 -0.2153 -0.1044
  430TIP3    H125485   0.351   3.592   8.913  0.3598  1.3753 -0.6550
  430TIP3    H225486   0.244   3.523   8.995  1.8753  1.1311  1.1842
  431TIP3   OH225487   0.392   7.201  10.586 -0.2990 -0.3946  0.2733
  431TIP3    H125488   0.336   7.272  10.617  1.0263  0.3517  1.1066
  431TIP3    H225489   0.448   7.242  10.520 -0.2602 -0.9344 -0.0343
  432TIP3   OH225490   5.743   1.708   9.937 -0.1697  0.0865 -0.4147
  432TIP3    H125491   5.673   1.774   9.941  0.0118  0.2297  0.8776
  432TIP3    H225492   5.709   1.640   9.879 -0.3561  1.3092 -1.7935
  433TIP3   OH225493   4.219   3.893  10.683 -0.2526  0.4242 -0.8662
  433TIP3    H125494   4.258   3.858  10.603  0.3974  0.5031 -0.5863
  433TIP3    H225495   4.229   3.988  10.676 -0.7153  0.4721 -0.9522
  434TIP3   OH225496   1.587   5.169   8.653  0.1988  0.0573 -0.1225
  434TIP3    H125497   1.649   5.205   8.717  0.3503  0.2427 -0.3699
  434TIP3    H225498   1.503   5.208   8.677  0.2446  0.0840 -0.0027
  435TIP3   OH225499   6.365   7.438   9.414 -0.3452 -0.3941  0.0515
  435TIP3    H125500   6.381   7.522   9.458  1.0448 -0.9999  0.7650
  435TIP3    H225501   6.452   7.404   9.396 -0.8996 -1.4954 -0.6280
  436TIP3   OH225502   0.895   2.161   8.823 -0.2744 -0.4479 -0.2515
  436TIP3    H125503   0.983   2.183   8.790  0.0282 -0.0034  0.8358
  436TIP3    H225504   0.907   2.076   8.866  0.0501  0.4569  1.5192
  437TIP3   OH225505   4.329   4.213   9.394 -0.0217 -0.1117 -0.0321
  437TIP3    H125506   4.246   4.199   9.347  0.9440 -2.4142 -1.1757
  437TIP3    H225507   4.391   4.238   9.326  0.5856  0.1508  0.6033
  438TIP3   OH225508   2.988   3.699  10.836  0.7267 -0.0897 -0.1447
  438TIP3    H125509   2.910   3.679  10.889 -0.0399  0.5547 -1.0116
  438TIP3    H225510   3.061   3.676  10.893 -0.0872 -0.1143  0.9320
  439TIP3   OH225511   1.627   3.640  10.641 -0.4034 -0.1817 -0.1026
  439TIP3    H125512   1.581   3.702  10.584  1.4332  1.6009  0.2327
  439TIP3    H225513   1.594   3.657  10.728  0.1266  0.3790 -0.0055
  440TIP3   OH225514   5.457   6.196   8.851 -0.4614  0.6717  0.3463
  440TIP3    H125515   5.415   6.282   8.854 -0.4852  0.7250 -0.9715
  440TIP3    H225516   5.467   6.177   8.758  0.9697 -0.0718  0.6182
  441TIP3   OH225517   6.404   7.595  10.622  0.2930  0.3936  0.3070
  441TIP3    H125518   6.330   7.592  10.681 -0.5340 -0.4515 -0.7364
  441TIP3    H225519   6.403   7.511  10.577  1.1988  0.8105 -0.5419
  442TIP3   OH225520   0.012   6.172   8.666  0.0726  0.0459 -0.6571
  442TIP3    H125521  -0.051   6.237   8.633 -1.0348 -1.4647 -1.6691
  442TIP3    H225522  -0.029   6.088   8.647  2.3806 -1.0226 -1.2546
  443TIP3   OH225523   5.148   6.555   9.975  0.2984 -0.2940 -0.2362
  443TIP3    H125524   5.190   6.571  10.060  0.0894 -0.3227 -0.1277
  443TIP3    H225525   5.055   6.566   9.992 -0.1115 -3.5449  0.3413
  444TIP3   OH225526   0.011   0.983   9.721  0.2567  0.4221 -0.4096
  444TIP3    H125527   0.041   0.924   9.652 -1.5869 -0.7540 -0.2788
  444TIP3    H225528  -0.003   0.926   9.797  0.4523  1.3983  0.3940
  445TIP3   OH225529   6.366   2.470   9.995  0.2911 -0.1557  0.3034
  445TIP3    H125530   6.329   2.497  10.080 -1.2242 -0.5495 -0.1864
  445TIP3    H225531   6.373   2.375  10.001 -2.4637 -0.5525 -0.9004
  446TIP3   OH225532   6.422   6.900   9.503 -0.5472  0.2261 -0.0059
  446TIP3    H125533   6.326   6.899   9.513 -0.7076  0.1001 -1.3743
  446TIP3    H225534   6.439   6.976   9.447  0.3747  1.5629  1.9698
  447TIP3   OH225535   1.708   2.237  10.042  0.5664 -0.4113 -0.0917
  447TIP3    H125536   1.718   2.281   9.957 -3.9913  1.1315 -0.0938
  447TIP3    H225537   1.665   2.155  10.021 -2.1187  0.6915  0.6507
  448TIP3   OH225538   7.282   2.598   8.488  0.0303  0.0876 -0.3583
  448TIP3    H125539   7.192   2.585   8.517 -0.7207  0.1639 -2.5071
  448TIP3    H225540   7.316   2.510   8.475 -0.4469  0.0688 -1.5558
  449TIP3   OH225541   2.291   0.799   8.655 -0.0070 -0.1427 -0.5603
  449TIP3    H125542   2.375   0.783   8.612  0.3714 -0.8844  0.4091
  449TIP3    H225543   2.313   0.807   8.748 -0.7507  1.8008 -0.5054
  450TIP3   OH225544   6.999   0.325   9.507  0.0901  0.0373 -0.0959
  450TIP3    H125545   6.937   0.356   9.573  0.4528  0.5066  0.0345
  450TIP3    H225546   6.990   0.230   9.507 -2.5548  0.1671 -1.9532
  451TIP3   OH225547   5.207   7.023  10.786 -0.4995 -0.3790  0.3942
  451TIP3    H125548   5.288   7.009  10.834 -0.6846  0.4281  0.9619
  451TIP3    H225549   5.228   7.092  10.722 -0.2234 -1.5195 -0.7827
  452TIP3   OH225550   0.533   6.041   9.345  0.4088 -0.6948  0.2603
  452TIP3    H125551   0.536   6.028   9.440  1.9137  2.9126  0.8510
  452TIP3    H225552   0.625   6.033   9.317  0.4113  1.1522 -0.3621
  453TIP3   OH225553   0.673   6.365   9.117 -0.5731  0.5438  0.1932
  453TIP3    H125554   0.675   6.270   9.121  0.9919  0.5775  1.0800
  453TIP3    H225555   0.727   6.387   9.041 -3.4686  0.7170 -1.9801
  454TIP3   OH225556   2.124   1.743   9.030 -0.6105  0.1435 -0.0685
  454TIP3    H125557   2.045   1.690   9.041 -1.1729  0.3171 -2.6211
  454TIP3    H225558   2.192   1.679   9.006 -1.1063  0.3788 -2.3605
  455TIP3   OH225559   1.308   3.236   9.549 -0.3689 -0.0383  0.0298
  455TIP3    H125560   1.224   3.209   9.585 -0.6977  0.4082 -0.4044
  455TIP3    H225561   1.343   3.157   9.508  0.1017 -0.6101  1.4786
  456TIP3   OH225562   0.861   3.011   9.846  0.2317 -0.5027  0.4727
  456TIP3    H125563   0.815   2.928   9.858 -0.6935 -0.5462 -2.5910
  456TIP3    H225564   0.790   3.076   9.838  0.8425  0.1189 -0.0122
  457TIP3   OH225565   5.273   2.776  11.190  0.1357  0.0142 -0.1234
  457TIP3    H125566   5.226   2.760  11.108 -1.1154  0.3870  0.4967
  457TIP3    H225567   5.350   2.827  11.164 -0.1732  0.0102 -1.0777
  458TIP3   OH225568   2.133   6.951   9.456 -0.3577 -0.0931  0.5789
  458TIP3    H125569   2.094   6.864   9.472 -1.1781 -0.0832 -1.1242
  458TIP3    H225570   2.222   6.932   9.428  0.1727 -0.2465  2.2879
  459TIP3   OH225571   1.598   1.999   9.930  0.1568  0.2052  0.1660
  459TIP3    H125572   1.670   1.955   9.976  0.3724 -0.0930 -0.4349
  459TIP3    H225573   1.603   1.964   9.840 -1.2765 -0.4911  0.3251
  460TIP3   OH225574   3.859   7.393   8.443 -0.0054 -0.3800  0.0247
  460TIP3    H125575   3.819   7.442   8.371  0.5707 -0.6144 -0.4627
  460TIP3    H225576   3.785   7.367   8.498 -0.8718 -2.8204 -2.0965
  461TIP3   OH225577   0.112   3.906   8.774  0.2491  0.4911  0.7776
  461TIP3    H125578   0.087   3.835   8.715  1.0187  0.1337  0.8576
  461TIP3    H225579   0.054   3.979   8.752  1.2541  0.7418 -1.2073
  462TIP3   OH225580   4.690   0.313  11.090 -0.0243 -0.4449 -0.2938
  462TIP3    H125581   4.602   0.350  11.079 -0.6999 -1.1546  2.1289
  462TIP3    H225582   4.741   0.352  11.019 -1.7472  1.6887 -0.4812
  463TIP3   OH225583   0.877   4.976  10.967 -0.0779 -0.1036  0.1213
  463TIP3    H125584   0.913   4.911  10.907  1.1229 -0.7610  1.4814
  463TIP3    H225585   0.917   5.058  10.942  0.0789 -0.2882 -0.2395
  464TIP3   OH225586   1.724   1.712  10.197  0.1374 -0.3057 -0.3854
  464TIP3    H125587   1.674   1.743  10.272 -0.6611 -1.9994 -0.1867
  464TIP3    H225588   1.745   1.792  10.148 -1.0862  0.6220  0.5491
  465TIP3   OH225589   6.298   6.801  10.767 -0.1980  0.5463 -0.0051
  465TIP3    H125590   6.307   6.735  10.698  0.5296 -0.0299  0.6127
  465TIP3    H225591   6.242   6.759  10.832  0.1077  0.6136  0.3030
  466TIP3   OH225592   1.912   5.696   9.574  0.7425 -0.0505  0.0511
  466TIP3    H125593   2.005   5.717   9.586  0.7268  0.5017 -0.7550
  466TIP3    H225594   1.912   5.627   9.508  0.4855  1.3609 -1.4802
  467TIP3   OH225595   0.457   6.258   9.835 -0.4668  0.8191 -0.3000
  467TIP3    H125596   0.393   6.242   9.905 -0.3415  0.0662 -0.3429
  467TIP3    H225597   0.425   6.206   9.762 -0.4957  1.4601 -0.7483
  468TIP3   OH225598   5.817   2.777  10.461 -0.0983 -0.3484  0.6185
  468TIP3    H125599   5.731   2.792  10.422  1.5388  2.7902 -2.3838
  468TIP3    H225600   5.870   2.743  10.389  2.0687  1.6839  1.1115
  469TIP3   OH225601   2.645   3.022   9.592  0.0392  0.0276 -0.0591
  469TIP3    H125602   2.702   2.946   9.586 -0.4000 -0.2366 -1.0966
  469TIP3    H225603   2.686   3.087   9.534  0.1912  0.4458  0.5033
  470TIP3   OH225604   0.381   0.088  10.218  0.4804 -0.5355  0.3337
  470TIP3    H125605   0.415   0.127  10.138 -1.1474  2.3058  0.8937
  470TIP3    H225606   0.305   0.037  10.190  0.6907 -0.6536 -0.0330
  471TIP3   OH225607   3.261   4.665  10.731  0.0141  0.0556 -0.6129
  471TIP3    H125608   3.285   4.579  10.696  1.1192 -0.3189  0.9444
  471TIP3    H225609   3.169   4.676  10.707  0.1655 -1.0741 -1.7875
  472TIP3   OH225610   3.917   1.048   9.454 -0.1088 -0.1030 -0.2763
  472TIP3    H125611   4.011   1.056   9.471 -0.1562 -0.2641  0.0855
  472TIP3    H225612   3.876   1.097   9.525 -0.3415 -1.8445  0.8431
  473TIP3   OH225613   3.163   1.306   9.557 -0.2907 -0.2240 -0.6718
  473TIP3    H125614   3.073   1.339   9.551 -0.3184 -0.3923 -1.2313
  473TIP3    H225615   3.217   1.377   9.523 -0.1545  0.1114  0.2244
  474TIP3   OH225616   4.983   4.886  10.856  0.9318 -0.0492 -0.2155
  474TIP3    H125617   4.987   4.946  10.782  0.8048 -0.6408 -0.7070
  474TIP3    H225618   4.902   4.836  10.843  0.6456  0.1928  0.5942
  475TIP3   OH225619   3.354   0.822   8.610 -0.1246  0.1443 -0.0305
  475TIP3    H125620   3.268   0.779   8.602  0.5396 -2.2116  3.4412
  475TIP3    H225621   3.417   0.750   8.613  1.6931  1.6679  0.3246
  476TIP3   OH225622   2.891   3.197   9.683 -0.4775  0.2466 -0.4745
  476TIP3    H125623   2.837   3.148   9.745 -0.0110  0.4161  0.0700
  476TIP3    H225624   2.914   3.133   9.616  2.7753 -1.2522  1.8080
  477TIP3   OH225625   2.302   1.937   8.814 -0.2536 -0.1939 -0.2508
  477TIP3    H125626   2.284   1.843   8.809 -0.5956 -0.3142  2.1014
  477TIP3    H225627   2.265   1.973   8.733  0.7628 -2.1688 -1.6969
  478TIP3   OH225628   0.167   7.516  10.862  0.2597 -0.1808  0.3544
  478TIP3    H125629   0.084   7.563  10.859  0.4601  0.1992  0.6230
  478TIP3    H225630   0.165   7.469  10.945 -0.0613 -0.8883 -0.0405
  479TIP3   OH225631   0.870   3.763  10.757 -0.2742 -0.5665 -0.2391
  479TIP3    H125632   0.880   3.825  10.830  1.0347 -1.3562  0.2899
  479TIP3    H225633   0.958   3.728  10.744 -0.7960 -1.5526 -1.2145
  480TIP3   OH225634   4.302   0.787   9.955  0.7825 -0.6907 -0.4749
  480TIP3    H125635   4.206   0.778   9.958  0.6640 -0.5310 -2.5138
  480TIP3    H225636   4.325   0.766   9.865  2.4647  1.2388 -0.5625
  481TIP3   OH225637   6.207   1.850  11.116  0.1317  0.3296  0.2356
  481TIP3    H125638   6.185   1.869  11.207  0.8877  1.0282  0.2802
  481TIP3    H225639   6.163   1.918  11.066 -1.0681 -0.6023 -0.0188
  482TIP3   OH225640   2.899   5.395  10.310 -0.6492 -0.4829  0.1104
  482TIP3    H125641   2.908   5.461  10.379 -0.9715  0.0323 -0.3292
  482TIP3    H225642   2.949   5.320  10.342  0.0646  0.1144  0.4481
  483TIP3   OH225643   1.221   6.551   9.546 -0.2200 -0.6448  0.0513
  483TIP3    H125644   1.274   6.536   9.468 -0.0993 -0.2378  0.0557
  483TIP3    H225645   1.232   6.644   9.566  0.2386 -0.8612  0.8929
  484TIP3   OH225646   2.878   5.204   9.952  0.0513  0.1396  0.0862
  484TIP3    H125647   2.966   5.196   9.989  1.2950  1.7516 -2.2874
  484TIP3    H225648   2.881   5.154   9.871 -1.5311 -0.4921  0.3810
  485TIP3   OH225649   0.371   7.032   9.780  0.3257 -0.0515 -0.2146
  485TIP3    H125650   0.335   6.983   9.706 -0.5952 -0.5876  0.5661
  485TIP3    H225651   0.364   6.971   9.854 -0.8241  1.2500  0.7822
  486TIP3   OH225652   4.634   6.561  10.591 -0.2171 -0.2440  0.2034
  486TIP3    H125653   4.691   6.505  10.538  0.8547 -0.9408  2.0036
  486TIP3    H225654   4.652   6.535  10.682 -3.2536 -0.3651  0.8900
  487TIP3   OH225655   7.136   5.295   9.501 -0.0812 -0.6693 -0.3853
  487TIP3    H125656   7.043   5.308   9.482 -0.6277 -0.9562  1.8206
  487TIP3    H225657   7.136   5.242   9.581  1.9968 -1.3149 -0.7751
  488TIP3   OH225658   6.886   5.800   9.305  0.2196  0.9256 -0.0699
  488TIP3    H125659   6.820   5.752   9.255  0.1848  0.6807  0.2123
  488TIP3    H225660   6.968   5.785   9.258  0.0627  1.3052 -0.4736
  489TIP3   OH225661   5.001   4.651   9.282 -0.0922 -0.5699  0.3960
  489TIP3    H125662   4.993   4.710   9.207 -3.4053 -0.9303  0.3520
  489TIP3    H225663   4.996   4.708   9.358  1.7242 -0.3792  0.4379
  490TIP3   OH225664   1.253   3.609   9.724 -0.1025 -0.0876 -0.1606
  490TIP3    H125665   1.312   3.554   9.774 -0.3278 -0.2262 -0.0443
  490TIP3    H225666   1.254   3.574   9.636  2.0992  1.5596 -0.8691
  491TIP3   OH225667   1.930   2.539  10.706  0.2410  0.4424 -0.2615
  491TIP3    H125668   1.895   2.487  10.634  0.4566  0.5976 -0.4794
  491TIP3    H225669   1.863   2.533  10.775 -1.1215  2.2604 -1.3455
  492TIP3   OH225670   3.652   5.285  10.100 -0.0619  0.0950  0.1452
  492TIP3    H125671   3.567   5.261  10.063 -0.8315  1.7472  0.7521
  492TIP3    H225672   3.685   5.354  10.041  0.9076 -0.5593 -0.1146
  493TIP3   OH225673   5.439   5.046   9.765  0.1645  0.6838  0.1114
  493TIP3    H125674   5.391   5.056   9.683  0.9962  1.4680 -0.2878
  493TIP3    H225675   5.436   4.952   9.782 -2.1398  0.7535  0.4992
  494TIP3   OH225676   7.033   6.435  10.699 -0.4684 -0.0060  0.1313
  494TIP3    H125677   7.024   6.517  10.650 -0.9469 -0.2737 -0.2348
  494TIP3    H225678   7.084   6.378  10.642  0.1382  0.1333  0.5193
  495TIP3   OH225679   4.313   5.430   9.235 -0.2599  0.3669 -0.2727
  495TIP3    H125680   4.349   5.514   9.208  0.1766  0.8558  1.6785
  495TIP3    H225681   4.311   5.434   9.331 -2.9624 -0.7164 -0.1973
  496TIP3   OH225682   7.212   0.169  11.206 -0.0924  0.2419  0.1713
  496TIP3    H125683   7.251   0.154  11.292  0.4584  1.5789  0.1791
  496TIP3    H225684   7.211   0.083  11.165  2.3280  0.0473  0.4036
  497TIP3   OH225685   5.265   5.161  10.922  0.2264 -0.5680  0.2888
  497TIP3    H125686   5.337   5.206  10.878  0.0189 -0.6660 -0.1550
  497TIP3    H225687   5.302   5.077  10.949  0.0795 -0.9309 -0.6007
  498TIP3   OH225688   1.682   5.889  10.119 -0.3915 -0.2883  0.7385
  498TIP3    H125689   1.763   5.939  10.104  0.4804 -1.5965  0.8897
  498TIP3    H225690   1.712   5.800  10.138 -1.9113 -1.6128 -2.2277
  499TIP3   OH225691   2.372   7.423   8.163  0.1764  0.3940  0.0849
  499TIP3    H125692   2.315   7.496   8.188 -1.4515 -1.2964  1.6053
  499TIP3    H225693   2.312   7.351   8.144  1.7457 -0.6976 -0.9814
  500TIP3   OH225694   3.545   5.955   9.667 -0.3219 -0.4823  0.1426
  500TIP3    H125695   3.639   5.971   9.655 -0.3305  0.6539  1.2937
  500TIP3    H225696   3.536   5.860   9.667  0.9057 -0.6139  0.4454
  501TIP3   OH225697   3.303   1.526   8.237 -0.0775  0.1058 -0.2924
  501TIP3    H125698   3.337   1.443   8.269 -2.5484 -0.6082  0.7433
  501TIP3    H225699   3.341   1.536   8.150  0.8139 -1.7563 -0.1687
  502TIP3   OH225700   3.023   6.111   9.783 -0.0983  0.0952 -0.3587
  502TIP3    H125701   3.088   6.126   9.714 -0.3120  1.8272 -0.2249
  502TIP3    H225702   2.977   6.194   9.792  0.2255  0.1022  2.1873
  503TIP3   OH225703   7.386   6.580  10.543 -0.0329 -0.0636  0.5766
  503TIP3    H125704   7.322   6.508  10.546 -0.4398  0.3134  1.6616
  503TIP3    H225705   7.375   6.618  10.457  0.9811 -1.9901 -0.4801
  504TIP3   OH225706   6.106   4.086  10.652 -0.0968 -0.1237 -0.1439
  504TIP3    H125707   6.168   4.145  10.694  0.9457 -1.5136  0.3858
  504TIP3    H225708   6.161   4.035  10.592 -0.6787 -1.5069  0.4580
  505TIP3   OH225709   6.060   0.659   9.518 -0.1737  0.3080  0.3122
  505TIP3    H125710   6.018   0.648   9.432 -1.3510 -1.8553  1.0712
  505TIP3    H225711   6.059   0.753   9.534 -1.6357  0.5965 -1.2396
  506TIP3   OH225712   7.525   1.218   9.976  0.3583  0.3229  0.0050
  506TIP3    H125713   7.468   1.292   9.993 -0.1889 -0.0731 -0.0827
  506TIP3    H225714   7.570   1.202  10.059 -1.0069 -0.5078  0.6128
  507TIP3   OH225715   0.158   2.181   9.692 -0.1808 -0.0009  0.0443
  507TIP3    H125716   0.142   2.175   9.597  0.4979 -3.3674 -0.0010
  507TIP3    H225717   0.085   2.134   9.731 -0.5007  1.4422  1.2306
  508TIP3   OH225718   0.745   4.379   9.717  0.0975  0.0236 -0.1864
  508TIP3    H125719   0.733   4.341   9.630  0.1047  2.7614 -1.4581
  508TIP3    H225720   0.785   4.464   9.701  0.1814  0.5812  2.5348
  509TIP3   OH225721   5.033   6.851  10.645 -0.0212 -0.3602 -0.1050
  509TIP3    H125722   4.970   6.917  10.617 -0.0754 -0.8426 -1.1825
  509TIP3    H225723   5.094   6.898  10.701 -1.1124  0.1923  0.6509
  510TIP3   OH225724   3.056   7.255  10.600 -0.2061 -0.0570 -0.0541
  510TIP3    H125725   3.006   7.240  10.681  0.4268 -0.1123  0.3365
  510TIP3    H225726   3.024   7.338  10.567  0.4452  0.6116  0.9563
  511TIP3   OH225727   5.255   5.821  10.925  0.0888  0.1986 -0.5330
  511TIP3    H125728   5.176   5.800  10.875 -0.4204 -1.1135  0.7431
  511TIP3    H225729   5.240   5.910  10.957 -0.5533  0.2206 -0.8675
  512TIP3   OH225730   1.728   7.235   9.533 -0.5039  0.0246  0.8102
  512TIP3    H125731   1.684   7.230   9.618  0.0174 -0.8197  1.0408
  512TIP3    H225732   1.814   7.195   9.548  0.1505  1.1717  0.2299
  513TIP3   OH225733   3.607   7.345   9.245 -0.2574 -0.2135 -0.3816
  513TIP3    H125734   3.615   7.417   9.184  0.5263 -0.2359 -0.3157
  513TIP3    H225735   3.686   7.349   9.298 -0.2465 -1.0587 -0.3121
  514TIP3   OH225736   0.060   0.135   9.436 -0.2250 -0.4366 -0.1355
  514TIP3    H125737   0.007   0.208   9.404  1.0982  1.2811  1.3476
  514TIP3    H225738   0.137   0.135   9.380 -0.6292 -1.3255 -0.7117
  515TIP3   OH225739   0.076   1.440  11.367 -0.1141  0.2285  0.2518
  515TIP3    H125740   0.111   1.529  11.378  0.2740 -0.0358  1.2823
  515TIP3    H225741   0.138   1.398  11.307  0.7688  0.1002  1.2200
  516TIP3   OH225742   2.740   0.506   8.323  0.7346 -0.6086  0.3326
  516TIP3    H125743   2.794   0.486   8.246  1.2139 -0.2061  0.5546
  516TIP3    H225744   2.659   0.542   8.286  1.8042  1.6383  0.0213
  517TIP3   OH225745   5.335   3.213  10.758 -0.0421  0.1223 -0.3343
  517TIP3    H125746   5.348   3.119  10.745 -1.2288 -0.3378  1.5198
  517TIP3    H225747   5.420   3.251  10.739  0.1772 -1.1687 -2.2759
  518TIP3   OH225748   5.210   2.827  10.296 -0.2837 -0.1591 -0.2160
  518TIP3    H125749   5.143   2.800  10.232  0.1244 -0.2183 -0.6243
  518TIP3    H225750   5.291   2.830  10.246 -0.0875  0.5512  0.1252
  519TIP3   OH225751   4.746   5.759  10.510  0.7875 -0.1481 -0.5005
  519TIP3    H125752   4.750   5.852  10.488  1.6545 -0.2177 -0.6647
  519TIP3    H225753   4.728   5.715  10.427 -2.3480  0.0210 -0.0545
  520TIP3   OH225754   1.578   4.656  10.780  0.1544 -0.7796  0.7632
  520TIP3    H125755   1.588   4.738  10.829 -3.4983 -0.7938  1.8418
  520TIP3    H225756   1.649   4.658  10.716 -0.2280  3.6405  0.1526
  521TIP3   OH225757   3.648   7.344  10.422 -0.1989  0.3594 -0.1677
  521TIP3    H125758   3.686   7.269  10.378 -0.7402  1.0194 -1.8341
  521TIP3    H225759   3.710   7.415  10.408 -0.8556  0.8313 -0.7908
  522TIP3   OH225760   5.596   2.620  11.426 -0.0522 -0.8138 -0.4788
  522TIP3    H125761   5.572   2.709  11.401  0.1797 -0.3382  0.8930
  522TIP3    H225762   5.514   2.579  11.452 -0.3602 -1.4458 -2.3080
  523TIP3   OH225763   7.217   4.242  10.302 -0.2420 -0.0279 -0.7489
  523TIP3    H125764   7.153   4.212  10.365  1.5384 -1.2530  0.5804
  523TIP3    H225765   7.218   4.338  10.312 -2.7845  0.1659 -1.8190
  524TIP3   OH225766   7.679   4.186   8.723 -0.1363 -0.1212  0.3648
  524TIP3    H125767   7.750   4.190   8.659 -0.7762  0.9742 -0.2998
  524TIP3    H225768   7.723   4.190   8.808  0.7452 -1.9153  0.0351
  525TIP3   OH225769   1.751   5.315   9.194  0.1487 -0.6469 -0.1132
  525TIP3    H125770   1.674   5.292   9.141 -0.8001 -0.7829  1.2629
  525TIP3    H225771   1.811   5.241   9.182 -0.0085 -0.6242 -1.0691
  526TIP3   OH225772   2.909   5.058  10.840  0.3525  0.1534  0.0861
  526TIP3    H125773   2.977   5.009  10.794 -2.4218 -1.1592 -3.0301
  526TIP3    H225774   2.898   5.138  10.788 -1.5855 -0.4742 -0.5521
  527TIP3   OH225775   5.219   6.941  10.021  0.3234 -0.4559 -0.0344
  527TIP3    H125776   5.234   6.865  10.078  0.2574 -0.6456 -0.2670
  527TIP3    H225777   5.125   6.956  10.025  0.5879  1.0119  1.7761
  528TIP3   OH225778   1.354   6.447  10.143  0.3882  0.2492 -0.0364
  528TIP3    H125779   1.288   6.491  10.089  0.3718 -1.1595 -1.2469
  528TIP3    H225780   1.304   6.391  10.202  0.4741 -0.2609 -0.4442
  529TIP3   OH225781   2.516   3.384   8.922  0.5336  0.4447 -0.1118
  529TIP3    H125782   2.454   3.370   8.850  0.5817  1.9944 -0.4891
  529TIP3    H225783   2.526   3.298   8.962 -3.0877  0.3513  0.9799
  530TIP3   OH225784   5.824   6.303   9.422 -0.6069  0.2772 -0.1494
  530TIP3    H125785   5.842   6.288   9.515  0.4903 -0.0383 -0.3915
  530TIP3    H225786   5.735   6.271   9.409 -0.5093 -0.3498  0.6432
  531TIP3   OH225787   7.639   4.891   9.709  0.1685 -0.3473  0.1023
  531TIP3    H125788   7.563   4.898   9.766  2.4687 -0.5786  3.5108
  531TIP3    H225789   7.624   4.811   9.660 -2.0951  0.0225  0.0799
  532TIP3   OH225790   4.175   2.069  11.142  0.5557  0.0226 -0.3716
  532TIP3    H125791   4.133   1.992  11.104  1.3787  0.0359 -1.3509
  532TIP3    H225792   4.114   2.140  11.127  1.2470  0.2128 -2.5494
  533TIP3   OH225793   0.262   1.220   9.431  0.2168 -0.0496 -0.0837
  533TIP3    H125794   0.318   1.298   9.434 -0.6693  0.6427 -0.6448
  533TIP3    H225795   0.253   1.202   9.338 -1.7132  0.8054 -0.1141
  534TIP3   OH225796   3.142   3.448   9.096 -0.0019 -0.2349 -0.0214
  534TIP3    H125797   3.052   3.430   9.124 -0.4088 -0.6258 -1.5029
  534TIP3    H225798   3.192   3.453   9.178 -1.5911  1.3424  0.9240
  535TIP3   OH225799   4.328   7.096  10.175  0.2670  0.2613  0.1151
  535TIP3    H125800   4.259   7.096  10.241 -1.2763  0.0968 -1.4334
  535TIP3    H225801   4.325   7.009  10.137 -0.2116  0.9495 -1.4846
  536TIP3   OH225802   7.446   7.470  10.862  0.7625 -0.5916 -0.3340
  536TIP3    H125803   7.471   7.420  10.785 -0.8090 -0.0718 -1.2187
  536TIP3    H225804   7.444   7.405  10.933 -1.1029 -1.8465 -1.4318
  537TIP3   OH225805   5.939   1.845  10.055  0.3608  0.6284  0.1389
  537TIP3    H125806   5.870   1.814   9.996  0.3213 -0.1222  0.5705
  537TIP3    H225807   6.005   1.776  10.053  1.7987  1.9542 -1.3745
  538TIP3   OH225808   5.853   5.648  10.276  0.5019  0.8070 -0.3563
  538TIP3    H125809   5.905   5.567  10.274 -0.0157  0.4832 -0.8889
  538TIP3    H225810   5.918   5.718  10.266  0.9776  0.4761  0.3214
  539TIP3   OH225811   6.444   2.292  10.327 -0.1368  0.2607  0.2004
  539TIP3    H125812   6.446   2.354  10.400 -2.4826  0.1880  0.3959
  539TIP3    H225813   6.412   2.210  10.365 -2.9583  0.6583 -1.1217
  540TIP3   OH225814   0.758   5.992   9.780 -0.3131 -0.0717 -0.0834
  540TIP3    H125815   0.754   5.958   9.870  1.9846 -1.6322 -0.4768
  540TIP3    H225816   0.667   5.991   9.750 -0.8800 -1.7307  1.4657
  541TIP3   OH225817   0.107   6.174   8.953 -0.4415 -0.5827  0.2833
  541TIP3    H125818   0.084   6.199   8.864 -0.2746  0.0294  0.4081
  541TIP3    H225819   0.025   6.142   8.991 -0.8557  0.5135  0.3607
  542TIP3   OH225820   1.848   4.729   9.850  0.0036 -0.0907  0.0343
  542TIP3    H125821   1.925   4.780   9.825 -0.4852  0.6203 -0.0415
  542TIP3    H225822   1.835   4.669   9.776  1.9706 -2.0125  1.1199
  543TIP3   OH225823   5.984   5.901  10.781 -0.2638  0.6640  0.4328
  543TIP3    H125824   5.920   5.972  10.782 -0.8816  0.1148 -0.0281
  543TIP3    H225825   6.068   5.945  10.767 -0.7627  1.2248 -0.9306
  544TIP3   OH225826   5.811   3.902  10.043 -0.2047 -0.4662  0.1224
  544TIP3    H125827   5.719   3.888  10.021 -0.8973  1.3981  1.5212
  544TIP3    H225828   5.811   3.910  10.138  1.5211 -1.0333  0.1939
  545TIP3   OH225829   3.113   5.025  10.356 -0.2605 -0.2826 -0.2273
  545TIP3    H125830   3.203   5.051  10.372 -0.4186 -0.1138  0.4207
  545TIP3    H225831   3.079   5.003  10.443 -1.4143  1.4866 -0.1979
  546TIP3   OH225832   5.756   1.999   8.097 -0.0183 -0.7602 -0.6080
  546TIP3    H125833   5.695   2.069   8.120 -0.9957 -1.6422 -0.4647
  546TIP3    H225834   5.839   2.044   8.079 -1.1412  0.6379 -2.5386
  547TIP3   OH225835   3.914   6.898   9.481 -0.3386 -0.3678  0.4819
  547TIP3    H125836   3.903   6.986   9.518  3.5676  0.6575 -0.3257
  547TIP3    H225837   3.860   6.899   9.402  0.1841  1.5903  0.0932
  548TIP3   OH225838   6.350   0.359   9.846 -0.3849  0.1767  0.2618
  548TIP3    H125839   6.310   0.445   9.841  2.2979  1.4998 -1.0592
  548TIP3    H225840   6.321   0.314   9.766  0.1725  0.8660 -0.3468
  549TIP3   OH225841   6.299   3.041   9.482  0.0147  0.1759  0.5841
  549TIP3    H125842   6.366   2.995   9.431 -1.6275 -1.2670 -0.4193
  549TIP3    H225843   6.218   2.994   9.462 -0.9921  0.4995  3.3831
  550TIP3   OH225844   2.085   0.105   8.873 -0.8449  0.7992 -0.2467
  550TIP3    H125845   2.015   0.126   8.935 -0.1445  1.1114  0.4728
  550TIP3    H225846   2.048   0.122   8.787 -1.6003  1.1030  0.1290
  551TIP3   OH225847   3.560   1.776   9.709 -0.6076  0.1197 -0.3069
  551TIP3    H125848   3.639   1.777   9.762  0.2293 -0.3719 -1.5079
  551TIP3    H225849   3.512   1.855   9.736  0.7100  0.9006 -0.1775
  552TIP3   OH225850   2.830   0.329   8.833 -0.0967  0.1133  0.4702
  552TIP3    H125851   2.827   0.257   8.770 -1.8397 -0.6754  1.3482
  552TIP3    H225852   2.883   0.296   8.905  1.2208  0.7054 -0.2085
  553TIP3   OH225853   3.659   7.651   9.890  0.1183  0.0701  0.7134
  553TIP3    H125854   3.683   7.730   9.842 -0.8049  0.0615  0.1963
  553TIP3    H225855   3.602   7.682   9.961 -0.4114 -0.1365  0.3880
  554TIP3   OH225856   1.893   7.151  10.026  0.0231 -0.5311  0.2855
  554TIP3    H125857   1.821   7.108  10.073 -0.1058  1.2579  1.8381
  554TIP3    H225858   1.881   7.244  10.044  0.4544  0.2207 -2.6933
  555TIP3   OH225859   1.099   0.575  13.625 -0.0589 -0.0690 -0.3691
  555TIP3    H125860   1.180   0.618  13.596  0.5492 -1.6332 -1.1044
  555TIP3    H225861   1.111   0.483  13.602  0.2954 -1.4862  4.4587
  556TIP3   OH225862   6.680   6.926  10.224 -0.7390  0.0188 -0.5574
  556TIP3    H125863   6.648   6.976  10.149  0.8427  0.9703 -0.6447
  556TIP3    H225864   6.774   6.945  10.227 -0.7899  0.2289  1.8132
  557TIP3   OH225865   4.016   1.794   9.454  0.3472  0.0036 -0.3019
  557TIP3    H125866   3.999   1.823   9.364 -1.3293  0.9518  0.2712
  557TIP3    H225867   4.082   1.856   9.486  0.6996 -0.1246 -0.7716
  558TIP3   OH225868   2.162   5.746  10.848  0.4754  0.4006 -0.4720
  558TIP3    H125869   2.218   5.669  10.858 -1.5005 -1.3836 -2.1587
  558TIP3    H225870   2.222   5.820  10.860  2.9802 -1.3619 -1.1446
  559TIP3   OH225871   1.490   0.080  10.768  0.2903 -0.3043  0.8771
  559TIP3    H125872   1.521   0.061  10.679  0.1670  1.6143  0.3761
  559TIP3    H225873   1.544   0.025  10.824  0.4070 -1.5263 -0.3608
  560TIP3   OH225874   1.558   2.814   9.027  0.0712  0.2201  0.1152
  560TIP3    H125875   1.565   2.876   8.953 -0.6042  1.3349  0.9543
  560TIP3    H225876   1.464   2.801   9.039  0.2060 -0.9317  0.0038
  561TIP3   OH225877   3.640   6.258  11.342  0.4160  0.0454  0.2635
  561TIP3    H125878   3.624   6.244  11.436  0.0988  0.5516  0.2936
  561TIP3    H225879   3.553   6.257  11.303  0.7084 -4.0539 -0.6560
  562TIP3   OH225880   3.300   6.670  10.382 -0.7706 -0.3958 -0.1486
  562TIP3    H125881   3.261   6.757  10.368  0.2744 -0.1050 -1.4541
  562TIP3    H225882   3.384   6.688  10.423 -1.6179 -0.9818  1.9696
  563TIP3   OH225883   6.050   5.735   9.942  0.0683 -0.1561  0.5053
  563TIP3    H125884   6.078   5.756   9.853  1.6477 -0.7446  0.8362
  563TIP3    H225885   5.954   5.740   9.939  0.1513  1.5957 -0.7659
  564TIP3   OH225886   0.777   6.744   9.816 -0.4564 -0.3045  0.5953
  564TIP3    H125887   0.771   6.651   9.796 -1.5918 -0.2472  0.6554
  564TIP3    H225888   0.715   6.758   9.888  0.1758  0.3831  1.0275
  565TIP3   OH225889   3.940   6.663  10.069  0.1883  0.2602  0.1282
  565TIP3    H125890   3.943   6.749  10.112  0.9173  0.0044  0.6128
  565TIP3    H225891   3.977   6.679   9.982  0.3569  0.4374  0.2295
  566TIP3   OH225892   1.717   5.326   8.849 -0.2778  0.4505 -0.3405
  566TIP3    H125893   1.659   5.313   8.924  1.0338  1.6895  0.9576
  566TIP3    H225894   1.805   5.319   8.885  0.3976  0.2226 -1.9458
  567TIP3   OH225895   0.796   3.658  11.173 -0.3715 -0.0742 -0.1098
  567TIP3    H125896   0.782   3.612  11.090 -1.3492  0.6988 -0.3846
  567TIP3    H225897   0.848   3.734  11.150  1.0295 -0.8644  0.3096
  568TIP3   OH225898   1.598   1.429  10.303  0.6624 -0.1915  0.6706
  568TIP3    H125899   1.680   1.382  10.286  0.6201  0.6047 -2.4450
  568TIP3    H225900   1.529   1.365  10.286  0.6427 -0.0157  0.0520
  569TIP3   OH225901   0.690   1.926  10.982 -0.1939 -0.0896 -0.1958
  569TIP3    H125902   0.693   2.021  10.994 -0.3252 -0.3026  1.9097
  569TIP3    H225903   0.772   1.905  10.937 -0.3396  1.0351 -1.0496
  570TIP3   OH225904   4.861   4.393   9.281 -0.0898 -0.0125  0.7888
  570TIP3    H125905   4.891   4.483   9.289 -2.0536  0.9168 -1.2025
  570TIP3    H225906   4.807   4.378   9.358  0.0723  0.5949  1.0219
  571TIP3   OH225907   3.487   0.467   9.807  0.4931 -0.3200 -0.0731
  571TIP3    H125908   3.420   0.411   9.846  1.2401 -0.1240  1.5334
  571TIP3    H225909   3.565   0.452   9.860  1.9107 -0.9069 -2.1902
  572TIP3   OH225910   0.629   2.573  10.063  0.3497 -0.2488  0.1756
  572TIP3    H125911   0.571   2.603   9.994  0.5998 -0.0947  0.0296
  572TIP3    H225912   0.711   2.551  10.017  0.2340 -0.9781  0.2971
  573TIP3   OH225913   7.082   5.428   9.960  0.7008  0.7203 -0.3423
  573TIP3    H125914   7.104   5.339   9.934  1.3677  0.0469  2.1600
  573TIP3    H225915   6.991   5.440   9.933  0.5247 -0.8163 -0.5084
  574TIP3   OH225916   3.246   0.883   9.551  0.1617 -0.4780  0.6868
  574TIP3    H125917   3.307   0.815   9.579  1.1589  0.7149  1.5256
  574TIP3    H225918   3.205   0.848   9.472  1.3275 -1.6585  0.5737
  575TIP3   OH225919   7.369   0.931   9.811 -0.0196 -0.2636  0.4702
  575TIP3    H125920   7.454   0.956   9.848  0.0176 -3.1913  2.7945
  575TIP3    H225921   7.328   0.880   9.881 -3.1624 -0.0473 -1.0796
  576TIP3   OH225922   6.780   0.273  10.834 -0.0541  0.4424  0.1280
  576TIP3    H125923   6.803   0.220  10.910  2.5919 -0.1195 -0.9402
  576TIP3    H225924   6.757   0.208  10.767 -0.5058  0.8439 -0.1091
  577TIP3   OH225925   2.670   4.831   9.257  0.0026  0.1190 -0.1006
  577TIP3    H125926   2.676   4.813   9.351 -0.0825  1.4562  0.1784
  577TIP3    H225927   2.760   4.849   9.231 -0.1584  1.1662  0.0368
  578TIP3   OH225928   7.673   4.204   8.260  0.4481  0.3101 -0.3782
  578TIP3    H125929   7.582   4.189   8.232 -1.0041 -0.0672  3.8354
  578TIP3    H225930   7.719   4.125   8.232 -0.8874 -0.2243 -1.2109
  579TIP3   OH225931   2.942   1.261  11.238 -0.5025  0.2862 -0.3602
  579TIP3    H125932   2.986   1.231  11.317  0.2880 -1.6720 -1.4811
  579TIP3    H225933   2.887   1.188  11.211 -1.1343  1.0897 -1.3675
  580TIP3   OH225934   0.874   2.272  10.510 -0.3345 -0.4935  0.4552
  580TIP3    H125935   0.837   2.285  10.422 -0.6248 -0.4862  0.5781
  580TIP3    H225936   0.969   2.267  10.495 -0.3330  0.1626  0.2168
  581TIP3   OH225937   4.783   0.423   8.896 -0.1888  0.6073  0.3408
  581TIP3    H125938   4.874   0.395   8.900 -0.3334 -0.0999 -0.8776
  581TIP3    H225939   4.772   0.480   8.972  0.0614 -2.7374  3.1034
  582TIP3   OH225940   2.432   4.628   9.240 -0.3788  0.5898  0.4967
  582TIP3    H125941   2.374   4.632   9.164  1.6745  1.5947 -1.1500
  582TIP3    H225942   2.447   4.719   9.264  1.8727  0.4972 -0.3167
  583TIP3   OH225943   3.822   0.190  10.820  0.4275 -0.0863  0.0913
  583TIP3    H125944   3.802   0.280  10.847  1.5337  0.4664 -0.8337
  583TIP3    H225945   3.868   0.153  10.895  0.9077  0.4845  0.0907
  584TIP3   OH225946   0.300   2.423  10.335 -0.0276  0.7943 -0.5482
  584TIP3    H125947   0.338   2.493  10.283 -0.3637  1.1270 -0.3493
  584TIP3    H225948   0.255   2.468  10.406 -2.1326  0.4997 -1.6307
  585TIP3   OH225949   7.605   3.260   9.989 -0.1848  0.5151  0.2337
  585TIP3    H125950   7.626   3.264   9.895 -2.1948 -1.0640 -0.3495
  585TIP3    H225951   7.563   3.175  10.000 -0.2745  0.8109  2.5345
  586TIP3   OH225952   7.361   5.941   8.976 -0.4794 -0.2746  0.2489
  586TIP3    H125953   7.297   5.950   8.905 -1.1598  0.7822  0.9647
  586TIP3    H225954   7.430   5.886   8.939 -0.9115  0.0891 -1.1634
  587TIP3   OH225955   3.979   7.273   9.825  0.4545  0.4805  0.3712
  587TIP3    H125956   4.046   7.210   9.850 -0.5814 -1.4851 -1.4699
  587TIP3    H225957   3.988   7.281   9.730  0.2207  2.8006  0.4737
  588TIP3   OH225958   7.204   5.823  10.561 -0.3215  0.5838 -0.1866
  588TIP3    H125959   7.178   5.898  10.615  0.3450  0.1796  0.7034
  588TIP3    H225960   7.141   5.754  10.583  0.5522  0.0939  0.8450
  589TIP3   OH225961   4.604   7.267  10.552  0.3937  0.8842  0.8759
  589TIP3    H125962   4.563   7.198  10.604  0.1004  0.8889  0.6563
  589TIP3    H225963   4.544   7.341  10.560 -1.2694 -0.0160 -1.8933
  590TIP3   OH225964   4.882   7.001  10.070  0.0042 -0.1444  0.2275
  590TIP3    H125965   4.905   6.997   9.977  0.2291  0.7066  0.2458
  590TIP3    H225966   4.802   6.948  10.077 -1.2547  1.5345 -0.8385
  591TIP3   OH225967   7.299   3.230  10.957  0.3994  0.1181  0.1724
  591TIP3    H125968   7.391   3.219  10.979  0.2110  0.1545  1.0389
  591TIP3    H225969   7.264   3.141  10.954  0.1493  0.1545  1.3508
  592TIP3   OH225970   1.011   0.807   8.417 -0.4110  0.5043 -0.2843
  592TIP3    H125971   1.057   0.889   8.433  3.0477 -1.6676  2.6440
  592TIP3    H225972   1.070   0.758   8.359 -1.0451 -0.8462  0.1736
  593TIP3   OH225973   5.077   7.621   9.869 -0.1945 -0.2723 -0.4450
  593TIP3    H125974   5.139   7.596   9.801  1.4673  2.1879  0.0605
  593TIP3    H225975   5.076   7.716   9.868 -4.2935 -0.1117 -0.6410
  594TIP3   OH225976   5.460   4.683  10.106  0.3909  0.4827  0.2656
  594TIP3    H125977   5.439   4.657  10.196 -2.1623  1.3189 -0.0072
  594TIP3    H225978   5.498   4.605  10.066  0.2259 -0.3423  1.6582
  595TIP3   OH225979   6.549   0.152  10.241  0.4505  0.2317 -0.7828
  595TIP3    H125980   6.490   0.139  10.167  0.8362 -1.4837 -0.8415
  595TIP3    H225981   6.495   0.139  10.318  0.0501  2.0127 -0.7230
  596TIP3   OH225982   1.386   5.368  10.805  0.2176 -0.3631 -0.3750
  596TIP3    H125983   1.409   5.288  10.759 -1.0448 -1.9856  1.6721
  596TIP3    H225984   1.290   5.370  10.804  0.1475 -0.3706  1.9526
  597TIP3   OH225985   1.248   0.924   8.642  0.0958 -0.1756  0.0661
  597TIP3    H125986   1.269   0.831   8.632  1.9917  0.3257 -1.0586
  597TIP3    H225987   1.197   0.946   8.564  0.4240 -0.0779 -0.1227
  598TIP3   OH225988   2.900   3.168   8.970  0.2917 -0.1190  0.2508
  598TIP3    H125989   2.864   3.184   8.883 -1.8643  0.9252  1.2548
  598TIP3    H225990   2.886   3.250   9.018  2.0290 -0.4463  1.4210
  599TIP3   OH225991   5.575   6.512  10.344 -0.9947  0.0435 -0.1104
  599TIP3    H125992   5.531   6.593  10.371 -0.4702 -0.1949  1.5271
  599TIP3    H225993   5.570   6.455  10.421  1.5620 -0.2486 -0.0868
  600TIP3   OH225994   0.480   7.579  10.611  0.1577  0.7998  0.6317
  600TIP3    H125995   0.411   7.513  10.623 -0.1263  0.8890 -0.4560
  600TIP3    H225996   0.560   7.528  10.598  0.2994  0.6954  1.7600
  601TIP3   OH225997   3.879   2.615   9.746  0.6655 -0.1065  0.1788
  601TIP3    H125998   3.843   2.699   9.717 -1.4538 -1.1122 -0.2666
  601TIP3    H225999   3.915   2.634   9.833 -0.9165  1.0097  0.6363
  602TIP3   OH226000   4.797   3.799   9.528 -0.5535  0.7264  0.3737
  602TIP3    H126001   4.729   3.857   9.494 -1.4732 -0.6596 -0.2659
  602TIP3    H226002   4.814   3.738   9.457  1.9450  1.4731  0.2459
  603TIP3   OH226003   1.408   1.416   8.899  0.3037  0.3033 -0.1499
  603TIP3    H126004   1.415   1.323   8.880  0.5502  0.4206 -0.6438
  603TIP3    H226005   1.316   1.437   8.882 -0.1706 -0.1990  1.6005
  604TIP3   OH226006   5.516   3.537   8.651  0.1703 -0.4736  0.0709
  604TIP3    H126007   5.427   3.551   8.621  0.6659 -0.1340 -1.2973
  604TIP3    H226008   5.520   3.444   8.672 -0.6040 -0.4099  0.5411
  605TIP3   OH226009   2.996   0.254   9.491 -0.8979  0.1257  0.1645
  605TIP3    H126010   2.912   0.287   9.521 -1.3884 -1.2384  0.3771
  605TIP3    H226011   2.984   0.240   9.397 -1.9241 -2.6889  0.5883
  606TIP3   OH226012   6.405   4.338   9.271 -0.1969  0.4116  0.3307
  606TIP3    H126013   6.332   4.398   9.284 -0.2253  0.3975  0.2354
  606TIP3    H226014   6.398   4.310   9.180  1.4985  2.4822 -0.5106
  607TIP3   OH226015   5.605   5.520   8.910  0.2744 -0.2183  0.7904
  607TIP3    H126016   5.649   5.435   8.908  0.7102  0.0220  0.0349
  607TIP3    H226017   5.631   5.563   8.829 -3.0975 -0.9598 -0.8778
  608TIP3   OH226018   4.104   5.530   9.875  0.1128  0.0273  0.0883
  608TIP3    H126019   4.148   5.450   9.847 -0.7527  0.1654 -1.8169
  608TIP3    H226020   4.022   5.500   9.915 -0.1230 -0.0645 -0.4521
  609TIP3   OH226021   1.330   0.662   9.273 -0.2392  0.1998 -0.7399
  609TIP3    H126022   1.411   0.672   9.324 -0.5041  1.2222 -0.5009
  609TIP3    H226023   1.275   0.603   9.325 -0.1192  0.4529 -0.3260
  610TIP3   OH226024   1.793   5.311  10.290 -0.0703 -0.0700  0.4862
  610TIP3    H126025   1.706   5.336  10.258 -0.2362 -0.8938  0.2858
  610TIP3    H226026   1.854   5.355  10.229 -0.3759 -0.9464 -0.4798
  611TIP3   OH226027   6.368   2.236   8.708  0.3122 -0.0708  0.3420
  611TIP3    H126028   6.359   2.141   8.703  0.9384 -0.2262  1.5710
  611TIP3    H226029   6.461   2.250   8.723  0.4822  0.8461 -1.3517
  612TIP3   OH226030   1.728   1.478   9.015 -0.1613  0.6387 -0.2624
  612TIP3    H126031   1.822   1.485   9.027  0.0223 -1.9060  0.3705
  612TIP3    H226032   1.716   1.471   8.921  0.6735 -2.3144 -0.2310
  613TIP3   OH226033   2.561   2.328   9.895  0.0832 -0.0476 -0.0917
  613TIP3    H126034   2.589   2.337   9.803 -0.7198 -0.7068 -0.4136
  613TIP3    H226035   2.466   2.315   9.890  0.0155  0.0229  0.8470
  614TIP3   OH226036   4.147   1.433  10.540 -0.3385 -0.3826  0.1693
  614TIP3    H126037   4.240   1.422  10.522 -0.3686  0.2543 -0.4265
  614TIP3    H226038   4.110   1.345  10.527 -0.2170 -0.1546 -2.1693
  615TIP3   OH226039   5.260   1.732   8.959  0.0692  0.0505 -0.1853
  615TIP3    H126040   5.183   1.712   8.905  0.9969 -0.4302 -1.3672
  615TIP3    H226041   5.327   1.758   8.896  1.1400 -0.3712  0.7563
  616TIP3   OH226042   7.268   6.434   9.576 -0.2181 -0.1670  0.0035
  616TIP3    H126043   7.333   6.413   9.644 -1.1400  0.0033  0.9782
  616TIP3    H226044   7.318   6.475   9.506  0.8844 -1.0781  0.2350
  617TIP3   OH226045   4.937   1.403   9.547  0.0349 -0.4858  0.3306
  617TIP3    H126046   5.029   1.380   9.536 -0.1707 -1.8675  1.2562
  617TIP3    H226047   4.891   1.349   9.483 -0.1667  0.0503  0.0123
  618TIP3   OH226048   7.513   6.063   9.393 -0.2937  0.2108 -0.5463
  618TIP3    H126049   7.563   5.982   9.407 -0.4941 -0.0718 -1.3771
  618TIP3    H226050   7.580   6.130   9.380 -0.0323  0.7962  2.8921
  619TIP3   OH226051   5.186   3.424  10.678  0.4620 -0.1504 -0.1933
  619TIP3    H126052   5.236   3.359  10.727 -0.9789 -0.4665  0.9408
  619TIP3    H226053   5.117   3.374  10.635  0.3985  0.4107 -0.7542
  620TIP3   OH226054   1.882   0.131  10.418  0.5670  0.0689 -0.0812
  620TIP3    H126055   1.893   0.069  10.347  1.5268 -1.5381  1.3984
  620TIP3    H226056   1.797   0.173  10.401 -1.4128 -3.4450  0.1590
  621TIP3   OH226057   0.531   5.969  10.221  0.5121 -0.1766 -0.3255
  621TIP3    H126058   0.550   6.048  10.271 -0.4355 -0.8514  1.1566
  621TIP3    H226059   0.435   5.965  10.216  0.4886 -1.8552  0.7040
  622TIP3   OH226060   5.364   3.587   9.326 -0.6387 -0.2443 -0.1048
  622TIP3    H126061   5.369   3.494   9.301  0.6812 -0.4029  0.6221
  622TIP3    H226062   5.449   3.622   9.302 -1.4873  1.0542 -1.3071
  623TIP3   OH226063   7.228   3.392   9.740  0.1354  0.5563 -0.1280
  623TIP3    H126064   7.144   3.385   9.786  0.2590  0.3243  0.0618
  623TIP3    H226065   7.282   3.448   9.796  0.7977 -0.9327  0.7719
  624TIP3   OH226066   5.069   1.602   8.572 -0.5646 -0.3470  0.3844
  624TIP3    H126067   5.139   1.538   8.582  0.8884  0.5747 -2.6801
  624TIP3    H226068   5.000   1.555   8.524 -0.7363 -0.4149  0.6981
  625TIP3   OH226069   3.989   4.537  11.073  0.3576  0.3909 -0.4412
  625TIP3    H126070   3.907   4.581  11.094  0.9901  1.9008 -0.9939
  625TIP3    H226071   3.964   4.449  11.045 -1.1222  1.0275 -1.1922
  626TIP3   OH226072   0.353   1.728  10.102 -0.2333 -0.0962  0.3166
  626TIP3    H126073   0.359   1.634  10.087  0.2388 -0.1228  0.6373
  626TIP3    H226074   0.261   1.743  10.124 -0.8154 -0.1637 -1.7806
  627TIP3   OH226075   1.742   0.394  10.549 -0.4183  0.3204 -0.2039
  627TIP3    H126076   1.783   0.477  10.526  1.2238 -0.7911 -1.5272
  627TIP3    H226077   1.651   0.404  10.524 -0.4243  1.9669  0.3737
  628TIP3   OH226078   7.117   5.573  10.407  0.3123  0.2196 -0.5057
  628TIP3    H126079   7.042   5.525  10.441 -1.1386  3.2864  0.9811
  628TIP3    H226080   7.185   5.561  10.474 -0.4240  1.1136  0.4278
  629TIP3   OH226081   5.920   1.756  10.704 -0.4448  0.6946 -0.3018
  629TIP3    H126082   5.885   1.678  10.746 -0.7857  1.8194  1.5795
  629TIP3    H226083   5.849   1.820  10.706 -0.2547  1.0175 -2.0392
  630TIP3   OH226084   6.103   4.822  10.002  0.5046 -0.3477 -0.0672
  630TIP3    H126085   6.047   4.895   9.977 -0.1867 -0.6808  0.4658
  630TIP3    H226086   6.054   4.777  10.071  1.3820 -0.7186  0.3244
  631TIP3   OH226087   6.190   2.375   9.170  0.2958  0.5358  0.1368
  631TIP3    H126088   6.269   2.338   9.130 -1.5775 -3.0129 -0.7533
  631TIP3    H226089   6.155   2.435   9.104  0.4685 -0.5605 -0.9887
  632TIP3   OH226090   2.631   3.298   8.293 -0.2064 -0.4121  0.0881
  632TIP3    H126091   2.542   3.267   8.307 -0.1410 -2.8391 -3.5489
  632TIP3    H226092   2.686   3.231   8.332 -0.0856 -1.6126 -1.9776
  633TIP3   OH226093   3.518   6.402   8.434 -0.3140 -0.1520  0.0758
  633TIP3    H126094   3.470   6.404   8.518  0.0352  3.6098  0.3844
  633TIP3    H226095   3.564   6.319   8.435 -2.5039 -1.5074  2.3062
  634TIP3   OH226096   0.239   3.393  10.700  0.6880 -0.0823  0.1314
  634TIP3    H126097   0.148   3.421  10.711  0.7215 -0.2103  0.7614
  634TIP3    H226098   0.233   3.299  10.683  0.4790  0.4277 -3.3472
  635TIP3   OH226099   0.962   6.336   9.557 -0.0242 -0.0638  0.7605
  635TIP3    H126100   0.966   6.401   9.486  1.7606  0.2862  1.1443
  635TIP3    H226101   0.880   6.290   9.541 -0.5893  1.2476 -0.4383
  636TIP3   OH226102   4.253   2.102  10.620 -0.3500  0.2446 -0.0030
  636TIP3    H126103   4.217   2.187  10.644  0.9521  0.9124 -0.3156
  636TIP3    H226104   4.226   2.090  10.529 -0.1962  0.5243 -0.0883
  637TIP3   OH226105   5.705   0.820   9.615 -0.2703  0.0375 -0.5984
  637TIP3    H126106   5.648   0.896   9.602  1.3055  1.3369 -0.3073
  637TIP3    H226107   5.698   0.769   9.535 -0.2593  1.2822 -1.4058
  638TIP3   OH226108   1.850   0.245   8.391 -0.2519 -0.2688  0.3748
  638TIP3    H126109   1.771   0.194   8.375 -0.6924  0.7302 -0.7888
  638TIP3    H226110   1.841   0.322   8.335  1.2472  0.1864  0.7039
  639TIP3   OH226111   5.002   3.126   9.292  0.0048  0.5749 -0.8173
  639TIP3    H126112   5.085   3.172   9.281 -0.0172  0.2971 -2.3168
  639TIP3    H226113   4.952   3.148   9.214 -2.0829  2.1970  0.8677
  640TIP3   OH226114   4.969   5.806  10.293 -0.4399  0.2108  0.0934
  640TIP3    H126115   4.891   5.823  10.345 -0.0110  0.0192  0.7993
  640TIP3    H226116   5.036   5.862  10.331 -0.3199  0.6759 -0.7585
  641TIP3   OH226117   3.748   4.297   9.995  0.3105 -0.2937  0.3410
  641TIP3    H126118   3.744   4.272   9.903  1.1329  0.6430  0.0251
  641TIP3    H226119   3.841   4.289  10.018  0.1807 -0.0934  0.9583
  642TIP3   OH226120   7.306   1.441   9.762  0.1931 -0.3313  0.0686
  642TIP3    H126121   7.295   1.359   9.714 -1.1147 -0.0879 -0.0803
  642TIP3    H226122   7.333   1.414   9.850 -0.0564 -0.9165 -0.0309
  643TIP3   OH226123   5.194   6.895  10.345  0.1977  0.1760  0.0071
  643TIP3    H126124   5.233   6.819  10.386  0.8312  0.0103 -0.8595
  643TIP3    H226125   5.237   6.970  10.387 -0.0389  0.0406  0.4870
  644TIP3   OH226126   3.048   3.577  10.264  0.5355 -0.3578  0.2562
  644TIP3    H126127   2.999   3.562  10.344  1.7985 -1.3290  0.8915
  644TIP3    H226128   3.089   3.662  10.277  0.1065 -0.1544  0.2937
  645TIP3   OH226129   4.883   2.198   8.267  0.0628  0.1080  0.7419
  645TIP3    H126130   4.879   2.281   8.314 -1.8262 -0.2835  1.3615
  645TIP3    H226131   4.882   2.132   8.335  0.1240 -0.4418  0.2191
  646TIP3   OH226132   5.284   4.720  10.532  0.4432  0.1364  0.1645
  646TIP3    H126133   5.210   4.686  10.481 -1.1488  1.4743  1.4656
  646TIP3    H226134   5.310   4.799  10.484  0.2329  0.3177  0.3459
  647TIP3   OH226135   2.822   2.903  11.034 -0.5225 -0.1102 -0.1213
  647TIP3    H126136   2.892   2.839  11.018 -1.0316 -0.7693  0.2188
  647TIP3    H226137   2.867   2.986  11.043  0.1530 -0.4079 -0.6574
  648TIP3   OH226138   3.400   6.126   9.918 -0.1580  0.2780  0.6869
  648TIP3    H126139   3.396   6.068   9.842  0.4917  1.3030 -0.1483
  648TIP3    H226140   3.327   6.188   9.906  1.3852  1.9637 -0.4068
  649TIP3   OH226141   4.234   3.300   8.969  0.1198 -0.2716 -0.5203
  649TIP3    H126142   4.200   3.385   8.943  2.2231  0.0698 -2.4088
  649TIP3    H226143   4.329   3.311   8.973  0.4034 -2.3559 -0.1033
  650TIP3   OH226144   5.119   1.366  11.159  0.0819  0.4083  0.1203
  650TIP3    H126145   5.201   1.347  11.204 -0.1244 -0.4811  0.1436
  650TIP3    H226146   5.068   1.285  11.168 -0.1702  0.3907 -1.2780
  651TIP3   OH226147   0.996   1.202  10.328 -0.2421  0.0085 -0.5881
  651TIP3    H126148   0.967   1.169  10.243 -0.4307 -2.1158  0.2432
  651TIP3    H226149   0.965   1.136  10.391 -0.0957  1.5133  1.1360
  652TIP3   OH226150   7.501   5.174   9.450 -0.1655  0.1168  0.3765
  652TIP3    H126151   7.474   5.259   9.484  1.0224  0.7190 -0.1057
  652TIP3    H226152   7.593   5.186   9.426 -0.4353 -0.8014 -1.2999
  653TIP3   OH226153   2.974   7.218  10.089 -0.2310  0.2262  0.0068
  653TIP3    H126154   2.889   7.238  10.050  0.3506  1.3002 -0.7334
  653TIP3    H226155   3.005   7.142  10.040 -0.7847 -0.2216  0.3324
  654TIP3   OH226156   1.518   4.380  10.834 -0.5370 -0.0108  0.3682
  654TIP3    H126157   1.437   4.384  10.885 -2.2430 -0.7627 -2.1225
  654TIP3    H226158   1.533   4.469  10.804 -2.2215 -0.3187 -1.6316
  655TIP3   OH226159   5.027   2.402   9.954  0.0159 -0.2734 -0.5247
  655TIP3    H126160   5.036   2.307   9.942  0.6517 -0.1574 -1.0157
  655TIP3    H226161   5.088   2.423  10.024 -0.9142 -0.3773  0.3380
  656TIP3   OH226162   0.187   0.104   8.923  0.2268  0.3112 -0.1690
  656TIP3    H126163   0.253   0.104   8.853  0.8274  0.3745  0.3880
  656TIP3    H226164   0.127   0.033   8.899  0.6026  0.1316 -0.5886
  657TIP3   OH226165   6.084   0.591  11.084  0.2974  0.4658 -0.2634
  657TIP3    H126166   6.152   0.610  11.019 -0.9038  0.4003 -1.5858
  657TIP3    H226167   6.018   0.659  11.071  0.3539  0.8944  1.4172
  658TIP3   OH226168   4.667   7.056  10.362  0.7374 -0.6587 -0.5970
  658TIP3    H126169   4.759   7.075  10.343  1.4584 -0.5504  2.4452
  658TIP3    H226170   4.633   7.139  10.398  0.3803 -1.5302  1.1852
  659TIP3   OH226171   5.267   1.351  10.268  0.4102 -0.0561  0.0139
  659TIP3    H126172   5.244   1.402  10.346  1.0254  0.7134 -0.2962
  659TIP3    H226173   5.247   1.410  10.195 -0.1198 -0.7542 -0.4172
  660TIP3   OH226174   4.668   1.372  11.045  0.2462  0.0839  0.6421
  660TIP3    H126175   4.671   1.428  11.123 -2.0157 -1.3752  1.8800
  660TIP3    H226176   4.575   1.352  11.033  0.7579 -1.5316 -1.1267
  661TIP3   OH226177   5.317   6.427   8.883  0.7163 -0.0742 -0.5183
  661TIP3    H126178   5.316   6.444   8.977  1.0873 -2.0803 -0.0918
  661TIP3    H226179   5.226   6.406   8.862  0.6003  0.5552 -0.6515
  662TIP3   OH226180   2.979   0.210   9.231 -0.2249  0.8250  0.4647
  662TIP3    H126181   2.945   0.277   9.172  1.7376  0.6693 -0.9773
  662TIP3    H226182   2.967   0.127   9.183  3.0019  0.8656 -0.7203
  663TIP3   OH226183   5.195   3.515   8.576  0.0775 -0.0700 -0.6489
  663TIP3    H126184   5.195   3.607   8.603  1.8554 -0.0509 -0.5626
  663TIP3    H226185   5.125   3.509   8.511  1.1511  1.8345 -2.1092
  664TIP3   OH226186   4.339   0.463   8.831  0.0152  0.3589 -0.1753
  664TIP3    H126187   4.288   0.485   8.753  0.5686 -1.5948 -1.1742
  664TIP3    H226188   4.427   0.493   8.811  0.0148  0.4655 -0.0138
  665TIP3   OH226189   4.289   3.692  10.088 -0.4794 -0.1589  0.1260
  665TIP3    H126190   4.223   3.702  10.019 -1.1226  0.7772  0.8500
  665TIP3    H226191   4.241   3.708  10.169 -0.0106 -2.5026  0.9172
  666TIP3   OH226192   6.416   6.098  10.670 -0.3047  0.2008  0.4596
  666TIP3    H126193   6.507   6.077  10.691 -0.7250 -2.2441  0.1323
  666TIP3    H226194   6.421   6.139  10.584  0.4694 -0.3583  0.2207
  667TIP3   OH226195   5.047   0.954   8.581 -0.3142 -0.5050  0.1823
  667TIP3    H126196   5.125   0.998   8.547 -0.2745 -0.9100 -0.2479
  667TIP3    H226197   5.063   0.950   8.676  0.0382 -0.2958  0.1375
  668TIP3   OH226198   3.236   0.441   8.931 -0.1234  0.0599 -0.1927
  668TIP3    H126199   3.167   0.477   8.988 -0.6293  0.4524 -1.0349
  668TIP3    H226200   3.266   0.363   8.977  0.9063  1.4470  1.6303
  669TIP3   OH226201   7.158   0.626   9.096  0.2146  0.3865  0.3032
  669TIP3    H126202   7.071   0.588   9.111  0.0798  0.3775 -0.4522
  669TIP3    H226203   7.151   0.715   9.131 -0.5319  0.8459 -0.9400
  670TIP3   OH226204   0.868   1.741  10.080  0.1533  0.4808  0.1354
  670TIP3    H126205   0.887   1.745  10.174 -2.3999 -2.0318  0.8773
  670TIP3    H226206   0.783   1.786  10.071  0.6855  1.2952 -1.1347
  671TIP3   OH226207   7.360   3.574   9.892 -0.0031  0.3327  0.8235
  671TIP3    H126208   7.297   3.608   9.956  1.2333  0.4584  2.0279
  671TIP3    H226209   7.445   3.608   9.922  0.5708  0.8670 -1.2171
  672TIP3   OH226210   4.222   6.848  10.484 -0.8710 -0.0036 -0.6322
  672TIP3    H126211   4.317   6.859  10.485 -0.4338 -2.9707  1.1420
  672TIP3    H226212   4.207   6.769  10.431 -2.3562  0.3288 -0.7670
  673TIP3   OH226213   3.331   4.325   8.343  0.0835 -0.6183  0.3603
  673TIP3    H126214   3.280   4.253   8.306  0.3654 -0.1151 -1.0647
  673TIP3    H226215   3.335   4.306   8.437 -0.2542 -2.1888  0.0783
  674TIP3   OH226216   0.530   0.516   9.034 -0.6157  0.6206 -0.1157
  674TIP3    H126217   0.492   0.510   9.122 -1.0197  1.2956 -0.2387
  674TIP3    H226218   0.602   0.579   9.044  0.6934 -0.8657  0.1815
  675TIP3   OH226219   5.965   6.826   8.864  0.0136 -0.2714  0.4283
  675TIP3    H126220   5.924   6.752   8.908  0.8470  0.1998  2.1184
  675TIP3    H226221   6.054   6.797   8.845 -0.1658 -0.2678 -0.4340
  676TIP3   OH226222   5.694   0.614   9.033  0.4610  0.3369  0.0122
  676TIP3    H126223   5.725   0.539   9.084 -0.3752  0.1460  0.2474
  676TIP3    H226224   5.769   0.674   9.032  2.2296 -1.6568 -2.5932
  677TIP3   OH226225   6.793   0.975   9.136 -0.6397  0.4017 -0.2626
  677TIP3    H126226   6.759   0.932   9.058  0.6256 -1.8669  0.3158
  677TIP3    H226227   6.715   0.997   9.187 -1.4896  2.0234 -2.1536
  678TIP3   OH226228   4.877   3.668  10.794 -0.0410 -0.0318 -0.4484
  678TIP3    H126229   4.796   3.675  10.743 -1.4105 -0.6894  1.5541
  678TIP3    H226230   4.866   3.730  10.866  0.4835 -1.3409  0.7970
  679TIP3   OH226231   4.135   0.635  10.482 -0.0483 -0.5913  0.0334
  679TIP3    H126232   4.097   0.692  10.415  1.6244  1.0792  0.4274
  679TIP3    H226233   4.211   0.596  10.439  0.1621 -0.6980  0.5044
  680TIP3   OH226234   4.091   7.541  10.680  0.1299 -0.1024  1.1025
  680TIP3    H126235   4.133   7.618  10.642 -0.5496 -0.1420  0.2373
  680TIP3    H226236   4.123   7.538  10.770  2.3779 -0.4232  0.3655
  681TIP3   OH226237   6.398   2.191  11.077  0.0873  0.2084  0.6256
  681TIP3    H126238   6.445   2.108  11.088 -0.8842 -0.3151  0.9393
  681TIP3    H226239   6.453   2.255  11.123  0.7478 -0.2868  0.5554
  682TIP3   OH226240   3.240   6.730  11.329  0.5933 -0.5306  0.2747
  682TIP3    H126241   3.314   6.772  11.286 -0.5663  0.2475 -1.0298
  682TIP3    H226242   3.276   6.699  11.412  2.3904 -0.2429 -0.3363
  683TIP3   OH226243   0.587   7.302  10.419  0.6900 -0.0393  0.2654
  683TIP3    H126244   0.537   7.354  10.356  1.3736  2.5542  1.7217
  683TIP3    H226245   0.656   7.262  10.367  0.2290  0.6342 -0.9149
  684TIP3   OH226246   2.480   3.586   9.993 -0.1662  0.0336 -0.1579
  684TIP3    H126247   2.399   3.615   9.949 -0.5776 -1.0340 -0.1553
  684TIP3    H226248   2.449   3.534  10.068  0.5345  1.1979  0.9675
  685TIP3   OH226249   2.549   5.512   9.665  0.1079  0.1528  0.6362
  685TIP3    H126250   2.455   5.499   9.651 -0.1714  0.9932  1.6155
  685TIP3    H226251   2.578   5.431   9.708 -0.6507  0.7710  2.3863
  686TIP3   OH226252   7.102   1.686  10.203 -0.2770 -0.7298 -0.3977
  686TIP3    H126253   7.177   1.640  10.239  1.1770 -0.6930 -3.1111
  686TIP3    H226254   7.035   1.619  10.192 -0.6439 -0.7998  1.8607
  687TIP3   OH226255   5.529   5.934   8.926 -0.3465 -0.4000 -0.1120
  687TIP3    H126256   5.496   6.020   8.902 -1.9806 -1.2479 -1.1453
  687TIP3    H226257   5.616   5.929   8.886  0.9641  1.6902  2.2082
  688TIP3   OH226258   0.913   1.062  10.540  0.1637  0.3659  0.4178
  688TIP3    H126259   0.927   1.044  10.633 -1.3993  1.1861  0.8438
  688TIP3    H226260   0.820   1.048  10.527  0.4297 -0.0942 -1.1250
  689TIP3   OH226261   2.971   1.187  10.143  0.4637  0.0445 -0.0561
  689TIP3    H126262   3.066   1.199  10.136  0.4101  0.4598 -0.0832
  689TIP3    H226263   2.948   1.135  10.066  0.4610  1.1926 -0.8521
  690TIP3   OH226264   5.579   4.121  10.564 -0.5813 -0.0778  0.2486
  690TIP3    H126265   5.605   4.213  10.555 -0.3694  0.0098  1.6158
  690TIP3    H226266   5.660   4.072  10.550 -0.5136 -0.0154  0.4241
  691TIP3   OH226267   0.261   6.711   9.344  0.3354  0.5561 -0.0119
  691TIP3    H126268   0.353   6.705   9.319 -0.0911  0.9643 -1.8109
  691TIP3    H226269   0.223   6.773   9.282 -0.7925  1.8423  1.8209
  692TIP3   OH226270   4.920   3.398   8.170 -0.2743  0.4028 -0.6721
  692TIP3    H126271   5.010   3.367   8.154  0.0696  1.1308 -0.2025
  692TIP3    H226272   4.871   3.371   8.093  0.5749  0.8631 -1.3821
  693TIP3   OH226273   6.241   3.428   9.851 -0.7444 -0.4293 -0.2800
  693TIP3    H126274   6.252   3.487   9.925 -2.2377  0.4415 -0.7111
  693TIP3    H226275   6.287   3.348   9.877 -1.6656 -0.3375  1.8147
  694TIP3   OH226276   4.966   6.105   9.983  0.1928 -0.0347  0.1800
  694TIP3    H126277   4.955   6.131   9.892 -1.5194 -0.2293  0.2934
  694TIP3    H226278   4.904   6.033   9.995 -0.5756  0.8395  1.8281
  695TIP3   OH226279   3.364   0.855   9.173  0.0080  0.8331  0.8580
  695TIP3    H126280   3.353   0.796   9.098 -0.8590  1.5681  0.3926
  695TIP3    H226281   3.445   0.825   9.215  0.6419  0.5560 -0.5006
  696TIP3   OH226282   6.268   5.052  10.586 -0.6060  0.5770  0.4261
  696TIP3    H126283   6.208   4.978  10.598 -0.7348  0.8328  1.4414
  696TIP3    H226284   6.347   5.013  10.550 -0.8702  0.0206  0.4358
  697TIP3   OH226285   1.135   1.591   9.614 -0.3361  0.8397 -0.6131
  697TIP3    H126286   1.117   1.585   9.520  0.0038  0.1154 -0.6405
  697TIP3    H226287   1.055   1.628   9.651 -0.3424  1.4530 -1.2282
  698TIP3   OH226288   4.418   0.269   9.546 -0.1890  0.0356  0.1873
  698TIP3    H126289   4.331   0.288   9.582 -0.6365  0.1621 -0.9331
  698TIP3    H226290   4.468   0.349   9.563  0.1364 -0.5304  2.0527
  699TIP3   OH226291   3.239   5.702  10.249 -0.7387  0.0868  0.4905
  699TIP3    H126292   3.253   5.772  10.185  3.9014  0.8380  1.9764
  699TIP3    H226293   3.281   5.626  10.210 -0.1401 -0.1324  1.5376
  700TIP3   OH226294   7.462   5.712  10.584  0.4937  0.4815  0.0374
  700TIP3    H126295   7.452   5.685  10.675 -0.4644  0.6036 -0.0188
  700TIP3    H226296   7.374   5.740  10.557  0.2704 -1.5364 -1.5734
  701TIP3   OH226297   4.231   6.329  11.150 -0.0758 -0.6885 -0.4458
  701TIP3    H126298   4.152   6.349  11.200 -0.1693 -1.1929 -0.3936
  701TIP3    H226299   4.214   6.366  11.064  0.4188  0.9223  0.1080
  702TIP3   OH226300   1.359   0.042   9.652 -0.0451 -0.1007 -0.0894
  702TIP3    H126301   1.415   0.101   9.602  1.5421 -1.4070  0.0706
  702TIP3    H226302   1.417   0.003   9.717 -0.8406 -2.4210 -0.6845
  703TIP3   OH226303   6.871   5.377   9.550  0.4554  0.1444  0.0725
  703TIP3    H126304   6.823   5.312   9.601 -1.0577  0.1822 -1.2045
  703TIP3    H226305   6.854   5.460   9.595  2.8089 -0.3013  2.0029
  704TIP3   OH226306   2.053   1.448  10.389  0.1829  0.0163  0.0598
  704TIP3    H126307   2.147   1.433  10.389  0.3998  1.1889  1.2889
  704TIP3    H226308   2.043   1.543  10.391 -1.0012 -0.0986  1.0753
  705TIP3   OH226309   5.917   7.236   9.505  0.0984 -0.1690 -0.3762
  705TIP3    H126310   5.914   7.228   9.410 -0.9260  0.3399 -0.4070
  705TIP3    H226311   5.830   7.269   9.529  0.2712 -0.4735  0.7510
  706TIP3   OH226312   0.391   5.236   9.437 -0.1284  0.0563 -0.0321
  706TIP3    H126313   0.486   5.232   9.430 -0.1189 -1.8432  0.5665
  706TIP3    H226314   0.367   5.315   9.389  1.5834 -0.6207 -2.1842
  707TIP3   OH226315   2.967   2.772   9.948  0.0418  0.1807 -0.2540
  707TIP3    H126316   2.928   2.694   9.908 -0.6480  0.2742  0.2229
  707TIP3    H226317   3.061   2.754   9.946 -0.1527 -1.2224  0.9416
  708TIP3   OH226318   3.766   2.436  10.995 -0.0983  0.2959 -0.3553
  708TIP3    H126319   3.774   2.528  11.021 -0.3285 -0.3396  2.1958
  708TIP3    H226320   3.808   2.432  10.909 -0.1767  2.7915 -0.5826
  709TIP3   OH226321   7.445   0.295  11.068 -0.3157  0.2233 -0.0880
  709TIP3    H126322   7.377   0.242  11.110  1.0723 -0.2323  1.7271
  709TIP3    H226323   7.402   0.334  10.992 -2.6211  0.0539  1.0530
  710TIP3   OH226324   7.412   4.294  10.640 -0.1135 -0.2055  0.5000
  710TIP3    H126325   7.501   4.307  10.610 -0.9700 -1.7808 -3.2808
  710TIP3    H226326   7.366   4.375  10.615 -0.2948 -0.5097 -0.1779
  711TIP3   OH226327   6.598   1.046  11.210  0.0018  0.0390 -0.2312
  711TIP3    H126328   6.667   1.089  11.260 -0.0327  0.5541 -0.6229
  711TIP3    H226329   6.594   0.958  11.246 -1.0203  0.8033  1.7307
  712TIP3   OH226330   0.424   3.261  10.380  0.4625 -0.0518 -0.1359
  712TIP3    H126331   0.437   3.251  10.474  1.8959  2.2247 -0.0033
  712TIP3    H226332   0.397   3.175  10.349  0.0975 -0.8769  2.3288
  713TIP3   OH226333   2.304   2.280  10.623 -0.1334 -0.1345 -0.3371
  713TIP3    H126334   2.231   2.274  10.562  0.8494  0.2616 -1.5967
  713TIP3    H226335   2.266   2.317  10.703 -1.1871  0.7042 -1.2000
  714TIP3   OH226336   4.578   0.628   9.027  0.3967  0.0492  0.0829
  714TIP3    H126337   4.534   0.686   8.964 -1.0350  1.2035  2.0203
  714TIP3    H226338   4.666   0.664   9.035  0.1950  0.6492 -0.3042
  715TIP3   OH226339   6.041   5.899   8.617  0.2987  0.7133  0.3629
  715TIP3    H126340   5.966   5.959   8.615  0.4970  1.1336  2.4358
  715TIP3    H226341   6.116   5.954   8.595  0.3568  1.0383  1.3119
  716TIP3   OH226342   3.481   2.285   9.791 -0.4554 -0.5221 -0.1071
  716TIP3    H126343   3.561   2.322   9.753 -1.6949  2.8651  0.2409
  716TIP3    H226344   3.511   2.246   9.873  1.1649 -1.4714 -1.0945
  717TIP3   OH226345   6.488   7.000  10.711 -0.2106 -0.6666 -0.4146
  717TIP3    H126346   6.447   6.917  10.737  0.5191 -0.8153  0.2614
  717TIP3    H226347   6.539   6.977  10.633  0.8327 -1.0966  0.3730
  718TIP3   OH226348   5.610   3.719   9.324  0.6563 -0.4339  0.2204
  718TIP3    H126349   5.697   3.702   9.360  1.0676  0.8601 -0.1277
  718TIP3    H226350   5.611   3.811   9.299 -1.6628  0.3426  2.5586
  719TIP3   OH226351   3.158   1.451   9.937  0.0391  0.6549 -0.1745
  719TIP3    H126352   3.064   1.454   9.955  0.2020 -0.0191  0.8982
  719TIP3    H226353   3.168   1.497   9.854 -1.3819 -0.3019 -0.9253
  720TIP3   OH226354   4.765   3.511   9.171  0.3017 -0.2168 -0.2672
  720TIP3    H126355   4.728   3.527   9.085  2.5080 -0.4570 -1.3222
  720TIP3    H226356   4.836   3.575   9.179  0.0973 -0.1527  1.4110
  721TIP3   OH226357   7.522   5.600  10.080 -0.1839  0.3917 -0.4689
  721TIP3    H126358   7.487   5.618  10.167 -1.1844 -1.2536 -0.4819
  721TIP3    H226359   7.447   5.612  10.021 -0.1755 -0.9143 -0.7809
  722TIP3   OH226360   3.181   6.286   9.944  0.2365  0.4765  0.3998
  722TIP3    H126361   3.128   6.358   9.979  0.6633  1.2634 -0.5192
  722TIP3    H226362   3.119   6.214   9.933 -1.1760  1.9552 -2.4830
  723TIP3   OH226363   0.806   6.728  10.268 -0.3970 -0.6216  0.2273
  723TIP3    H126364   0.746   6.803  10.262  1.2191  0.8254  1.2217
  723TIP3    H226365   0.750   6.654  10.291 -1.9282  0.4489  0.0996
  724TIP3   OH226366   5.273   1.115   9.180  0.0948  0.0032  0.3044
  724TIP3    H126367   5.207   1.184   9.172  0.1110 -0.0353 -0.2258
  724TIP3    H226368   5.318   1.116   9.095 -1.0666 -1.8555 -0.3942
  725TIP3   OH226369   6.291   1.888   9.592 -0.2972 -0.2305 -0.3753
  725TIP3    H126370   6.240   1.846   9.523 -0.1137 -2.1952  0.6064
  725TIP3    H226371   6.243   1.868   9.672  1.8124 -2.0193  0.5695
  726TIP3   OH226372   7.521   0.584  10.004  0.5137  0.2047  0.5368
  726TIP3    H126373   7.520   0.507  10.062  0.4050  0.2415  0.5834
  726TIP3    H226374   7.440   0.577   9.954 -0.1772  1.0174  1.5024
  727TIP3   OH226375   5.513   0.852  10.164  0.3569 -0.0319 -0.2286
  727TIP3    H126376   5.586   0.790  10.172 -0.3561 -0.9762 -0.8974
  727TIP3    H226377   5.553   0.937  10.179  1.1577 -0.7098  1.9337
  728TIP3   OH226378   4.639   5.180   9.317  0.5052  0.1640 -0.2219
  728TIP3    H126379   4.637   5.263   9.365  1.2612 -1.3195  2.6142
  728TIP3    H226380   4.547   5.157   9.305  0.1541 -0.6024  2.9726
  729TIP3   OH226381   0.750   5.834  10.500  0.3187  0.0685 -0.1223
  729TIP3    H126382   0.709   5.768  10.443  0.8673 -0.0956 -0.3310
  729TIP3    H226383   0.679   5.896  10.518 -0.5950 -1.2936  1.2133
  730TIP3   OH226384   7.212   2.591  10.493 -0.1636 -0.0437 -0.2038
  730TIP3    H126385   7.285   2.632  10.446 -0.5116  0.9639  0.1125
  730TIP3    H226386   7.134   2.616  10.442 -0.2619 -1.5113 -0.8181
  731TIP3   OH226387   7.509   4.237  10.091 -0.1092  0.6545  0.0891
  731TIP3    H126388   7.443   4.169  10.077  1.0054 -0.2847 -0.8396
  731TIP3    H226389   7.516   4.243  10.186 -1.0774  0.3199  0.1959
  732TIP3   OH226390   5.903   1.170   9.713 -0.1389 -0.2706  0.0770
  732TIP3    H126391   5.945   1.108   9.654 -0.0205 -1.1413  1.0427
  732TIP3    H226392   5.947   1.157   9.797 -2.6478 -1.6433  1.2929
  733TIP3   OH226393   6.746   3.634  10.153  0.7654  0.7021 -0.9763
  733TIP3    H126394   6.775   3.662  10.067 -0.2969  2.4222 -0.8261
  733TIP3    H226395   6.816   3.661  10.213 -0.4661  3.8280 -0.7532
  734TIP3   OH226396   6.530   2.803  11.019 -0.5710  0.5618  0.4159
  734TIP3    H126397   6.475   2.793  11.097 -0.7567  2.1619  0.5145
  734TIP3    H226398   6.570   2.717  11.007 -2.4268 -0.4115  0.8483
  735TIP3   OH226399   7.115   4.002   9.269  0.4194  0.7380  0.2959
  735TIP3    H126400   7.072   3.929   9.312  0.2284 -0.2029 -1.4133
  735TIP3    H226401   7.049   4.072   9.270  0.3343  0.6650  1.2630
  736TIP3   OH226402   2.490   5.368  10.191 -0.1082 -0.0527 -0.1329
  736TIP3    H126403   2.548   5.294  10.207 -0.2724  0.1170  1.4546
  736TIP3    H226404   2.515   5.433  10.257 -2.1777 -0.0414  0.7323
  737TIP3   OH226405   1.057   0.097  10.245 -0.1509 -0.0664  0.4880
  737TIP3    H126406   1.069   0.132  10.334  2.3174  0.7748 -0.1068
  737TIP3    H226407   1.024   0.172  10.195  0.4245  0.0531  0.2777
  738TIP3   OH226408   2.145   5.586   9.100  0.1024 -1.1511 -0.2960
  738TIP3    H126409   2.118   5.568   9.190  1.9236 -0.8135  0.3603
  738TIP3    H226410   2.240   5.573   9.100  0.5985  1.7034 -1.4008
  739TIP3   OH226411   5.171   2.999  10.508 -0.7528  0.2670  0.1645
  739TIP3    H126412   5.213   3.080  10.480 -1.7811  0.8806  0.3672
  739TIP3    H226413   5.166   2.946  10.428 -0.7131  0.6847 -0.1136
  740TIP3   OH226414   1.813   0.318   9.326  0.2584 -0.0062 -0.8733
  740TIP3    H126415   1.858   0.379   9.267 -0.0222 -0.6686 -1.7928
  740TIP3    H226416   1.865   0.321   9.406  0.6528  0.9126 -1.1458
  741TIP3   OH226417   7.460   1.919  11.080 -0.0390 -0.3027  0.3052
  741TIP3    H126418   7.500   1.871  11.152 -0.5617  0.5956  1.2169
  741TIP3    H226419   7.530   1.926  11.014  1.3595  1.2447  1.8631
  742TIP3   OH226420   6.590   1.693   8.958  0.1917 -0.0618 -0.1051
  742TIP3    H126421   6.592   1.765   9.021 -0.4059 -0.0190 -0.1268
  742TIP3    H226422   6.570   1.736   8.875 -0.5962 -0.2974 -0.0430
  743TIP3   OH226423   3.722   2.193   8.188  0.1055 -0.3068  0.7949
  743TIP3    H126424   3.707   2.262   8.123  2.1718 -0.7968 -0.2732
  743TIP3    H226425   3.645   2.137   8.182 -0.1785  0.1969 -0.5165
  744TIP3   OH226426   1.132   7.187  10.202 -0.0068 -0.4634  0.0882
  744TIP3    H126427   1.089   7.170  10.118  2.8603  1.9547 -2.0540
  744TIP3    H226428   1.130   7.282  10.211  0.1326 -0.6441  2.6337
  745TIP3   OH226429   1.344   2.913   9.214 -0.2186 -0.0519 -0.3279
  745TIP3    H126430   1.347   2.849   9.284 -0.6491 -1.2437 -1.3579
  745TIP3    H226431   1.295   2.869   9.144  0.6959  0.8770 -1.5860
  746TIP3   OH226432   5.239   4.331   9.139  0.2721 -0.0725  0.8875
  746TIP3    H126433   5.239   4.385   9.060 -0.8217 -2.4649 -0.8761
  746TIP3    H226434   5.153   4.288   9.138  1.0268 -1.7231  2.2425
  747TIP3   OH226435   2.007   1.083  10.461  0.7954  0.7131  0.3024
  747TIP3    H126436   1.989   1.162  10.512 -0.0053  1.0702 -0.5017
  747TIP3    H226437   2.102   1.084  10.449  1.0604  0.3666  2.1522
  748TIP3   OH226438   1.762   6.541   9.685 -0.2822 -0.0675 -0.0865
  748TIP3    H126439   1.851   6.507   9.676 -1.0507 -2.2904  0.0389
  748TIP3    H226440   1.772   6.636   9.689  2.1152 -0.2963  0.5201
  749TIP3   OH226441   5.347   4.411   9.830 -0.1033  0.4863 -0.1861
  749TIP3    H126442   5.296   4.419   9.911 -1.8598 -0.4571 -1.1199
  749TIP3    H226443   5.303   4.471   9.769  0.0142 -0.2263 -0.9804
  750TIP3   OH226444   1.672   7.119  11.003  0.2252  0.0475 -0.6335
  750TIP3    H126445   1.645   7.092  11.091  0.3097  0.7700 -0.3750
  750TIP3    H226446   1.596   7.101  10.948  0.6623 -1.7866 -0.7175
  751TIP3   OH226447   4.303   4.762  10.731  0.3384 -0.2289 -0.1056
  751TIP3    H126448   4.234   4.743  10.794  0.7572 -3.9127 -0.5227
  751TIP3    H226449   4.378   4.788  10.784  0.6949 -3.2666  1.1100
  752TIP3   OH226450   6.919   6.261   9.266 -0.3598 -0.1986 -0.0051
  752TIP3    H126451   6.865   6.207   9.323 -1.1198 -0.3925 -0.8829
  752TIP3    H226452   7.009   6.240   9.290 -0.6642 -0.2233  1.1509
  753TIP3   OH226453   6.644   3.766   8.372  0.0371  0.1048  0.0111
  753TIP3    H126454   6.723   3.745   8.422  0.6317  2.1280  0.0180
  753TIP3    H226455   6.676   3.815   8.296 -0.8303 -2.9122 -2.4888
  754TIP3   OH226456   1.881   4.839  10.379  0.3671 -0.9237 -0.0276
  754TIP3    H126457   1.803   4.887  10.350  0.1830 -1.1613  0.0702
  754TIP3    H226458   1.920   4.807  10.298  0.8460 -0.0742 -0.1468
  755TIP3   OH226459   4.296   4.217  10.137 -0.3212  0.0613 -0.0322
  755TIP3    H126460   4.235   4.163  10.186  1.0757 -0.7500  0.8671
  755TIP3    H226461   4.258   4.305  10.140 -1.4737 -0.4298  0.4067
  756TIP3   OH226462   4.418   4.210   9.853  0.1048 -0.8614 -0.7021
  756TIP3    H126463   4.447   4.240   9.939  1.1945  0.3682 -1.4679
  756TIP3    H226464   4.376   4.125   9.871 -2.5328  0.7165  1.4572
  757TIP3   OH226465   0.590   1.182   8.605  0.1917 -0.1578  0.3503
  757TIP3    H126466   0.595   1.249   8.536  0.5504  0.1952  0.7077
  757TIP3    H226467   0.506   1.197   8.648  0.4571  0.3635  0.7107
  758TIP3   OH226468   6.441   6.477   9.043 -0.0557 -0.2306 -0.2465
  758TIP3    H126469   6.396   6.559   9.065 -1.3542 -0.4432 -1.9279
  758TIP3    H226470   6.534   6.495   9.060 -0.5705  0.6804  1.9705
  759TIP3   OH226471   5.475   3.398   9.018 -0.5263 -0.1797 -0.4173
  759TIP3    H126472   5.410   3.367   9.082 -2.3690  0.2304 -1.9965
  759TIP3    H226473   5.468   3.336   8.946  0.2721  0.3488 -0.9569
  760TIP3   OH226474   3.324   1.242   9.836 -0.4751 -0.2051  1.0293
  760TIP3    H126475   3.384   1.303   9.880 -0.0934 -0.3183  0.6750
  760TIP3    H226476   3.238   1.280   9.848 -0.1612  0.8647  0.0954
  761TIP3   OH226477   7.375   3.898  10.271 -0.0595 -0.5051  0.0853
  761TIP3    H126478   7.446   3.885  10.334 -1.4222  0.6794  1.9622
  761TIP3    H226479   7.390   3.985  10.235 -1.3444  0.4089  1.6426
  762TIP3   OH226480   6.075   3.889  10.906  0.8023  0.4489 -0.2835
  762TIP3    H126481   6.059   3.956  10.972 -0.4013 -0.1337  0.0519
  762TIP3    H226482   6.102   3.938  10.828  0.3469  1.2959  0.0815
  763TIP3   OH226483   4.134   3.141   9.840 -0.0312 -0.8458  0.5074
  763TIP3    H126484   4.055   3.194   9.836 -1.2581 -2.6041  0.5074
  763TIP3    H226485   4.204   3.200   9.812 -1.4616  0.4998 -0.3524
  764TIP3   OH226486   5.127   6.657   8.868  0.0104 -0.6611  0.1493
  764TIP3    H126487   5.059   6.599   8.901 -0.5457  0.6463  1.4207
  764TIP3    H226488   5.169   6.692   8.946  0.2758  0.6877 -0.5601
  765TIP3   OH226489   2.465   0.433  10.205  0.1597 -0.2216 -0.0181
  765TIP3    H126490   2.507   0.406  10.286 -0.0283 -2.7604 -0.6651
  765TIP3    H226491   2.373   0.445  10.228 -0.1329 -2.1315 -0.0239
  766TIP3   OH226492   0.705   0.027  10.773 -0.0060 -0.3679 -0.1786
  766TIP3    H126493   0.696   0.023  10.868 -2.5526  0.3711 -0.3093
  766TIP3    H226494   0.781   0.083  10.757 -1.4618  2.2564  1.4646
  767TIP3   OH226495   2.921   3.698   8.057  0.6141  0.5963 -0.4491
  767TIP3    H126496   2.912   3.658   7.971 -0.8782  0.8432 -0.4386
  767TIP3    H226497   2.847   3.665   8.107 -0.3392  2.8292 -0.2476
  768TIP3   OH226498   4.538   4.759  10.529 -0.0865  0.3938 -0.1505
  768TIP3    H126499   4.492   4.787  10.450 -0.0487  0.2054 -0.2399
  768TIP3    H226500   4.483   4.689  10.565  0.1102  0.1920 -0.2381
  769TIP3   OH226501   0.256   5.871  10.257  0.0298 -0.2498  0.5553
  769TIP3    H126502   0.167   5.836  10.263  0.5223 -1.8188 -0.5014
  769TIP3    H226503   0.250   5.959  10.293 -2.0414 -0.1725  0.1525
  770TIP3   OH226504   0.853   0.239   9.577  0.0593  0.7237  0.6355
  770TIP3    H126505   0.845   0.332   9.597  0.3793  0.9183 -0.1154
  770TIP3    H226506   0.945   0.228   9.554 -0.2897  0.5293 -0.7618
  771TIP3   OH226507   6.287   1.091  10.899 -0.6835 -0.1004  0.1278
  771TIP3    H126508   6.284   1.171  10.951  0.4895 -0.4119  0.6966
  771TIP3    H226509   6.355   1.038  10.940  2.7696  0.9673 -3.5758
  772TIP3   OH226510   5.903   3.428   9.492  0.3320 -0.0384  0.2675
  772TIP3    H126511   5.978   3.438   9.433  1.8666 -3.3504  1.4139
  772TIP3    H226512   5.854   3.353   9.457 -0.0607 -0.5674  1.8369
  773TIP3   OH226513   0.087   2.191   9.417  0.4686  0.3264 -0.1478
  773TIP3    H126514   0.073   2.106   9.377 -0.2610  0.3086  0.1229
  773TIP3    H226515   0.000   2.231   9.419  0.4063  0.2122  1.6629
  774TIP3   OH226516   5.714   2.170   9.877 -0.7357 -0.0953 -0.2749
  774TIP3    H126517   5.698   2.244   9.819  2.0754  1.6452  0.9568
  774TIP3    H226518   5.746   2.209   9.958  3.1875 -2.5781 -0.3502
  775TIP3   OH226519   2.899   3.438   9.201  0.2783 -0.3426 -0.1692
  775TIP3    H126520   2.850   3.492   9.263  0.3976 -0.6055  0.1576
  775TIP3    H226521   2.853   3.449   9.118 -1.1083 -1.5621  0.3877
  776TIP3   OH226522   1.144   3.107   8.911  0.3060 -0.3664 -0.2171
  776TIP3    H126523   1.140   3.166   8.835 -0.0067 -1.2766 -0.9328
  776TIP3    H226524   1.220   3.137   8.960  0.3764  0.3936 -0.7659
  777TIP3   OH226525   0.967   2.008  10.024 -0.1383 -0.4241  0.0980
  777TIP3    H126526   0.938   1.919  10.043 -0.5462 -0.0533  1.3334
  777TIP3    H226527   0.997   2.041  10.109  2.7233 -0.3441 -0.8292
  778TIP3   OH226528   7.647   6.899  10.829  0.6943 -0.3306  0.1367
  778TIP3    H126529   7.581   6.959  10.865 -0.1796  0.0608 -1.9786
  778TIP3    H226530   7.608   6.812  10.839  0.3223 -0.1967 -0.1140
  779TIP3   OH226531   1.319   5.420  10.269 -0.1816 -0.7192  0.1703
  779TIP3    H126532   1.261   5.346  10.253 -0.7506 -0.0620 -0.9629
  779TIP3    H226533   1.393   5.406  10.210 -0.6771  0.0087 -0.6457
  780TIP3   OH226534   6.968   7.329  10.563  0.3190 -0.1560  0.0243
  780TIP3    H126535   6.910   7.274  10.616  1.8726 -1.4153  0.5031
  780TIP3    H226536   6.951   7.418  10.595 -0.1951 -0.6687  1.2714
  781TIP3   OH226537   4.004   0.145   9.872 -0.5024 -0.5910 -0.2421
  781TIP3    H126538   4.027   0.065   9.824 -0.3390 -1.0441  0.5824
  781TIP3    H226539   3.922   0.174   9.831 -0.9158 -1.5459 -0.1306
  782TIP3   OH226540   5.625   6.941  10.098 -0.2276 -0.3510 -0.2314
  782TIP3    H126541   5.630   7.036  10.100 -1.3024 -0.2803 -0.2637
  782TIP3    H226542   5.707   6.913  10.057 -0.6749  0.6659 -1.8997
  783TIP3   OH226543   3.760   1.813   9.880  0.4167 -0.1091 -0.1603
  783TIP3    H126544   3.770   1.847   9.969  0.6632 -1.0533  0.1876
  783TIP3    H226545   3.841   1.838   9.835 -0.1501  1.2671 -0.4328
  784TIP3   OH226546   5.943   7.088  10.133  0.1195  0.1639  0.7170
  784TIP3    H126547   5.955   7.018  10.197 -0.5982 -0.8349 -0.2097
  784TIP3    H226548   5.997   7.063  10.058 -1.6488 -0.4700 -0.4172
  785TIP3   OH226549   7.630   3.396  10.823 -0.4191  0.0600  0.2365
  785TIP3    H126550   7.550   3.447  10.840  0.2470  0.4938  2.3434
  785TIP3    H226551   7.659   3.367  10.909  1.6672 -0.1483 -0.4770
  786TIP3   OH226552   6.634   5.315  10.074  0.2366 -0.5246 -0.2385
  786TIP3    H126553   6.625   5.292   9.982  0.3194 -1.2992 -0.0596
  786TIP3    H226554   6.562   5.377  10.090  0.8042  0.3781 -1.0472
  787TIP3   OH226555   7.224   6.309  10.557  0.1852 -0.4864  0.0433
  787TIP3    H126556   7.182   6.293  10.473 -0.6303 -0.0343  0.3527
  787TIP3    H226557   7.313   6.275  10.547  0.0608 -0.5283 -0.9615
  788TIP3   OH226558   1.661   5.547  10.057  0.1190  0.0398  0.0209
  788TIP3    H126559   1.593   5.480  10.048 -1.8745  1.8173  0.9441
  788TIP3    H226560   1.653   5.600   9.977  1.4047 -0.5291 -0.5125
  789TIP3   OH226561   6.379   4.238   9.996  0.7369  0.0848 -0.3239
  789TIP3    H126562   6.330   4.319  10.011 -2.3964 -1.6200 -0.5103
  789TIP3    H226563   6.406   4.210  10.083 -1.1335 -0.3051  0.1870
  790TIP3   OH226564   7.326   4.063   9.994 -0.3684  0.1102  0.0901
  790TIP3    H126565   7.356   3.987   9.945  0.0272  0.6789 -0.5696
  790TIP3    H226566   7.294   4.124   9.927  0.0842  0.8539  0.5349
  791TIP3   OH226567   6.277   6.033   9.605  0.3020  0.2222  0.3593
  791TIP3    H126568   6.190   6.058   9.574 -0.0935 -1.6650 -0.1691
  791TIP3    H226569   6.317   6.116   9.633 -1.4057  1.2146  0.0162
  792TIP3   OH226570   3.084   1.611   9.327  0.3742 -0.2931  0.6695
  792TIP3    H126571   3.019   1.580   9.390  1.3746 -0.2379  1.7495
  792TIP3    H226572   3.125   1.531   9.293  0.7624 -0.2752  1.0927
  793TIP3   OH226573   6.119   0.116  10.166  1.0066  0.0591 -0.0424
  793TIP3    H126574   6.184   0.174  10.127  1.8571  0.0744  1.3205
  793TIP3    H226575   6.060   0.094  10.094  1.0571  2.0469 -0.7585
  794TIP3   OH226576   2.214   6.490   9.159  0.4614  0.2403  0.6403
  794TIP3    H126577   2.123   6.511   9.138 -0.0012 -0.1447  2.1075
  794TIP3    H226578   2.237   6.419   9.099 -0.0067  0.7473 -0.1526
  795TIP3   OH226579   6.560   3.959   9.074 -0.2987  0.3443 -0.2454
  795TIP3    H126580   6.535   3.923   9.159 -1.7673  0.6259 -0.5252
  795TIP3    H226581   6.637   4.013   9.092 -0.9315  0.8720  1.0229
  796TIP3   OH226582   4.546   3.809  11.185  0.0645  0.4195 -0.4417
  796TIP3    H126583   4.508   3.858  11.258  1.2189 -0.3635  0.7340
  796TIP3    H226584   4.605   3.871  11.143  1.5590  0.0907  1.0697
  797TIP3   OH226585   5.812   4.348   9.675 -0.0450  0.1948 -0.0395
  797TIP3    H126586   5.787   4.329   9.766 -1.5757 -2.1294 -0.8396
  797TIP3    H226587   5.754   4.419   9.649 -0.3295  0.1696  0.5028
  798TIP3   OH226588   5.542   4.332   8.548  0.6000 -0.0399 -0.3669
  798TIP3    H126589   5.585   4.267   8.492  0.5274 -1.7759  1.4558
  798TIP3    H226590   5.472   4.283   8.593  0.7897  1.1709  1.3817
  799TIP3   OH226591   5.136   0.944   9.526 -0.3899 -0.2831  0.5413
  799TIP3    H126592   5.210   0.884   9.513 -1.3421 -1.6447  1.1464
  799TIP3    H226593   5.135   0.961   9.620 -1.4358 -1.1075  0.6991
  800TIP3   OH226594   2.141   3.938  11.042 -0.1957 -0.3675 -0.0882
  800TIP3    H126595   2.156   3.974  11.129  2.2887 -0.9343 -0.2024
  800TIP3    H226596   2.139   3.843  11.055  0.6215 -0.4770 -0.6702
  801TIP3   OH226597   6.933   4.402   8.937 -0.0080  0.3897  0.3524
  801TIP3    H126598   7.025   4.426   8.921  0.1206  0.0680  0.5924
  801TIP3    H226599   6.882   4.470   8.893  0.3480  1.0544  0.9661
  802TIP3   OH226600   2.720   0.203   9.061 -0.0856  0.0462  0.6877
  802TIP3    H126601   2.702   0.221   9.154  1.3798  0.1400  0.9676
  802TIP3    H226602   2.729   0.289   9.021  1.2001 -0.0015  0.8576
  803TIP3   OH226603   4.848   5.373  10.293  0.4921 -0.1231 -0.0607
  803TIP3    H126604   4.800   5.310  10.239  0.5473 -0.6236  0.4602
  803TIP3    H226605   4.820   5.354  10.382 -0.4615  1.4542  0.0130
  804TIP3   OH226606   4.306   3.410  10.085 -0.7735  0.0011 -0.0302
  804TIP3    H126607   4.315   3.505  10.088  0.6134 -0.0838 -0.7725
  804TIP3    H226608   4.330   3.380  10.173 -3.3558  0.4316  0.9223
  805TIP3   OH226609   1.026   6.083  10.717  0.4510  0.2647 -0.3979
  805TIP3    H126610   1.050   5.992  10.698 -0.8403 -0.1481 -0.1339
  805TIP3    H226611   1.110   6.129  10.719  1.2902 -1.1981  0.9590
  806TIP3   OH226612   3.188   0.148  10.131  0.4671  0.9897  0.5118
  806TIP3    H126613   3.265   0.180  10.178  2.2153 -1.4256 -0.4632
  806TIP3    H226614   3.174   0.060  10.168  0.4154 -0.0047 -1.7548
  807TIP3   OH226615   5.600   5.586  10.129 -0.8015  0.1542 -0.2442
  807TIP3    H126616   5.695   5.596  10.135 -0.6010 -1.6913  0.2495
  807TIP3    H226617   5.572   5.660  10.076  1.4272 -1.3596 -3.9862
  808TIP3   OH226618   1.412   7.374  10.244 -0.0026  0.1255 -0.7285
  808TIP3    H126619   1.415   7.330  10.330 -0.2498 -0.9278 -1.2400
  808TIP3    H226620   1.419   7.467  10.265 -0.6438 -0.0711  0.4827
  809TIP3   OH226621   4.353   3.736   9.678  0.0955  0.2797 -0.6439
  809TIP3    H126622   4.319   3.669   9.620 -1.1288  0.0264  0.3302
  809TIP3    H226623   4.401   3.688   9.745  0.6619  0.5076 -0.8742
  810TIP3   OH226624   1.335   2.319  10.174 -0.5287 -0.0045  0.6278
  810TIP3    H126625   1.241   2.307  10.183 -0.4942 -1.8999 -0.9823
  810TIP3    H226626   1.373   2.233  10.192  0.8446  0.5155  0.4101
  811TIP3   OH226627   6.506   1.506   9.616  0.0710 -0.6191 -0.3499
  811TIP3    H126628   6.534   1.414   9.618 -0.7396 -0.8601  0.9266
  811TIP3    H226629   6.571   1.552   9.667  0.1586 -0.5776 -0.4993
  812TIP3   OH226630   0.630   1.598   8.236 -0.0906 -0.4077 -0.2963
  812TIP3    H126631   0.716   1.631   8.263 -0.4066  0.9506 -0.8621
  812TIP3    H226632   0.641   1.575   8.144 -0.8630  1.8626 -1.0086
  813TIP3   OH226633   0.145   1.233   8.441  0.6834 -0.0444  0.0346
  813TIP3    H126634   0.088   1.167   8.402  1.7695 -0.9171 -0.1350
  813TIP3    H226635   0.222   1.235   8.383  1.5501 -0.0907  1.1637
  814TIP3   OH226636   1.794   4.193   8.588 -0.3348  0.3330  0.0518
  814TIP3    H126637   1.804   4.117   8.531 -0.5628  0.1738  0.2210
  814TIP3    H226638   1.700   4.213   8.584  0.0014  1.8825 -1.6411
  815TIP3   OH226639   1.073   2.878  10.152  0.1038  0.5805 -0.4660
  815TIP3    H126640   0.996   2.923  10.188 -0.3961 -0.3120 -0.4041
  815TIP3    H226641   1.130   2.862  10.227 -1.5329 -2.4937  0.2830
  816TIP3   OH226642   0.910   3.080  10.826 -0.0312 -0.4995  0.0997
  816TIP3    H126643   1.000   3.073  10.792  0.2836 -0.3555  0.8917
  816TIP3    H226644   0.899   3.003  10.881 -0.4620 -0.6048 -0.1239
  817TIP3   OH226645   4.471   4.261  11.145  0.0668  0.1052  0.1026
  817TIP3    H126646   4.557   4.251  11.102  0.2191 -1.0630  0.6399
  817TIP3    H226647   4.436   4.172  11.149 -1.1518  0.5597 -0.0328
  818TIP3   OH226648   5.751   2.845   8.821 -0.1004 -0.2176 -0.0877
  818TIP3    H126649   5.831   2.869   8.869 -0.1008 -0.7649  0.1843
  818TIP3    H226650   5.734   2.921   8.765  0.5796 -0.0660 -0.1058
  819TIP3   OH226651   5.472   0.987   8.752  0.0641 -0.0190 -0.0683
  819TIP3    H126652   5.462   0.893   8.770  0.8517 -0.4939 -1.8668
  819TIP3    H226653   5.561   0.995   8.718  0.3710  1.5695  1.0204
  820TIP3   OH226654   0.371   2.908   9.775 -0.0639  0.7307  0.2151
  820TIP3    H126655   0.454   2.940   9.811  0.1990  0.3248 -0.0213
  820TIP3    H226656   0.330   2.985   9.736  0.7001  0.7298 -0.6244
  821TIP3   OH226657   0.234   7.319   8.502 -0.4635  0.0953  0.4012
  821TIP3    H126658   0.149   7.280   8.518 -1.5032  1.5897 -1.0791
  821TIP3    H226659   0.216   7.392   8.442  1.7889  0.7591  0.4326
  822TIP3   OH226660   4.663   0.873   9.136 -0.0799  0.0608  0.0972
  822TIP3    H126661   4.595   0.938   9.117 -0.2086 -0.1576 -0.2134
  822TIP3    H226662   4.730   0.887   9.069 -1.2900 -1.7841 -1.6336
  823TIP3   OH226663   6.849   0.654   9.810 -0.3973 -0.2550  0.1125
  823TIP3    H126664   6.758   0.670   9.787  0.4147  5.3279 -0.8476
  823TIP3    H226665   6.855   0.680   9.902  0.4591  1.4067 -0.3780
  824TIP3   OH226666   3.203   4.253   9.494  0.3705  0.4471  0.2969
  824TIP3    H126667   3.205   4.307   9.574 -0.6243  3.7014 -1.6814
  824TIP3    H226668   3.117   4.212   9.496  1.0130 -0.9384  1.6822
  825TIP3   OH226669   6.904   7.065   9.123  0.1791 -0.4360  0.1488
  825TIP3    H126670   6.921   7.015   9.203  1.2954 -1.0030 -0.4262
  825TIP3    H226671   6.909   7.000   9.053 -3.8430 -0.6122 -0.2238
  826TIP3   OH226672   1.554   3.757   8.901 -0.2753  0.0092  0.0016
  826TIP3    H126673   1.560   3.829   8.838 -0.0496 -0.2030 -0.2206
  826TIP3    H226674   1.541   3.800   8.986 -0.1022  0.3132 -0.1256
  827TIP3   OH226675   1.118   5.321  10.729  0.7376 -0.1594  0.2880
  827TIP3    H126676   1.155   5.382  10.665  1.8124 -0.6688  0.3985
  827TIP3    H226677   1.050   5.274  10.681 -0.5458  1.5069  0.3629
  828TIP3   OH226678   7.667   1.279  10.211  0.3064  0.0172  0.1266
  828TIP3    H126679   7.710   1.325  10.139 -0.8452  0.4206 -0.3141
  828TIP3    H226680   7.662   1.345  10.281  2.5470 -0.7224  1.0808
  829TIP3   OH226681   5.589   7.218   9.847 -0.0910  0.2084 -0.1645
  829TIP3    H126682   5.648   7.200   9.920  1.0342 -0.1081 -1.1305
  829TIP3    H226683   5.512   7.257   9.889  1.2366  1.7000  1.0258
  830TIP3   OH226684   0.734   2.222  10.969  0.2678  0.4175 -0.4085
  830TIP3    H126685   0.672   2.292  10.949 -0.5507  0.5788  2.2711
  830TIP3    H226686   0.813   2.268  10.999  0.8029  0.1788 -1.4015
  831TIP3   OH226687   5.766   1.271  10.917  0.3349  0.1127 -0.5772
  831TIP3    H126688   5.860   1.253  10.913  0.2424 -0.7071  0.4218
  831TIP3    H226689   5.725   1.185  10.908 -0.2259  0.1457  1.2427
  832TIP3   OH226690   3.888   5.843  10.998 -0.3272 -0.2771 -0.3620
  832TIP3    H126691   3.876   5.932  11.030 -1.4519  0.0758 -1.6612
  832TIP3    H226692   3.973   5.817  11.032  0.3123  1.5294 -0.4542
  833TIP3   OH226693   5.326   0.122   8.818 -0.3669 -0.5612 -0.1822
  833TIP3    H126694   5.255   0.078   8.865  0.7239  0.2734  2.4678
  833TIP3    H226695   5.297   0.212   8.809 -0.3547 -0.6043 -0.6905
  834TIP3   OH226696   6.120   2.796  11.026  0.1250 -0.2452  0.2997
  834TIP3    H126697   6.170   2.752  10.957  0.0266  0.5316 -0.2868
  834TIP3    H226698   6.134   2.889  11.009  0.5487 -0.0426  1.6724
  835TIP3   OH226699   6.147   1.612  11.018  0.3510 -0.5200 -0.3198
  835TIP3    H126700   6.053   1.621  11.034  0.1921 -1.9902 -0.2212
  835TIP3    H226701   6.186   1.692  11.053 -0.8476  0.0301 -0.2083
  836TIP3   OH226702   7.307   3.218   9.031 -0.2179  0.0414 -0.3141
  836TIP3    H126703   7.393   3.192   9.062 -0.2650  0.5239  0.2497
  836TIP3    H226704   7.306   3.194   8.939 -0.1158 -1.5447  0.0771
  837TIP3   OH226705   4.945   4.262  10.128 -0.2442  0.1038 -0.4535
  837TIP3    H126706   5.037   4.278  10.108  0.1013  1.5322  1.9638
  837TIP3    H226707   4.945   4.185  10.185 -0.3384  1.0557  0.8763
  838TIP3   OH226708   1.568   4.903   9.801  0.4389  0.2420 -0.6329
  838TIP3    H126709   1.531   4.823   9.763  0.7835  0.4842 -1.4948
  838TIP3    H226710   1.655   4.878   9.831  0.3693  0.1786 -0.4844
  839TIP3   OH226711   5.395   0.234  10.115  0.0460 -0.3014 -0.4868
  839TIP3    H126712   5.360   0.319  10.090 -0.1422  0.0309  0.8314
  839TIP3    H226713   5.488   0.239  10.094 -0.0276  0.1100 -0.7203
  840TIP3   OH226714   4.706   4.051  11.093 -0.1824  0.2853  0.0283
  840TIP3    H126715   4.785   4.102  11.114  1.9180 -2.7489  0.1662
  840TIP3    H226716   4.705   4.046  10.998 -0.7078  0.9651 -0.0125
  841TIP3   OH226717   7.516   0.548   8.371 -0.0188  0.5743 -1.1811
  841TIP3    H126718   7.435   0.500   8.354 -0.0658  0.7199 -1.3691
  841TIP3    H226719   7.581   0.508   8.314 -0.1545  0.9985 -1.6427
  842TIP3   OH226720   3.210   6.441  10.224 -0.2336  0.3438  0.0204
  842TIP3    H126721   3.150   6.400  10.286 -0.1866  0.2592  0.0101
  842TIP3    H226722   3.219   6.531  10.255 -0.3179  0.3395  0.0573
  843TIP3   OH226723   6.137   2.724   9.653 -0.1638 -0.3597  0.2790
  843TIP3    H126724   6.182   2.765   9.728 -1.0463 -0.0882  0.6681
  843TIP3    H226725   6.095   2.797   9.608  0.4629 -0.5030 -0.5772
  844TIP3   OH226726   5.058   6.370   8.938 -0.2585  0.3473 -0.3117
  844TIP3    H126727   4.995   6.310   8.897 -0.4507  0.9287 -0.8859
  844TIP3    H226728   5.004   6.431   8.988 -0.0433 -0.1499  0.5506
  845TIP3   OH226729   3.565   1.262   9.021  0.2924 -0.1530  0.0023
  845TIP3    H126730   3.521   1.181   9.044  1.4577 -0.6677  0.5266
  845TIP3    H226731   3.625   1.278   9.095 -0.1096  1.3292  0.0466
  846TIP3   OH226732   2.442   2.605  10.180 -0.3407  0.2839 -0.0632
  846TIP3    H126733   2.381   2.590  10.252 -1.4098  0.4146 -0.8949
  846TIP3    H226734   2.404   2.679  10.132  0.2189  0.0546 -0.8824
  847TIP3   OH226735   0.659   2.903  10.389 -0.1490 -0.0043  0.1395
  847TIP3    H126736   0.631   2.932  10.476 -0.3358  0.0186  0.0729
  847TIP3    H226737   0.579   2.903  10.337 -0.2321 -1.0812  0.2553
  848TIP3   OH226738   7.323   0.627   8.851 -0.3999  0.2315 -0.0304
  848TIP3    H126739   7.254   0.618   8.918  0.5378 -1.0521  0.8069
  848TIP3    H226740   7.349   0.719   8.857 -1.2998  0.4759  0.3903
  849TIP3   OH226741   6.906   6.290   8.617 -0.5406 -0.4931  0.7819
  849TIP3    H126742   6.848   6.280   8.541 -2.2267 -0.3834  2.0165
  849TIP3    H226743   6.963   6.213   8.613 -0.6435 -0.5256 -0.5537
  850TIP3   OH226744   3.727   6.943  11.269 -0.1660  0.0965 -0.3084
  850TIP3    H126745   3.705   6.925  11.177 -3.3391  1.3883  0.0739
  850TIP3    H226746   3.761   7.032  11.268 -0.9343  0.4029 -0.1879
  851TIP3   OH226747   1.222   6.245  10.641  0.1691  0.9731 -0.1843
  851TIP3    H126748   1.297   6.280  10.592  1.8562 -1.4289  0.5144
  851TIP3    H226749   1.261   6.192  10.710 -2.1994  1.4038  1.5927
  852TIP3   OH226750   6.422   4.232   9.721 -0.0402  0.0141 -0.3510
  852TIP3    H126751   6.406   4.232   9.815 -0.1894  0.4305 -0.3706
  852TIP3    H226752   6.347   4.186   9.683  0.1447 -0.3686 -0.2480
  853TIP3   OH226753   5.538   4.621  10.660 -0.0640  0.0011 -0.1078
  853TIP3    H126754   5.453   4.650  10.629 -0.5029 -1.2736 -0.1449
  853TIP3    H226755   5.526   4.604  10.754 -0.3045 -1.6797 -0.4091
  854TIP3   OH226756   2.514   4.652   8.903  0.2521  0.5208 -0.0207
  854TIP3    H126757   2.598   4.696   8.913  0.0053  0.9443  0.2484
  854TIP3    H226758   2.535   4.558   8.905  0.6454  0.6130  0.7165
  855TIP3   OH226759   7.142   3.194  10.547 -0.5870  0.1685  0.2445
  855TIP3    H126760   7.055   3.215  10.580 -1.0720 -1.4921  0.1114
  855TIP3    H226761   7.170   3.119  10.599  0.4359  0.1653 -0.2736
  856TIP3   OH226762   7.231   3.170   9.299 -0.0481 -0.2113  0.0350
  856TIP3    H126763   7.208   3.245   9.353  2.8871  0.7987  0.0974
  856TIP3    H226764   7.237   3.205   9.210 -2.5346 -1.3351 -0.6436
  857TIP3   OH226765   2.647   7.103  10.747 -0.3155 -0.3084 -0.2851
  857TIP3    H126766   2.577   7.043  10.774 -1.1312  1.0001  0.6182
  857TIP3    H226767   2.609   7.151  10.673  0.3794 -0.9766 -1.0875
  858TIP3   OH226768   5.373   0.743   9.950 -0.3119  0.1529  0.2819
  858TIP3    H126769   5.374   0.810   9.882  0.4897 -0.8232 -0.7044
  858TIP3    H226770   5.412   0.786  10.026  1.3597  0.4675 -0.7013
  859TIP3   OH226771   4.261   2.058  10.339  0.2596 -0.3064 -0.6482
  859TIP3    H126772   4.353   2.073  10.315  0.6627 -0.9023  0.4857
  859TIP3    H226773   4.230   1.994  10.275  0.8794 -0.7399 -0.5222
  860TIP3   OH226774   7.202   2.221  10.165 -0.3210  0.0001 -0.3709
  860TIP3    H126775   7.263   2.276  10.116 -1.2963  1.3920 -0.0929
  860TIP3    H226776   7.148   2.180  10.098 -0.7958  0.8757 -0.5512
  861TIP3   OH226777   0.407   4.898   9.760  0.4940  0.1466  0.2679
  861TIP3    H126778   0.469   4.967   9.786 -0.0581  1.2624 -1.2449
  861TIP3    H226779   0.340   4.899   9.829 -0.6767  2.7089 -0.7720
  862TIP3   OH226780   6.447   4.434  10.307  0.1881  0.0604  0.6818
  862TIP3    H126781   6.540   4.419  10.317  0.4436  1.0433 -0.0466
  862TIP3    H226782   6.436   4.463  10.217 -0.8192 -0.0326  0.7549
  863TIP3   OH226783   2.904   7.475   9.296  0.5736  0.1857  0.3117
  863TIP3    H126784   2.893   7.380   9.301 -2.7298  0.4123 -0.5594
  863TIP3    H226785   2.816   7.511   9.304  1.4159  3.0777 -1.4597
  864TIP3   OH226786   2.816   4.006   8.161  0.1817 -0.4039  0.2430
  864TIP3    H126787   2.736   4.018   8.110  0.7884  0.0453 -0.6323
  864TIP3    H226788   2.830   4.092   8.203  0.1228 -0.5306  0.5259
  865TIP3   OH226789   1.377   1.403   9.652 -0.1334  0.2233 -0.2132
  865TIP3    H126790   1.295   1.442   9.623 -0.5534  0.5012  1.2509
  865TIP3    H226791   1.438   1.476   9.659 -0.0335  0.1584 -0.4113
  866TIP3   OH226792   3.922   4.751   8.780  0.4320 -0.1945  0.1602
  866TIP3    H126793   3.911   4.658   8.762  1.0178 -0.6624  2.0012
  866TIP3    H226794   3.955   4.788   8.698 -0.1446 -1.5197 -0.7068
  867TIP3   OH226795   6.480   4.991  10.400  0.3456 -0.3693  0.4222
  867TIP3    H126796   6.485   4.984  10.305  0.2449  0.1734  0.3714
  867TIP3    H226797   6.544   5.058  10.422 -2.2962  2.4034  0.3341
  868TIP3   OH226798   0.003   5.359  10.539  0.0872 -0.6980 -0.2039
  868TIP3    H126799   0.049   5.287  10.496 -1.8707 -0.6729 -2.6345
  868TIP3    H226800   0.045   5.438  10.506 -0.2187 -0.7062 -0.6243
  869TIP3   OH226801   7.661   5.511   8.536 -0.3200 -0.4735  0.5836
  869TIP3    H126802   7.626   5.490   8.449  0.3966  0.1316  0.1408
  869TIP3    H226803   7.662   5.427   8.582  2.1095 -1.4380 -1.0079
  870TIP3   OH226804   2.484   1.651   8.810  0.1531 -0.2136 -0.0673
  870TIP3    H126805   2.560   1.619   8.762  0.6912 -0.0693  0.6609
  870TIP3    H226806   2.507   1.741   8.834 -0.4326 -0.0193 -0.2228
  871TIP3   OH226807   6.842   1.368   9.774 -0.0951 -0.1757  0.5453
  871TIP3    H126808   6.801   1.441   9.727 -0.7963 -0.7342  0.2784
  871TIP3    H226809   6.877   1.407   9.854  4.1000  1.5844 -1.7639
  872TIP3   OH226810   5.949   6.229   9.190 -0.2027  0.0494 -0.4386
  872TIP3    H126811   5.887   6.238   9.263 -0.0338 -0.4354 -0.2375
  872TIP3    H226812   5.993   6.314   9.187 -2.2971  1.1992 -1.9024
  873TIP3   OH226813   0.414   0.964   9.304  0.3050  0.0409 -0.1906
  873TIP3    H126814   0.443   0.992   9.391 -1.5993 -1.9005  1.1794
  873TIP3    H226815   0.435   1.038   9.247  0.1403  2.0903  2.2236
  874TIP3   OH226816   0.357   3.406  10.086 -0.1178 -0.0594 -0.2212
  874TIP3    H126817   0.301   3.330  10.101 -0.8554  0.6039  0.4195
  874TIP3    H226818   0.392   3.427  10.172  0.4514  0.0577 -0.4770
  875TIP3   OH226819   4.107   6.745   9.864  0.0717 -0.6977  0.1863
  875TIP3    H126820   4.100   6.840   9.853  0.3722 -0.5315  1.3437
  875TIP3    H226821   4.195   6.731   9.898  0.4629 -1.5149 -1.0893
  876TIP3   OH226822   7.287   5.608   8.818 -0.0874  0.3625  0.4990
  876TIP3    H126823   7.324   5.605   8.906  1.3410  1.4509 -0.0376
  876TIP3    H226824   7.332   5.680   8.774  2.0002 -2.3987 -2.3502
  877TIP3   OH226825   5.562   5.452   9.739  0.5194 -0.6732  0.2290
  877TIP3    H126826   5.575   5.429   9.648  1.1762 -0.8899  0.3777
  877TIP3    H226827   5.592   5.543   9.747 -0.4840 -0.3080  0.0168
  878TIP3   OH226828   2.713   2.590  10.116 -0.2893 -0.0937 -0.2845
  878TIP3    H126829   2.618   2.584  10.111 -0.4103  1.8231 -1.0710
  878TIP3    H226830   2.738   2.643  10.040  1.3251  0.0621  0.3196
  879TIP3   OH226831   1.440   4.224  10.242 -0.0174 -0.3227  0.4504
  879TIP3    H126832   1.439   4.244  10.148  0.6581 -0.2532  0.4521
  879TIP3    H226833   1.413   4.132  10.247 -1.2222  0.0010  0.2894
  880TIP3   OH226834   0.784   7.115   8.264 -0.3302  0.1005  0.2968
  880TIP3    H126835   0.812   7.047   8.204  0.6658 -2.7643  3.6372
  880TIP3    H226836   0.865   7.145   8.306 -1.1483  0.0429  2.0051
  881TIP3   OH226837   0.886   1.307   9.769  0.2299 -0.2612  0.0349
  881TIP3    H126838   0.978   1.326   9.788  0.0706  0.2372  0.3419
  881TIP3    H226839   0.884   1.288   9.675  0.7122 -0.7097  0.1140
  882TIP3   OH226840   3.238   3.093  10.068 -0.1502  0.5706  0.1182
  882TIP3    H126841   3.143   3.091  10.063 -0.1925  1.0838  0.6088
  882TIP3    H226842   3.267   3.108   9.978 -0.5957  2.0248  0.1859
  883TIP3   OH226843   6.702   7.611   9.414 -1.0109 -0.0000  0.3203
  883TIP3    H126844   6.628   7.660   9.379 -1.4647 -0.4372  0.6582
  883TIP3    H226845   6.680   7.519   9.399 -0.2115 -0.1185 -0.2231
  884TIP3   OH226846   4.057   1.907   9.174  0.0588  0.7332 -0.8993
  884TIP3    H126847   4.140   1.941   9.141  0.5092 -0.3325 -0.8917
  884TIP3    H226848   4.060   1.813   9.157 -0.0887  0.2669  1.3186
  885TIP3   OH226849   5.480   3.771  10.663  0.6471  0.6588  0.1677
  885TIP3    H126850   5.441   3.720  10.592 -1.1795 -0.2040  1.7003
  885TIP3    H226851   5.474   3.862  10.633 -0.4501  0.3502 -0.6027
  886TIP3   OH226852   3.102   1.817  10.509 -0.0344  0.2626  0.8236
  886TIP3    H126853   3.156   1.883  10.467 -1.7176  1.7921  0.9313
  886TIP3    H226854   3.058   1.772  10.436  0.0635  0.2042  0.8011
  887TIP3   OH226855   7.244   7.555  10.654  0.1326  0.0620  0.2102
  887TIP3    H126856   7.307   7.577  10.586  1.1007 -3.0178 -0.0348
  887TIP3    H226857   7.297   7.545  10.733  0.1184 -2.7107 -0.0266
  888TIP3   OH226858   0.813   2.446   9.386 -0.4618 -0.4424  0.3528
  888TIP3    H126859   0.876   2.513   9.412 -0.0187 -0.0523 -1.5349
  888TIP3    H226860   0.841   2.367   9.433 -0.3019  0.3996  1.7150
  889TIP3   OH226861   7.125   7.548  10.192  0.1401 -0.4959 -0.0315
  889TIP3    H126862   7.070   7.476  10.221 -1.3298  1.0607  1.3097
  889TIP3    H226863   7.215   7.521  10.213 -0.3855 -1.8462  0.5452
  890TIP3   OH226864   0.206   1.689  11.360 -0.3339 -0.0823 -0.7665
  890TIP3    H126865   0.200   1.742  11.439  1.1356 -2.0913  0.8076
  890TIP3    H226866   0.292   1.710  11.324 -0.7954  0.4534 -1.5969
  891TIP3   OH226867   3.383   3.351   8.716 -0.4561 -0.4056  0.2310
  891TIP3    H126868   3.394   3.399   8.635 -1.6322  0.1886  0.4051
  891TIP3    H226869   3.465   3.366   8.764 -1.0577  2.1098  0.6139
  892TIP3   OH226870   2.722   4.324  10.070  0.2825 -0.2618 -0.1573
  892TIP3    H126871   2.742   4.404  10.119  0.1112 -0.8050  0.8276
  892TIP3    H226872   2.737   4.254  10.133 -2.0273 -0.8749 -0.2129
  893TIP3   OH226873   5.245   1.166   8.477  0.1285  0.1409  0.1298
  893TIP3    H126874   5.218   1.170   8.385  1.0950 -0.8733 -0.2284
  893TIP3    H226875   5.340   1.171   8.474  0.2861 -1.5758  0.9270
  894TIP3   OH226876   5.432   1.982  10.173  0.1645  0.1584  0.2738
  894TIP3    H126877   5.481   2.014  10.249  0.5725  1.4637 -0.5082
  894TIP3    H226878   5.355   2.038  10.168 -1.6001 -1.9547  1.5628
  895TIP3   OH226879   3.053   3.222   9.367  0.4458  0.1101 -0.4830
  895TIP3    H126880   3.139   3.264   9.370  0.3907  0.1929 -0.0048
  895TIP3    H226881   2.995   3.290   9.333  0.4121  0.3298  0.0080
  896TIP3   OH226882   1.106   4.937   8.602 -0.3147  0.8853 -0.1547
  896TIP3    H126883   1.096   5.027   8.571 -1.8953  1.2557  1.2284
  896TIP3    H226884   1.029   4.891   8.568  0.9894 -0.2741 -1.7178
  897TIP3   OH226885   4.943   5.168   9.342  0.5923  0.0165  0.1177
  897TIP3    H126886   4.867   5.206   9.386  0.7807 -0.7908  1.1859
  897TIP3    H226887   4.951   5.218   9.261 -1.8592 -0.7245 -0.6806
  898TIP3   OH226888   1.252   0.982  10.590 -0.3208  0.0293 -0.6866
  898TIP3    H126889   1.244   0.899  10.544  0.1432 -0.4811  0.1380
  898TIP3    H226890   1.177   1.033  10.560 -0.5840 -0.6584 -1.2350
  899TIP3   OH226891   6.476   0.102   9.396  0.2710 -0.6888 -0.4093
  899TIP3    H126892   6.457   0.153   9.317  0.9356  0.0511 -0.1099
  899TIP3    H226893   6.392   0.096   9.442  0.2292  0.3952 -0.3119
  900TIP3   OH226894   0.680   1.708   8.964 -0.7490 -0.3728 -0.1994
  900TIP3    H126895   0.610   1.645   8.947  0.2479 -2.0716  1.6048
  900TIP3    H226896   0.747   1.688   8.900 -1.5287  0.7153 -1.3975
  901TIP3   OH226897   0.614   5.631  10.788  0.5353  0.8067  0.1000
  901TIP3    H126898   0.570   5.552  10.819  3.3312 -0.8457  0.1843
  901TIP3    H226899   0.546   5.699  10.789 -1.5712 -1.1942  1.5436
  902TIP3   OH226900   0.073   6.134  10.688  0.6142 -0.2957 -0.3159
  902TIP3    H126901   0.085   6.226  10.666  0.4334 -0.6400 -1.9587
  902TIP3    H226902  -0.016   6.114  10.658  0.6538 -1.0051  0.0244
  903TIP3   OH226903   3.541   0.205  10.530 -0.1653  0.9619 -0.0507
  903TIP3    H126904   3.475   0.175  10.592 -0.4696  1.7761  0.0191
  903TIP3    H226905   3.599   0.129  10.519  0.5415  1.1457  2.0577
  904TIP3   OH226906   0.279   0.154   9.271  0.3599  0.0084 -0.2074
  904TIP3    H126907   0.285   0.249   9.269 -0.1686  0.0387 -0.9185
  904TIP3    H226908   0.301   0.127   9.182 -2.5176 -0.3116 -0.9241
  905TIP3   OH226909   1.884   3.114  10.316  0.2413  0.0468 -0.0476
  905TIP3    H126910   1.799   3.076  10.297  0.5253 -0.1246 -1.0442
  905TIP3    H226911   1.925   3.053  10.378  0.4753 -0.9998 -1.2074
  906TIP3   OH226912   7.405   0.678  10.319 -0.1457 -0.2008  0.0924
  906TIP3    H126913   7.421   0.588  10.347  0.0644 -0.7731 -1.7527
  906TIP3    H226914   7.474   0.729  10.361  0.2941 -1.0450  0.4111
  907TIP3   OH226915   3.321   3.400  10.393  0.0907 -0.6925 -0.2231
  907TIP3    H126916   3.337   3.448  10.312 -0.8119  0.2788  0.1467
  907TIP3    H226917   3.282   3.317  10.365 -2.1449  0.4508 -0.7676
  908TIP3   OH226918   1.463   4.820   9.299 -0.6828 -0.1145 -0.4436
  908TIP3    H126919   1.478   4.782   9.212  1.2209 -0.6997  0.1003
  908TIP3    H226920   1.532   4.783   9.354 -0.8402  1.5173  0.9323
  909TIP3   OH226921   3.414   1.234   7.868  0.5086 -0.5772 -0.2485
  909TIP3    H126922   3.374   1.321   7.872  1.2719 -0.2629  1.3730
  909TIP3    H226923   3.340   1.173   7.864 -0.0266  0.1350 -1.8729
  910TIP3   OH226924   1.111   0.898   9.411  0.7645 -0.2651  0.0144
  910TIP3    H126925   1.136   0.837   9.481 -0.7019 -1.9153 -0.8326
  910TIP3    H226926   1.194   0.938   9.384  2.0973 -3.1103 -0.4847
  911TIP3   OH226927   1.490   0.931  10.710 -0.1738  0.9116 -0.4236
  911TIP3    H126928   1.489   0.853  10.765  2.1426  1.3068  0.2844
  911TIP3    H226929   1.400   0.965  10.714 -0.9054 -1.0081  0.2378
  912TIP3   OH226930   5.733   2.042   9.268 -0.2345  0.1998  0.1980
  912TIP3    H126931   5.800   2.110   9.269 -1.7337  1.7834 -1.1938
  912TIP3    H226932   5.704   2.038   9.177 -1.4858 -1.0150  0.6134
  913TIP3   OH226933   5.309   0.413  10.492 -0.3882  0.4549 -0.1033
  913TIP3    H126934   5.375   0.343  10.489 -2.6715 -1.8691 -0.7089
  913TIP3    H226935   5.344   0.482  10.437  1.3711 -0.8651 -0.7325
  914TIP3   OH226936   6.676   3.006   9.605 -0.5029 -0.1414  0.4318
  914TIP3    H126937   6.611   2.985   9.537 -0.9764 -0.2108  0.8969
  914TIP3    H226938   6.733   3.071   9.563 -0.7811 -0.1898 -0.0376
  915TIP3   OH226939   1.476   5.947   9.941 -0.4798  0.0409  0.2673
  915TIP3    H126940   1.395   5.897   9.945 -0.1769 -0.5571 -0.5706
  915TIP3    H226941   1.532   5.908  10.008 -1.2706  1.2150  1.6485
  916TIP3   OH226942   2.915   5.705   9.348  0.1264 -0.3220  0.7198
  916TIP3    H126943   2.834   5.663   9.376  0.3938 -1.5234 -0.1895
  916TIP3    H226944   2.982   5.670   9.407  0.1946 -0.4161  0.5876
  917TIP3   OH226945   7.526   5.553  10.818 -0.6472  0.2308 -0.4932
  917TIP3    H126946   7.573   5.503  10.752  0.6005  0.2539  0.3597
  917TIP3    H226947   7.505   5.489  10.886 -1.5004  0.3085 -0.6704
  918TIP3   OH226948   1.027   5.337  10.001 -0.7922  0.3332 -0.4152
  918TIP3    H126949   1.058   5.287  10.076 -1.2904 -0.1616 -0.5293
  918TIP3    H226950   1.104   5.346   9.944 -0.7199 -0.4298 -0.4556
  919TIP3   OH226951   5.512   4.270   9.155  0.8196  0.3502  0.5395
  919TIP3    H126952   5.423   4.297   9.136  0.1431 -1.0392  1.5282
  919TIP3    H226953   5.505   4.177   9.177  2.0853  0.8033  3.2674
  920TIP3   OH226954   4.145   7.011   9.822  0.5570 -0.0023 -0.3270
  920TIP3    H126955   4.230   6.973   9.842  0.9977  0.9356 -0.3596
  920TIP3    H226956   4.155   7.047   9.733  0.0550 -0.0879 -0.4253
  921TIP3   OH226957   7.449   5.767   8.660  0.0628  0.1566  0.8427
  921TIP3    H126958   7.467   5.702   8.592 -2.6362  1.5025 -1.3564
  921TIP3    H226959   7.512   5.837   8.642 -0.2036  0.2207  0.1252
  922TIP3   OH226960   5.507   4.826   9.285 -0.3813  0.1360 -0.6333
  922TIP3    H126961   5.589   4.874   9.294 -0.2860 -0.0166 -0.6811
  922TIP3    H226962   5.438   4.892   9.298 -0.2521  0.1715 -0.1287
  923TIP3   OH226963   6.601   6.883  10.509 -0.1994  0.2765  0.8725
  923TIP3    H126964   6.652   6.861  10.431  2.4484  2.2836  1.8771
  923TIP3    H226965   6.629   6.818  10.574 -0.1463  0.4089  0.9821
  924TIP3   OH226966   3.669   0.975   9.066 -0.1841 -0.1475  0.3009
  924TIP3    H126967   3.760   0.960   9.091  0.3242  2.8724  0.5887
  924TIP3    H226968   3.630   1.017   9.143 -1.3149  0.2626 -0.4764
  925TIP3   OH226969   4.708   1.850  10.933  0.2243 -0.2551 -0.2714
  925TIP3    H126970   4.688   1.943  10.918 -2.1389 -0.5091  0.8205
  925TIP3    H226971   4.735   1.846  11.024 -0.4394 -0.7328 -0.0915
  926TIP3   OH226972   3.108   1.699   9.795  0.1278 -0.0090  0.4466
  926TIP3    H126973   3.170   1.705   9.722 -0.0139  1.0421  0.3940
  926TIP3    H226974   3.159   1.726   9.872  0.4259 -1.6173  0.8618
  927TIP3   OH226975   4.808   2.812  11.011 -0.2360  0.2103  0.0863
  927TIP3    H126976   4.789   2.795  10.919 -1.7880  1.8835  0.0458
  927TIP3    H226977   4.873   2.883  11.010  1.7041 -1.4688  0.3123
  928TIP3   OH226978   1.800   5.477   9.410  0.0028 -0.6800  0.4351
  928TIP3    H126979   1.766   5.420   9.341  0.2050  0.5828 -0.7503
  928TIP3    H226980   1.881   5.433   9.439  0.7921 -0.4523 -1.2783
  929TIP3   OH226981   6.092   7.120   9.253 -0.1223 -0.1746  0.2053
  929TIP3    H126982   6.000   7.094   9.263  0.0791 -1.8658 -1.7223
  929TIP3    H226983   6.088   7.209   9.218 -1.0516 -0.3734 -0.2266
  930TIP3   OH226984   3.459   3.038  10.286 -0.0986  0.3831 -0.1532
  930TIP3    H126985   3.425   2.951  10.264 -1.0067  0.3397  1.2984
  930TIP3    H226986   3.401   3.099  10.241 -1.6720  0.2899  1.6662
  931TIP3   OH226987   1.199   7.000  11.061 -0.1289  0.1259  0.2496
  931TIP3    H126988   1.177   6.917  11.019 -0.1026 -0.2400  0.9429
  931TIP3    H226989   1.264   6.976  11.127  0.9863  0.9177 -0.5378
  932TIP3   OH226990   3.397   2.279  10.618  0.0877  0.1424  0.6632
  932TIP3    H126991   3.302   2.288  10.625 -0.0419 -0.5203 -0.0798
  932TIP3    H226992   3.412   2.185  10.613  0.5326  0.2736 -1.9768
  933TIP3   OH226993   3.300   3.218   9.509 -0.4480 -0.6646  0.4348
  933TIP3    H126994   3.374   3.213   9.569 -1.1516 -3.1065  1.1779
  933TIP3    H226995   3.238   3.154   9.541 -1.8025 -0.5038 -1.6550
  934TIP3   OH226996   2.845   0.881   9.463 -0.0131  0.0354  0.3542
  934TIP3    H126997   2.883   0.964   9.491 -2.1340  0.0198  3.9701
  934TIP3    H226998   2.763   0.906   9.419 -0.7601 -0.0604  1.6348
  935TIP3   OH226999   2.135   6.687   9.542  0.0167 -0.4747  0.1493
  935TIP3    H127000   2.193   6.655   9.610 -1.4149 -0.6064  1.3744
  935TIP3    H227001   2.106   6.608   9.496 -0.1967 -0.5438  0.3962
  936TIP3   OH227002   0.494   6.929  11.131  0.5642  0.1511  0.2310
  936TIP3    H127003   0.554   6.996  11.101  1.0642 -0.7010 -0.6970
  936TIP3    H227004   0.546   6.848  11.135 -0.7672 -0.9027 -1.8703
  937TIP3   OH227005   3.756   0.380  10.585 -0.1767 -0.2377  0.2666
  937TIP3    H127006   3.803   0.378  10.501  0.0326  3.3406  0.1695
  937TIP3    H227007   3.670   0.341  10.565 -0.9178  2.3487 -2.2664
  938TIP3   OH227008   4.305   6.841  10.084  0.1881  0.3540  1.0766
  938TIP3    H127009   4.337   6.800  10.004 -1.7343  0.3271  0.2737
  938TIP3    H227010   4.340   6.786  10.155  0.4517 -0.6685  0.1802
  939TIP3   OH227011   6.166   0.575   9.768 -0.1350 -0.4275  0.1417
  939TIP3    H127012   6.109   0.595   9.694  1.1811 -1.0526 -1.0817
  939TIP3    H227013   6.126   0.499   9.809 -0.9933  0.0530  0.2364
  940TIP3   OH227014   7.103   7.327   9.927 -0.1605  0.1732  0.2264
  940TIP3    H127015   7.194   7.350   9.945 -0.3313 -0.4675  2.0606
  940TIP3    H227016   7.065   7.407   9.889  1.4895 -0.0122 -2.0480
  941TIP3   OH227017   5.594   1.939   9.952 -0.2350  0.6092  0.2830
  941TIP3    H127018   5.619   2.031   9.941 -2.3587  1.4138  1.5690
  941TIP3    H227019   5.523   1.941  10.017 -1.2560 -1.8060 -0.6466
  942TIP3   OH227020   3.993   2.936  10.318 -0.7847  0.0628 -0.2805
  942TIP3    H127021   3.937   2.873  10.271 -0.4021  0.1635 -0.8886
  942TIP3    H227022   3.932   3.000  10.355 -1.0247  0.8830 -1.9941
  943TIP3   OH227023   6.051   5.430   9.332 -0.6699 -0.0345  0.1695
  943TIP3    H127024   6.079   5.360   9.391  2.8496  0.4031 -0.7580
  943TIP3    H227025   5.988   5.389   9.273 -1.8230 -1.2880  2.1745
  944TIP3   OH227026   6.948   7.035   9.623 -0.1011  0.1876 -0.1059
  944TIP3    H127027   7.028   7.087   9.632  0.1913 -0.1111 -0.9087
  944TIP3    H227028   6.975   6.956   9.576 -0.6828 -0.3732  0.4799
  945TIP3   OH227029   2.713   4.155   9.802 -0.1084 -0.1317 -0.4509
  945TIP3    H127030   2.711   4.192   9.891 -1.2819  1.0348 -0.9143
  945TIP3    H227031   2.770   4.079   9.808 -1.3708 -0.9732  1.6607
  946TIP3   OH227032   2.976   4.028  11.317 -0.3807 -0.4734  0.1406
  946TIP3    H127033   2.887   4.061  11.331 -0.1176  0.0677  0.5401
  946TIP3    H227034   2.963   3.937  11.289 -1.0201 -0.7670  1.3434
  947TIP3   OH227035   0.657   0.352   9.935 -0.0821 -0.3747  0.5006
  947TIP3    H127036   0.635   0.431   9.985  2.0203  0.1971  0.6015
  947TIP3    H227037   0.654   0.282  10.000  0.0827 -0.0506  0.8620
  948TIP3   OH227038   0.569   5.045  10.073  0.2949  0.3654  0.7514
  948TIP3    H127039   0.600   5.127  10.112  1.2951  0.8952 -1.0333
  948TIP3    H227040   0.641   5.018  10.015 -0.0564 -1.7319  1.2266
  949TIP3   OH227041   1.388   6.565  10.590  0.3124  0.0994  0.0973
  949TIP3    H127042   1.427   6.626  10.527  0.7657 -1.4972 -1.2580
  949TIP3    H227043   1.297   6.558  10.563  0.1370  0.5487  0.5645
  950TIP3   OH227044   6.175   5.886  10.488 -0.5875 -0.4027 -0.2364
  950TIP3    H127045   6.264   5.923  10.492 -0.7576 -0.0934  0.9359
  950TIP3    H227046   6.166   5.837  10.569 -0.8926 -1.8502 -1.1132
  951TIP3   OH227047   3.416   3.620  10.249  0.0288  0.1382  0.2059
  951TIP3    H127048   3.502   3.662  10.246 -1.0606  2.4211 -1.2427
  951TIP3    H227049   3.357   3.687  10.284 -1.1088 -1.5553  1.6926
  952TIP3   OH227050   3.597   2.743   9.367  0.6420 -0.3535 -0.4424
  952TIP3    H127051   3.578   2.766   9.276 -1.3041 -1.1203 -0.2935
  952TIP3    H227052   3.536   2.797   9.418  1.1430 -0.5288  0.3451
  953TIP3   OH227053   3.185   4.017   9.778 -0.2228  0.1773 -0.3481
  953TIP3    H127054   3.189   3.946   9.842 -2.1066  0.3307 -0.0112
  953TIP3    H227055   3.136   4.087   9.823  1.2107  1.5631 -0.8190
  954TIP3   OH227056   6.380   0.377  11.421 -0.0946 -0.1585 -0.6016
  954TIP3    H127057   6.364   0.286  11.449 -0.3548 -0.1215 -0.6229
  954TIP3    H227058   6.333   0.430  11.485  1.9735  0.0809  0.8184
  955TIP3   OH227059   7.159   6.253   9.379 -0.3753 -0.1113 -0.1293
  955TIP3    H127060   7.215   6.178   9.397 -0.9978 -1.2312 -2.4977
  955TIP3    H227061   7.177   6.314   9.451  1.6599 -1.6510  0.7692
  956TIP3   OH227062   1.196   1.964   9.535  0.3495 -0.6183 -0.4951
  956TIP3    H127063   1.108   1.948   9.502 -0.2976 -2.5872  1.8896
  956TIP3    H227064   1.199   2.059   9.548 -2.2377 -0.6567  1.2529
  957TIP3   OH227065   3.280   5.610  10.721 -0.4860 -0.0802 -0.7574
  957TIP3    H127066   3.318   5.596  10.635  1.1485 -0.8885  0.0525
  957TIP3    H227067   3.332   5.555  10.780 -0.3111  1.8726  1.0310
  958TIP3   OH227068   0.332   4.013   9.378  0.7857 -0.7058  0.5837
  958TIP3    H127069   0.267   3.965   9.430 -0.5566  1.1831  0.7731
  958TIP3    H227070   0.378   3.945   9.329 -1.2356 -2.1728  0.5617
  959TIP3   OH227071   0.713   0.585   8.509  0.0480  0.2761 -0.1011
  959TIP3    H127072   0.647   0.652   8.526 -0.2838  0.0045 -0.3223
  959TIP3    H227073   0.671   0.523   8.450 -0.0771 -0.7813  1.0418
  960TIP3   OH227074   4.810   0.503  11.258  0.5896 -0.1270  0.5023
  960TIP3    H127075   4.786   0.416  11.225 -0.7639 -0.2220  1.6077
  960TIP3    H227076   4.867   0.484  11.333  0.1879 -0.0904  0.8249
  961TIP3   OH227077   5.643   1.195   9.937 -0.0673  0.2562  0.3874
  961TIP3    H127078   5.566   1.198   9.994 -0.2532  0.5545  0.1239
  961TIP3    H227079   5.717   1.214   9.995 -0.3959  2.0769  0.2875
  962TIP3   OH227080   0.201   4.475   8.825 -0.1160 -0.2469  0.2381
  962TIP3    H127081   0.172   4.461   8.734 -0.2881 -0.1811  0.2817
  962TIP3    H227082   0.131   4.527   8.864  0.8764  1.4518 -0.1475
  963TIP3   OH227083   5.308   0.504  10.068 -0.1408  0.1044 -0.5209
  963TIP3    H127084   5.325   0.592  10.037 -0.5977  0.1047 -0.7806
  963TIP3    H227085   5.216   0.506  10.096 -0.2787 -0.4030 -0.9282
  964TIP3   OH227086   0.042   4.521   9.258 -0.2474 -0.7387 -0.3686
  964TIP3    H127087   0.105   4.453   9.283  2.0495  0.5326 -2.2427
  964TIP3    H227088  -0.022   4.475   9.204 -1.2167 -2.1245  1.8278
  965TIP3   OH227089   6.583   4.503   9.075  0.1671  0.0702  0.4076
  965TIP3    H127090   6.513   4.441   9.092  1.8341 -1.7813  0.8131
  965TIP3    H227091   6.559   4.545   8.992 -1.7115 -0.0157  0.8745
  966TIP3   OH227092   0.305   0.867  10.341 -0.1581  0.2156  0.0456
  966TIP3    H127093   0.225   0.917  10.330 -1.6200 -2.0752 -0.4581
  966TIP3    H227094   0.285   0.781  10.304  2.4842 -0.5117  0.0629
  967TIP3   OH227095   1.160   2.186   8.721  0.1763 -0.3580  0.1165
  967TIP3    H127096   1.238   2.232   8.751 -0.1557  0.9247 -0.8946
  967TIP3    H227097   1.190   2.130   8.649  0.0297  0.8683 -0.9277
  968TIP3   OH227098   2.272   2.198   8.419 -0.3107 -0.1415 -0.1508
  968TIP3    H127099   2.267   2.103   8.429  0.7685 -0.2338 -0.4088
  968TIP3    H227100   2.181   2.227   8.426 -0.7490 -1.2681 -0.8600
  969TIP3   OH227101   5.013   3.809  10.114  0.0173  0.0200 -0.1968
  969TIP3    H127102   5.042   3.719  10.129 -1.7532 -0.7180 -0.9884
  969TIP3    H227103   5.057   3.835  10.033 -0.5498 -0.6374 -0.7215
  970TIP3   OH227104   5.529   0.373  10.800 -0.0351 -0.3574  0.0205
  970TIP3    H127105   5.498   0.338  10.716 -0.4552  1.3866 -0.6027
  970TIP3    H227106   5.605   0.427  10.776 -0.1733  0.1729  0.7490
  971TIP3   OH227107   1.650   1.248   9.737 -0.4837 -0.1906  0.0529
  971TIP3    H127108   1.566   1.289   9.716  0.5238  2.0861  0.2568
  971TIP3    H227109   1.661   1.260   9.831  0.5273  0.4907 -0.1323
  972TIP3   OH227110   5.620   1.755  10.819  0.2929  0.1957  0.0296
  972TIP3    H127111   5.602   1.794  10.905 -2.2349  1.1872 -0.8628
  972TIP3    H227112   5.658   1.826  10.768  0.1789  0.1034 -0.1842
  973TIP3   OH227113   6.053   3.134   9.306  0.1273 -0.2224 -0.0258
  973TIP3    H127114   6.118   3.128   9.236 -1.3977 -2.1894 -1.3758
  973TIP3    H227115   6.045   3.228   9.323  1.6405  0.2034 -1.4461
  974TIP3   OH227116   4.134   0.731   9.031  0.3961 -0.0052 -0.1964
  974TIP3    H127117   4.163   0.796   9.096 -0.7274  1.7740 -1.3823
  974TIP3    H227118   4.180   0.755   8.951 -1.0405  0.2312 -0.9980
  975TIP3   OH227119   2.557   6.231  10.001 -0.0526 -0.5788 -0.1272
  975TIP3    H127120   2.575   6.140   9.978 -2.8356 -1.3481  0.3819
  975TIP3    H227121   2.474   6.251   9.959  0.5140  1.7975 -0.2756
  976TIP3   OH227122   1.884   3.601   8.858 -0.1452  0.4283  0.2684
  976TIP3    H127123   1.813   3.652   8.818 -1.1385 -0.4023  0.9209
  976TIP3    H227124   1.941   3.577   8.785 -0.3420  1.3969 -0.2184
  977TIP3   OH227125   2.635   3.855  10.268 -0.1354 -0.0502  0.5317
  977TIP3    H127126   2.660   3.924  10.207 -2.0491  0.3749  0.1700
  977TIP3    H227127   2.601   3.901  10.344 -0.9204 -0.5820  0.5156
  978TIP3   OH227128   5.501   3.426  10.493  0.1856  0.8517 -0.1716
  978TIP3    H127129   5.550   3.423  10.575  0.1458  0.3735 -0.1630
  978TIP3    H227130   5.516   3.340  10.453 -0.1703  0.9147 -0.4463
  979TIP3   OH227131   7.334   5.988  10.340  0.1596 -0.6380  0.0582
  979TIP3    H127132   7.427   6.001  10.325  0.0860 -0.0825  0.0565
  979TIP3    H227133   7.325   5.895  10.360  0.6674 -0.7594 -0.2799
  980TIP3   OH227134   7.509   2.810   9.551  0.2467 -0.4001 -0.0859
  980TIP3    H127135   7.518   2.893   9.504  2.4521 -1.0565 -0.9109
  980TIP3    H227136   7.482   2.836   9.639  1.4627  1.2488 -0.1624
  981TIP3   OH227137   4.487   1.755   8.597 -0.1859  0.2721  0.0436
  981TIP3    H127138   4.428   1.710   8.537 -1.0403  0.3554  0.7917
  981TIP3    H227139   4.540   1.685   8.635 -0.0270  0.1548 -0.3917
  982TIP3   OH227140   7.459   7.229   9.745 -0.0439  0.0456  0.2743
  982TIP3    H127141   7.517   7.154   9.734 -0.9900 -0.4093 -2.3038
  982TIP3    H227142   7.503   7.301   9.700 -0.5169  0.2440  0.1236
  983TIP3   OH227143   1.976   3.634   9.932 -0.2977 -0.1633 -0.3954
  983TIP3    H127144   1.983   3.541   9.957 -0.6026 -0.6289 -1.9131
  983TIP3    H227145   1.912   3.671   9.992 -0.6429 -1.1055 -0.1659
  984TIP3   OH227146   0.183   2.558  10.559  0.1034  0.0302 -0.1450
  984TIP3    H127147   0.091   2.531  10.566 -0.3728  1.3433 -0.9571
  984TIP3    H227148   0.214   2.560  10.650 -0.9251  0.4041  0.2190
  985TIP3   OH227149   6.115   0.167  10.446 -0.3326 -0.5661  0.6185
  985TIP3    H127150   6.118   0.153  10.351 -1.0771 -0.8527  0.6345
  985TIP3    H227151   6.055   0.100  10.478 -1.6649  0.7943  1.0527
  986TIP3   OH227152   3.979   1.961   9.782 -0.0173 -0.3051  0.2141
  986TIP3    H127153   3.913   2.030   9.788  1.5874  1.1740  2.5582
  986TIP3    H227154   4.014   1.970   9.693 -0.1401  1.6367  0.3200
  987TIP3   OH227155   6.279   3.795   8.711 -0.1339  0.7138 -0.1506
  987TIP3    H127156   6.229   3.718   8.737  0.4107 -0.1812 -1.5959
  987TIP3    H227157   6.336   3.763   8.641 -0.3818  2.5889 -1.2638
  988TIP3   OH227158   3.270   1.708   9.565 -0.2173  0.0621 -0.0517
  988TIP3    H127159   3.291   1.646   9.496  0.0533 -0.3018  0.3487
  988TIP3    H227160   3.355   1.728   9.606 -0.5716 -1.2026  1.4013
  989TIP3   OH227161   2.774   4.976  10.244 -0.2996 -0.3226  0.1286
  989TIP3    H127162   2.791   4.991  10.337 -1.6659 -0.8064  0.4829
  989TIP3    H227163   2.739   4.887  10.240 -0.2673 -0.2995 -0.8437
  990TIP3   OH227164   1.101   2.420   8.502 -0.2176  0.6092 -0.3930
  990TIP3    H127165   1.120   2.330   8.527 -0.9430 -0.2216 -2.6411
  990TIP3    H227166   1.141   2.430   8.416  0.9704  2.8899  0.3322
  991TIP3   OH227167   3.773   4.665   9.679  0.4978  0.4555  0.6196
  991TIP3    H127168   3.843   4.614   9.719  0.7134 -0.5721 -0.9827
  991TIP3    H227169   3.809   4.695   9.595 -1.1223 -0.6143 -0.5243
  992TIP3   OH227170   4.167   5.029   8.293 -0.0349  0.0512 -0.4810
  992TIP3    H127171   4.147   5.096   8.358 -0.6335 -1.0806  0.5416
  992TIP3    H227172   4.087   4.977   8.286  0.5148 -0.7646 -0.9862
  993TIP3   OH227173   3.482   2.927   9.553  0.1771 -0.5084 -0.6483
  993TIP3    H127174   3.487   3.016   9.586  1.0417 -0.4850 -0.8044
  993TIP3    H227175   3.390   2.903   9.561 -0.0467  0.3629 -0.5218
  994TIP3   OH227176   4.195   2.574   9.765  0.4573  0.0052  0.4528
  994TIP3    H127177   4.273   2.520   9.776  1.9727  1.9979  0.0234
  994TIP3    H227178   4.228   2.664   9.767 -1.6556  0.8782 -1.1576
  995TIP3   OH227179   2.362   4.956   9.316  0.1291  0.1126 -0.1913
  995TIP3    H127180   2.324   5.043   9.318  0.0502  0.0792 -0.2365
  995TIP3    H227181   2.358   4.931   9.224 -3.1915 -1.4052  0.2162
  996TIP3   OH227182   5.545   0.621   9.759  0.1912 -0.5231  0.6193
  996TIP3    H127183   5.567   0.706   9.721  1.2238 -0.5118  1.1960
  996TIP3    H227184   5.526   0.641   9.851  1.3134 -1.0174  0.9748
  997TIP3   OH227185   3.364   0.306   9.495  0.1972  0.0502  0.2678
  997TIP3    H127186   3.300   0.306   9.567 -0.8471  1.1898 -0.6026
  997TIP3    H227187   3.320   0.258   9.424  1.1275 -0.8845  0.3080
  998TIP3   OH227188   0.805   5.039  10.490  0.3485  0.2566  0.4240
  998TIP3    H127189   0.728   4.987  10.515 -0.5158  0.7966 -1.0331
  998TIP3    H227190   0.807   5.035  10.395  0.5653  2.4277  0.2866
  999TIP3   OH227191   7.175   4.566   9.152  0.6035 -1.1686 -0.8700
  999TIP3    H127192   7.170   4.561   9.057  0.0352 -1.3667 -0.8336
  999TIP3    H227193   7.099   4.516   9.183 -0.6373  0.8774 -0.3665
 1000TIP3   OH227194   4.840   5.934  10.819  0.3628 -0.0252 -0.3856
 1000TIP3    H127195   4.931   5.942  10.791  0.2911  0.3883 -0.5045
 1000TIP3    H227196   4.817   5.843  10.803  0.9784 -0.3114  0.3132
 1001TIP3   OH227197   1.189   3.755   9.449 -0.0012  0.4681 -0.2488
 1001TIP3    H127198   1.148   3.836   9.418 -0.9484  0.2222  0.3300
 1001TIP3    H227199   1.253   3.785   9.514  0.7355  0.8480 -1.1200
 1002TIP3   OH227200   4.028   3.990  10.036 -0.0527 -0.2607  0.1961
 1002TIP3    H127201   4.097   3.986   9.971 -0.6446  1.1698 -0.5674
 1002TIP3    H227202   3.970   3.917  10.015  1.5232 -1.9109  1.2738
 1003TIP3   OH227203   0.959   7.080   8.751  0.2665 -0.0298  0.4162
 1003TIP3    H127204   0.959   6.993   8.710  2.6672  0.4838 -0.8628
 1003TIP3    H227205   0.971   7.140   8.678  2.5616  1.0844  1.6246
 1004TIP3   OH227206   1.190   0.412  10.234 -0.6478 -0.4719 -0.1344
 1004TIP3    H127207   1.223   0.478  10.173 -0.8860 -0.1837  0.0485
 1004TIP3    H227208   1.105   0.386  10.197  0.0541 -1.7135 -0.9859
 1005TIP3   OH227209   3.030   3.763  11.204  0.1517  0.2454 -0.2125
 1005TIP3    H127210   3.115   3.791  11.171  0.5689 -1.7207 -0.8958
 1005TIP3    H227211   3.015   3.677  11.164 -0.9925 -0.5897  1.8568
 1006TIP3   OH227212   0.163   2.028  10.683  0.4043 -0.2552  0.3533
 1006TIP3    H127213   0.113   2.097  10.726  0.2048 -0.3000  0.1910
 1006TIP3    H227214   0.255   2.050  10.703  0.2784 -0.8589  1.6830
 1007TIP3   OH227215   2.669   4.527  10.704  0.3179  0.5150 -0.1606
 1007TIP3    H127216   2.658   4.454  10.764 -1.5461 -1.3972 -2.6266
 1007TIP3    H227217   2.604   4.591  10.732  0.2825  0.1628  0.5692
 1008TIP3   OH227218   0.228   1.986   8.635  0.0650 -0.1115  0.1448
 1008TIP3    H127219   0.192   2.041   8.565  0.6490 -0.9076 -0.7951
 1008TIP3    H227220   0.188   2.020   8.715 -4.3796 -2.1422 -0.9429
 1009TIP3   OH227221   0.909   6.428  10.324  0.5738  0.3867 -0.2387
 1009TIP3    H127222   0.903   6.333  10.316  1.5330  0.4833 -3.1404
 1009TIP3    H227223   0.825   6.460  10.294  0.3795  0.4970  0.4021
 1010TIP3   OH227224   7.164   2.649  10.143 -0.2323  0.2404 -0.0513
 1010TIP3    H127225   7.131   2.728  10.187  2.5658  0.1539  2.4966
 1010TIP3    H227226   7.239   2.621  10.196  1.5848 -1.6800 -3.3104
 1011TIP3   OH227227   1.846   0.049   9.264 -0.4265  0.2600 -0.2419
 1011TIP3    H127228   1.817   0.009   9.345 -0.7170  0.3417 -0.3061
 1011TIP3    H227229   1.834   0.143   9.277 -0.7811  0.2518 -0.4995
 1012TIP3   OH227230   7.204   5.691   9.618 -0.2034  0.0397  0.0942
 1012TIP3    H127231   7.113   5.723   9.620 -0.5584 -0.9292  0.1505
 1012TIP3    H227232   7.222   5.677   9.525 -0.2321 -0.0962  0.1089
 1013TIP3   OH227233   4.987   5.279   9.071  0.0578  0.0840 -0.0604
 1013TIP3    H127234   4.955   5.207   9.016  0.2860 -0.7680  0.8941
 1013TIP3    H227235   5.065   5.311   9.025  0.9586 -1.4180  0.3420
 1014TIP3   OH227236   4.397   1.321  11.099 -0.2557  0.7294 -0.1825
 1014TIP3    H127237   4.350   1.398  11.069 -0.6410  0.3515 -0.5668
 1014TIP3    H227238   4.343   1.247  11.071  0.2109  0.3101 -0.0048
 1015TIP3   OH227239   4.579   7.641  10.194  0.4758 -0.0905  0.0662
 1015TIP3    H127240   4.542   7.556  10.169 -1.2903  1.1400 -1.7775
 1015TIP3    H227241   4.511   7.680  10.250  0.8937  0.4746  0.1841
 1016TIP3   OH227242   5.174   2.213  10.316  0.5038  0.2645 -0.2401
 1016TIP3    H127243   5.182   2.131  10.366  2.7208 -0.2190 -1.2281
 1016TIP3    H227244   5.246   2.267  10.349  1.3567  0.3319 -2.1146
 1017TIP3   OH227245   0.070   5.252   9.267 -0.1703  0.5536  0.4030
 1017TIP3    H127246   0.017   5.199   9.206 -0.0113  0.8400  0.0085
 1017TIP3    H227247   0.143   5.283   9.214  0.0912  0.6221  0.8051
 1018TIP3   OH227248   3.826   2.317   8.885 -0.6706  0.4462  0.1435
 1018TIP3    H127249   3.775   2.376   8.830 -0.2744 -1.0451 -1.9058
 1018TIP3    H227250   3.910   2.363   8.898 -0.7019  0.7466 -0.6629
 1019TIP3   OH227251   3.424   0.747   9.775 -0.5238 -0.1699 -0.2390
 1019TIP3    H127252   3.457   0.659   9.792 -1.7006 -0.5771  0.0186
 1019TIP3    H227253   3.378   0.771   9.855 -0.3039  0.6503 -0.3431
 1020TIP3   OH227254   2.311   1.760  10.388  0.0111  0.0987 -0.1742
 1020TIP3    H127255   2.405   1.773  10.400 -0.2517  1.1604  0.9330
 1020TIP3    H227256   2.276   1.847  10.369 -0.8083 -0.1916 -0.0656
 1021TIP3   OH227257   4.778   2.727   9.465  0.2458 -0.9513  0.0510
 1021TIP3    H127258   4.843   2.701   9.529  0.9663 -0.6524 -0.5452
 1021TIP3    H227259   4.694   2.701   9.504  0.5461  0.3749  1.6770
 1022TIP3   OH227260   7.304   6.801   9.225  0.8298  0.4853 -0.8870
 1022TIP3    H127261   7.279   6.717   9.187  0.0457  0.9952 -1.5597
 1022TIP3    H227262   7.391   6.787   9.261  0.8421 -0.5261 -1.2778
 1023TIP3   OH227263   2.383   0.727   9.676 -0.4813  0.8022 -0.0446
 1023TIP3    H127264   2.336   0.645   9.685  0.9719 -0.1809 -0.9686
 1023TIP3    H227265   2.418   0.725   9.586  1.1217  1.5575  0.5191
 1024TIP3   OH227266   7.614   2.868  10.225 -0.7190 -0.7297 -0.4377
 1024TIP3    H127267   7.673   2.940  10.248 -0.4502 -1.6077  1.7841
 1024TIP3    H227268   7.532   2.912  10.203  0.0686  0.3665 -1.3714
 1025TIP3   OH227269   6.675   4.998   9.833  0.4209  0.5709  0.1534
 1025TIP3    H127270   6.639   4.944   9.763 -0.6672  2.3799 -0.7560
 1025TIP3    H227271   6.648   4.953   9.914 -1.9055  0.5987 -0.5367
 1026TIP3   OH227272   3.169   2.405  10.653 -0.0432 -0.1746  0.6624
 1026TIP3    H127273   3.143   2.454  10.575  2.4395 -0.6144 -0.5288
 1026TIP3    H227274   3.197   2.472  10.716  2.5337  0.0960 -0.6495
 1027TIP3   OH227275   2.643   6.722  10.880  0.3276  0.5158 -0.0709
 1027TIP3    H127276   2.734   6.753  10.881  0.7420 -0.6559 -0.0972
 1027TIP3    H227277   2.650   6.627  10.873 -0.9036  0.3903  0.1789
 1028TIP3   OH227278   3.774   5.385   9.596 -0.0494  0.0854  0.0031
 1028TIP3    H127279   3.756   5.403   9.688 -0.0959  0.5873 -0.1017
 1028TIP3    H227280   3.727   5.303   9.578  0.5666 -0.4126  0.6138
 1029TIP3   OH227281   3.248   3.825   9.973  0.4710  0.1677 -0.4315
 1029TIP3    H127282   3.336   3.810   9.938  0.2060  1.5738 -1.8047
 1029TIP3    H227283   3.193   3.764   9.924  0.2974  1.1971 -1.5396
 1030TIP3   OH227284   7.293   0.540   9.848  1.0032  0.0787 -0.5180
 1030TIP3    H127285   7.250   0.626   9.848  0.3226 -0.2485  0.5126
 1030TIP3    H227286   7.254   0.494   9.774 -1.6305 -0.7664  1.2815
 1031TIP3   OH227287   3.921   6.324   9.506  0.3111  0.6036  0.1271
 1031TIP3    H127288   3.878   6.358   9.585  0.0338  0.7475 -0.0834
 1031TIP3    H227289   3.968   6.246   9.536  1.4717  1.5094  0.7431
 1032TIP3   OH227290   7.420   3.963   8.897 -0.1314 -0.6497  0.2602
 1032TIP3    H127291   7.350   3.918   8.943  0.0329 -1.9153 -0.6740
 1032TIP3    H227292   7.466   4.012   8.965 -2.1205  0.5180  0.8338
 1033TIP3   OH227293   6.790   6.374   9.064  0.1169 -0.0290 -0.1732
 1033TIP3    H127294   6.752   6.455   9.098  3.3311  1.2799  0.6157
 1033TIP3    H227295   6.840   6.337   9.137  1.5523 -0.8461 -1.5072
 1034TIP3   OH227296   2.984   3.648   9.544  0.5355  0.2894 -0.0730
 1034TIP3    H127297   3.032   3.698   9.478  0.8184  1.4284  0.9391
 1034TIP3    H227298   2.899   3.631   9.505  0.6019  1.1722 -0.6361
 1035TIP3   OH227299   2.495   1.316  10.144 -0.1102 -0.2423 -0.1295
 1035TIP3    H127300   2.447   1.236  10.122 -1.5400  0.2644  0.9808
 1035TIP3    H227301   2.511   1.308  10.238  0.7509  0.2667 -0.2261
 1036TIP3   OH227302   6.224   7.445   9.958 -0.0116  0.1433  0.1781
 1036TIP3    H127303   6.277   7.370   9.931  0.0587  0.4513 -0.5768
 1036TIP3    H227304   6.249   7.515   9.897 -0.2217  0.7215  0.7437
 1037TIP3   OH227305   0.484   5.158   9.808  0.3048 -0.3786 -0.1420
 1037TIP3    H127306   0.442   5.243   9.798 -1.2486 -1.0527  0.3268
 1037TIP3    H227307   0.456   5.127   9.894 -0.0908 -1.8504 -0.7586
 1038TIP3   OH227308   0.004   1.467   9.608 -0.0799  0.6077 -0.3213
 1038TIP3    H127309  -0.036   1.388   9.643 -0.7290  1.9957  2.3462
 1038TIP3    H227310  -0.045   1.485   9.528 -1.3321 -0.5262  0.1547
 1039TIP3   OH227311   5.420   7.417   9.981  0.3369 -0.1614 -0.4690
 1039TIP3    H127312   5.467   7.417  10.065 -0.4746 -0.7333  0.0051
 1039TIP3    H227313   5.365   7.339   9.985  1.6749 -1.3000 -2.3344
 1040TIP3   OH227314   2.822   3.459  10.098 -0.3568  0.3281  0.2829
 1040TIP3    H127315   2.865   3.463  10.183  0.7204 -2.7315 -0.0005
 1040TIP3    H227316   2.741   3.411  10.114  0.4879 -1.4740 -0.5483
 1041TIP3   OH227317   2.563   7.288  11.295 -0.3898 -0.0107  0.0025
 1041TIP3    H127318   2.645   7.296  11.343  0.7888 -2.0505 -1.5554
 1041TIP3    H227319   2.524   7.207  11.328 -2.7538  1.7501  1.9719
 1042TIP3   OH227320   3.140   3.459  10.033  0.2882 -0.2323  0.1040
 1042TIP3    H127321   3.062   3.490   9.988  0.6527 -0.3295 -0.6095
 1042TIP3    H227322   3.122   3.475  10.126  0.7186  2.7859 -0.2290
 1043TIP3   OH227323   0.683   7.087  11.027  0.4923 -0.0770 -0.3047
 1043TIP3    H127324   0.777   7.089  11.042  0.2738  0.6366  1.2668
 1043TIP3    H227325   0.669   7.143  10.951  1.2228  1.1171  0.4020
 1044TIP3   OH227326   2.107   5.958   9.772 -0.4006 -0.2782 -0.0345
 1044TIP3    H127327   2.169   6.030   9.779  1.0923 -1.6132  1.3178
 1044TIP3    H227328   2.024   5.999   9.747  0.8131  1.6614 -1.0800
 1045TIP3   OH227329   0.713   3.318  10.447 -0.1148 -0.0318  0.0657
 1045TIP3    H127330   0.653   3.263  10.499 -2.2177 -0.3037 -2.4279
 1045TIP3    H227331   0.667   3.401  10.438  1.4560  0.9572  0.8543
 1046TIP3   OH227332   3.629   7.234  10.763  0.2292  0.1515  0.2351
 1046TIP3    H127333   3.534   7.221  10.758  0.0616  1.2439  0.4483
 1046TIP3    H227334   3.665   7.156  10.720 -0.7462 -0.5097  0.5708
 1047TIP3   OH227335   5.818   6.921   9.893 -0.0491  0.4486 -0.3244
 1047TIP3    H127336   5.885   6.862   9.928 -1.5239 -0.8863  0.4049
 1047TIP3    H227337   5.867   6.995   9.857  1.9521 -1.6066 -2.0931
 1048TIP3   OH227338   1.957   0.997   9.088  0.2707  0.2213 -0.6476
 1048TIP3    H127339   2.031   1.058   9.079  1.8606 -1.5158 -0.1212
 1048TIP3    H227340   1.964   0.940   9.011 -0.5705  0.0684 -0.6167
 1049TIP3   OH227341   2.906   7.547   9.857 -0.1647 -0.0868 -0.6586
 1049TIP3    H127342   2.970   7.487   9.820  0.6965  0.3620  0.0601
 1049TIP3    H227343   2.947   7.580   9.937 -0.6053  1.4361 -1.0111
 1050TIP3   OH227344   2.054   2.905   9.600 -0.0509  0.6142 -0.2436
 1050TIP3    H127345   2.030   2.938   9.687  0.0356 -0.7028  0.3013
 1050TIP3    H227346   2.150   2.909   9.600 -0.0444  0.4426 -0.2121
 1051TIP3   OH227347   4.730   3.338  10.029  0.2608 -0.1872 -0.4966
 1051TIP3    H127348   4.793   3.404  10.000 -0.1058  0.8353  0.9156
 1051TIP3    H227349   4.705   3.365  10.117  1.3178 -3.1141  0.8458
 1052TIP3   OH227350   0.473   2.412   8.944  0.2943  0.4225 -0.9697
 1052TIP3    H127351   0.553   2.433   8.896  0.5487  0.0056 -0.7356
 1052TIP3    H227352   0.412   2.381   8.877  1.3268 -2.1799 -0.8353
 1053TIP3   OH227353   3.066   2.375   9.918  0.2505 -0.6032 -0.6714
 1053TIP3    H127354   2.997   2.422   9.873  0.4039 -0.0170 -0.2991
 1053TIP3    H227355   3.107   2.322   9.850 -0.5330 -0.9269 -0.9035
 1054TIP3   OH227356   2.822   1.777  10.758  0.2245 -0.4989 -0.3979
 1054TIP3    H127357   2.754   1.777  10.825  1.5760  0.4278  1.0532
 1054TIP3    H227358   2.848   1.869  10.751  2.1824 -0.9552  0.0540
 1055TIP3   OH227359   1.578   0.680   8.831 -0.3029  0.0798  0.0585
 1055TIP3    H127360   1.606   0.658   8.742 -0.8437  0.0076 -0.0970
 1055TIP3    H227361   1.557   0.773   8.828 -1.6412 -0.2151 -0.2460
 1056TIP3   OH227362   1.917   4.419   8.946  0.1760 -0.3443  0.2012
 1056TIP3    H127363   1.993   4.387   8.994 -0.7549 -1.0794  1.2156
 1056TIP3    H227364   1.889   4.344   8.893  0.7572  0.2386 -0.9613
 1057TIP3   OH227365   1.207   4.647   9.619  0.7401  0.0324  0.1915
 1057TIP3    H127366   1.164   4.689   9.544 -0.4542 -1.1866  0.1510
 1057TIP3    H227367   1.301   4.661   9.603  0.5339 -0.3869 -1.6657
 1058TIP3   OH227368   7.609   1.917  10.850  0.3318 -0.2644 -0.1165
 1058TIP3    H127369   7.620   2.001  10.806 -1.0536 -0.2409 -0.4607
 1058TIP3    H227370   7.616   1.852  10.781 -0.3931 -0.3157 -0.1468
 1059TIP3   OH227371   2.733   6.473   9.414  0.0633 -0.2136  0.2872
 1059TIP3    H127372   2.703   6.563   9.426 -2.5331 -1.0865  0.8833
 1059TIP3    H227373   2.730   6.459   9.319 -1.8381 -0.3537  0.3346
 1060TIP3   OH227374   5.947   7.643   9.121  0.1528 -0.3127  0.2337
 1060TIP3    H127375   5.872   7.594   9.088  0.8203 -0.1927 -1.5526
 1060TIP3    H227376   6.023   7.591   9.095  0.8943  1.6133 -1.7749
 1061TIP3   OH227377   7.547   4.407   9.085 -0.1322  0.5639  0.1269
 1061TIP3    H127378   7.537   4.313   9.072 -0.9562  0.7550 -0.7367
 1061TIP3    H227379   7.503   4.447   9.010  1.4105  1.6192 -0.2911
 1062TIP3   OH227380   3.839   5.995  10.182 -0.4100  0.3122 -0.3404
 1062TIP3    H127381   3.873   5.960  10.099  0.3598  1.0798 -0.3679
 1062TIP3    H227382   3.753   6.030  10.160 -1.3616 -1.8065 -0.2408
 1063TIP3   OH227383   5.098   3.500   9.744  1.1048 -0.0680 -0.3082
 1063TIP3    H127384   5.067   3.458   9.663  1.3105 -0.1617 -0.3386
 1063TIP3    H227385   5.170   3.557   9.716 -0.9204  2.4793 -0.7020
 1064TIP3   OH227386   0.778   5.862   8.844  0.1355 -0.1927  0.4422
 1064TIP3    H127387   0.852   5.881   8.901 -0.1989 -1.3382  1.2934
 1064TIP3    H227388   0.723   5.803   8.895 -0.4351 -0.8432 -0.8827
 1065TIP3   OH227389   1.501   5.292   9.484  0.6339  0.4814 -0.6807
 1065TIP3    H127390   1.484   5.222   9.422 -1.2232  0.7938 -0.5854
 1065TIP3    H227391   1.533   5.247   9.563  0.1625 -0.1977 -0.8701
 1066TIP3   OH227392   2.246   1.397   8.284  0.1676 -0.3919 -0.6215
 1066TIP3    H127393   2.205   1.396   8.371 -2.1823  1.9480 -1.5633
 1066TIP3    H227394   2.317   1.461   8.291 -0.9074  0.8524 -0.7126
 1067TIP3   OH227395   7.098   0.729   8.507  0.6145  0.3086  0.4620
 1067TIP3    H127396   7.102   0.650   8.560  2.3728 -0.4720 -0.7268
 1067TIP3    H227397   7.079   0.799   8.569  0.1121 -0.8916  1.7043
 1068TIP3   OH227398   4.163   0.590  10.750 -0.4205  0.5445 -0.8617
 1068TIP3    H127399   4.201   0.615  10.665  0.2191  1.8832 -0.2137
 1068TIP3    H227400   4.231   0.540  10.793 -0.6103  0.1733 -0.9911
 1069TIP3   OH227401   5.931   0.026   9.719 -0.2268  0.1516 -0.0996
 1069TIP3    H127402   5.932  -0.066   9.693 -0.9939 -0.0476  0.5325
 1069TIP3    H227403   5.961   0.073   9.641  2.4089 -0.7695  0.2438
 1070TIP3   OH227404   7.258   7.552   9.338  0.3030 -0.3141 -0.2144
 1070TIP3    H127405   7.253   7.460   9.311 -1.7062  0.4690 -2.8914
 1070TIP3    H227406   7.328   7.589   9.285 -0.4280  0.1775 -0.8559
 1071TIP3   OH227407   2.270   6.567  10.240 -0.3332 -0.1812  0.0514
 1071TIP3    H127408   2.181   6.592  10.267  0.0488  1.6828 -0.2501
 1071TIP3    H227409   2.290   6.489  10.291 -1.6243  0.1635  1.1388
 1072TIP3   OH227410   5.651   2.748  11.133  0.3188 -0.1903 -0.3978
 1072TIP3    H127411   5.720   2.757  11.067  0.0379 -1.1874 -0.8353
 1072TIP3    H227412   5.677   2.672  11.185 -0.0676 -0.1181 -0.0914
 1073TIP3   OH227413   6.777   2.656  10.696  0.2142 -0.1126  0.4038
 1073TIP3    H127414   6.835   2.584  10.718  0.1949 -0.4547 -0.6054
 1073TIP3    H227415   6.834   2.733  10.697  1.0634 -0.6137 -1.9027
 1074TIP3   OH227416   6.904   0.975   9.583 -0.4372 -0.4456 -0.0769
 1074TIP3    H127417   6.918   1.028   9.662 -1.3903 -2.1689  1.3290
 1074TIP3    H227418   6.974   0.909   9.586 -0.2789 -0.3166 -0.8623
 1075TIP3   OH227419   5.454   3.095   9.866 -0.0608  0.2185  0.7625
 1075TIP3    H127420   5.528   3.155   9.879  1.2837 -0.8375 -1.4878
 1075TIP3    H227421   5.382   3.152   9.839  0.8702  0.9873 -0.2153
 1076TIP3   OH227422   5.791   5.282  10.125 -0.2089  0.3720 -0.0580
 1076TIP3    H127423   5.818   5.297  10.215  0.8612 -0.5390 -0.2117
 1076TIP3    H227424   5.699   5.309  10.123 -0.9015 -1.5485  1.8264
 1077TIP3   OH227425   6.458   1.772  11.182 -0.4188  0.4354 -0.0452
 1077TIP3    H127426   6.365   1.784  11.165 -0.5513 -0.4619 -0.0038
 1077TIP3    H227427   6.501   1.839  11.130 -1.0849  0.8372 -0.0917
 1078TIP3   OH227428   1.882   3.745  10.811  0.0817 -0.3075 -0.4830
 1078TIP3    H127429   1.838   3.711  10.888  2.1834 -2.0507  0.0263
 1078TIP3    H227430   1.889   3.839  10.827  0.2570 -0.5958  1.3631
 1079TIP3   OH227431   5.859   5.192   9.236  0.4994  0.0941 -0.8274
 1079TIP3    H127432   5.909   5.149   9.166 -0.9976 -1.8041 -0.7928
 1079TIP3    H227433   5.778   5.221   9.193 -0.5751 -1.3747  0.1448
 1080TIP3   OH227434   0.121   3.174   9.191 -0.4504 -0.3338  0.0611
 1080TIP3    H127435   0.052   3.138   9.135 -1.0420 -0.9077  1.1194
 1080TIP3    H227436   0.074   3.215   9.263  0.3019  0.2159  0.2516
 1081TIP3   OH227437   7.442   1.154  10.495  0.2623  0.1012  0.3633
 1081TIP3    H127438   7.395   1.133  10.415  1.0056 -1.0224  0.1966
 1081TIP3    H227439   7.405   1.237  10.524 -0.9355 -0.1337 -0.4260
 1082TIP3   OH227440   6.144   3.346   9.071 -0.1358 -0.3081 -0.4509
 1082TIP3    H127441   6.202   3.282   9.030 -0.1402 -0.5326 -0.1086
 1082TIP3    H227442   6.061   3.337   9.024 -0.2678 -0.8560 -0.1224
 1083TIP3   OH227443   3.895   4.140  11.307 -0.0878 -0.3381  0.0872
 1083TIP3    H127444   3.858   4.161  11.392 -0.4660 -2.7526  0.5716
 1083TIP3    H227445   3.847   4.197  11.246 -0.9582  0.2548  1.2776
 1084TIP3   OH227446   1.794   3.839   8.715  0.0587 -0.3992  0.1894
 1084TIP3    H127447   1.762   3.866   8.628  0.2825  1.4979  0.6533
 1084TIP3    H227448   1.888   3.829   8.703  0.3981  1.7645  0.5917
 1085TIP3   OH227449   3.123   2.022  10.991  0.6454  0.7450  0.0989
 1085TIP3    H127450   3.042   1.974  10.971  0.1946  1.6988 -0.4042
 1085TIP3    H227451   3.110   2.109  10.953  0.8977  1.7240  2.1458
 1086TIP3   OH227452   2.910   2.004   8.265 -0.0036 -0.4582 -0.2549
 1086TIP3    H127453   2.841   1.997   8.331  1.3727 -0.2547  1.2554
 1086TIP3    H227454   2.961   2.080   8.292  0.0447  0.2010 -2.1073
 1087TIP3   OH227455   5.418   4.773   9.809 -0.8526  0.5243 -0.2163
 1087TIP3    H127456   5.386   4.699   9.757  2.6418 -0.0770 -1.8749
 1087TIP3    H227457   5.437   4.736   9.895  1.1637 -0.7216 -1.1220
 1088TIP3   OH227458   7.048   1.683   8.781 -0.7459  0.5711 -0.3960
 1088TIP3    H127459   7.131   1.634   8.780 -0.2486  1.3956 -0.9958
 1088TIP3    H227460   7.067   1.760   8.834 -0.7269  1.4136 -1.5913
 1089TIP3   OH227461   0.946   5.077   9.249 -0.1131 -0.0674 -0.3325
 1089TIP3    H127462   0.877   5.065   9.183 -0.1127 -1.5848 -0.0929
 1089TIP3    H227463   0.903   5.123   9.320 -0.3683  0.7251 -0.9881
 1090TIP3   OH227464   6.677   7.490  10.460  0.3575 -0.1025 -0.9047
 1090TIP3    H127465   6.592   7.465  10.496 -0.2100  0.7666 -1.5958
 1090TIP3    H227466   6.714   7.409  10.426  0.9019 -0.9721  1.5451
 1091TIP3   OH227467   6.599   2.466   9.381  0.6373  0.0224 -0.1001
 1091TIP3    H127468   6.671   2.422   9.337  0.7396 -0.0834  0.1700
 1091TIP3    H227469   6.532   2.399   9.390  1.5762 -0.7157  2.1925
 1092TIP3   OH227470   7.086   3.519  10.853 -0.3878  0.0923  0.3779
 1092TIP3    H127471   7.065   3.609  10.828  0.4143  0.3140  0.4848
 1092TIP3    H227472   7.029   3.500  10.927  0.1644  0.8716  1.0133
 1093TIP3   OH227473   6.100   1.561   9.173  0.5802 -0.2626  0.1721
 1093TIP3    H127474   6.176   1.581   9.227  1.2760 -1.5682 -0.2922
 1093TIP3    H227475   6.129   1.493   9.113 -0.5438  0.2404 -1.0100
 1094TIP3   OH227476   4.431   0.436  10.102  0.7971  0.1958  0.1473
 1094TIP3    H127477   4.371   0.475  10.038 -1.2103 -1.6096  0.8079
 1094TIP3    H227478   4.473   0.364  10.054  0.6506 -0.0273  0.3541
 1095TIP3   OH227479   3.421   2.019  10.443 -0.0236 -0.3101  0.2993
 1095TIP3    H127480   3.339   2.065  10.427 -0.2189  0.1853  2.3838
 1095TIP3    H227481   3.407   1.932  10.408 -0.8164  0.2655 -0.8743
 1096TIP3   OH227482   6.629   4.859   8.992  0.2512  0.5449 -0.0260
 1096TIP3    H127483   6.587   4.860   9.079 -0.6684  0.7433 -0.4629
 1096TIP3    H227484   6.597   4.778   8.952  0.3081  0.6832 -0.3515
 1097TIP3   OH227485   6.785   3.087  10.102 -0.5102  0.4452  0.3862
 1097TIP3    H127486   6.728   3.135  10.042  1.5169  0.9264 -1.2656
 1097TIP3    H227487   6.745   3.001  10.110 -1.7705  0.9449 -0.2252
 1098TIP3   OH227488   6.850   1.652   8.556  0.5250  0.8651 -0.3629
 1098TIP3    H127489   6.879   1.723   8.499  3.4869  1.3728  1.5458
 1098TIP3    H227490   6.928   1.630   8.607 -1.0568 -1.8934  1.0573
 1099TIP3   OH227491   3.322   7.232   8.640  0.1927  0.1205  0.0230
 1099TIP3    H127492   3.398   7.180   8.665 -0.1191  0.6070  2.2037
 1099TIP3    H227493   3.355   7.322   8.633 -0.0959  0.2861  0.6731
 1100TIP3   OH227494   2.676   4.525   9.331  0.0584 -0.2146 -0.3842
 1100TIP3    H127495   2.592   4.563   9.305  0.5931  0.9129 -0.5373
 1100TIP3    H227496   2.657   4.433   9.347 -1.4747  0.2623  0.7840
 1101TIP3   OH227497   5.023   4.968   9.632  0.3650 -0.0573  0.2412
 1101TIP3    H127498   5.056   5.056   9.611 -0.5036  0.4090  0.7899
 1101TIP3    H227499   5.040   4.958   9.725 -2.7507  1.0179  1.0574
 1102TIP3   OH227500   6.104   7.495  10.198 -0.3856 -0.4543  0.2084
 1102TIP3    H127501   6.118   7.473  10.106  0.3639 -2.5333  0.7583
 1102TIP3    H227502   6.114   7.590  10.202 -1.4695 -0.1769 -2.0060
 1103TIP3   OH227503   1.411   4.352   9.144 -0.1005 -0.5551 -0.4833
 1103TIP3    H127504   1.330   4.301   9.147 -1.2082  1.1488 -0.4137
 1103TIP3    H227505   1.434   4.365   9.236 -1.4217  1.4533 -0.3801
 1104TIP3   OH227506   3.883   1.491  10.843  0.0018  0.1116 -0.0031
 1104TIP3    H127507   3.928   1.505  10.926 -0.6695 -2.1613  0.8302
 1104TIP3    H227508   3.933   1.421  10.800 -1.6264 -1.2331  0.1612
 1105TIP3   OH227509   6.162   2.278   9.496 -0.5089  0.1336 -0.1601
 1105TIP3    H127510   6.249   2.274   9.537 -0.0413 -1.8571 -1.2126
 1105TIP3    H227511   6.179   2.306   9.406 -0.3590 -3.7048 -1.5221
 1106TIP3   OH227512   4.730   5.907   9.217 -0.4592  0.3282 -0.4858
 1106TIP3    H127513   4.736   5.992   9.173  0.7470  0.3719 -0.2845
 1106TIP3    H227514   4.730   5.843   9.146 -2.2566  0.4921 -0.6835
 1107TIP3   OH227515   6.797   3.776   8.849  0.7649  0.0995 -0.3811
 1107TIP3    H127516   6.860   3.705   8.834  0.1613 -0.1911 -1.6342
 1107TIP3    H227517   6.776   3.808   8.762 -0.7379  0.2696  0.0232
 1108TIP3   OH227518   0.374   7.648   9.494 -0.3456  0.3462  0.1313
 1108TIP3    H127519   0.323   7.718   9.452 -1.0741 -1.5315 -2.3470
 1108TIP3    H227520   0.458   7.689   9.514 -1.3280  2.3680  0.3438
 1109TIP3   OH227521   3.509   2.878   9.140  0.2445 -0.0530 -0.4972
 1109TIP3    H127522   3.502   2.953   9.082 -0.3139 -0.6955 -1.2840
 1109TIP3    H227523   3.428   2.878   9.191  0.5184  0.2283 -0.0530
 1110TIP3   OH227524   2.302   1.649   9.331  0.2458  0.0706 -1.2423
 1110TIP3    H127525   2.344   1.602   9.259  2.0223  0.5172 -0.5498
 1110TIP3    H227526   2.341   1.736   9.330  0.2602  0.1058  0.2069
 1111TIP3   OH227527   1.971   0.081  11.059  0.3419  0.3375 -0.1594
 1111TIP3    H127528   1.933   0.012  11.004 -0.7773  0.2859  0.6299
 1111TIP3    H227529   2.044   0.039  11.103 -0.3235 -0.3570  0.3075
 1112TIP3   OH227530   2.290   6.156   9.865  0.2929 -0.1903  0.0425
 1112TIP3    H127531   2.268   6.212   9.791  0.5840 -0.5264 -0.2973
 1112TIP3    H227532   2.224   6.177   9.931 -0.4066 -0.4108 -0.5761
 1113TIP3   OH227533   1.623   2.224  10.706 -0.1909 -0.1213 -0.1594
 1113TIP3    H127534   1.598   2.152  10.763  0.1326 -0.4826 -0.4689
 1113TIP3    H227535   1.693   2.188  10.651  0.3421  0.5884  0.0473
 1114TIP3   OH227536   4.774   3.225   8.851  0.1198 -0.3843 -0.1471
 1114TIP3    H127537   4.772   3.279   8.771  1.3033 -0.3623 -0.1876
 1114TIP3    H227538   4.779   3.135   8.819 -1.9316 -0.5756 -0.0799
 1115TIP3   OH227539   3.113   6.382   9.073 -0.7319 -0.0809 -0.0396
 1115TIP3    H127540   3.125   6.475   9.053  3.4408 -0.5950 -0.9421
 1115TIP3    H227541   3.064   6.348   8.998 -0.2528  1.0236 -0.8952
 1116TIP3   OH227542   5.966   0.981   8.851  0.5150 -0.3924  0.0986
 1116TIP3    H127543   5.992   0.891   8.871  0.5497 -0.3464  0.2618
 1116TIP3    H227544   6.029   1.009   8.785  0.3285 -0.5841 -0.1619
 1117TIP3   OH227545   2.822   6.003   8.746  0.0179  0.1572 -0.4125
 1117TIP3    H127546   2.841   5.927   8.692  0.0516 -0.3736  0.3269
 1117TIP3    H227547   2.906   6.049   8.754  0.1900 -0.1950 -0.1663
 1118TIP3   OH227548   3.601   6.754   9.648 -0.1278  0.6175 -0.2910
 1118TIP3    H127549   3.694   6.738   9.663  0.2624  3.2876  0.8358
 1118TIP3    H227550   3.561   6.667   9.649  2.3563 -0.6300 -1.0959
 1119TIP3   OH227551   3.532   0.992   8.466  0.6052  0.1081  0.1751
 1119TIP3    H127552   3.621   1.000   8.499  0.4720 -0.0673  0.5828
 1119TIP3    H227553   3.481   0.962   8.541 -0.2438  2.4447  0.6153
 1120TIP3   OH227554   5.766   0.060  11.228  0.5516 -0.3799  0.2310
 1120TIP3    H127555   5.736  -0.031  11.222  1.5216 -0.6806 -0.2995
 1120TIP3    H227556   5.840   0.065  11.168  1.6837  0.2737  1.6165
 1121TIP3   OH227557   4.486   2.550  10.565 -0.3666 -0.0655  0.1311
 1121TIP3    H127558   4.407   2.591  10.528 -1.5178 -1.9964  0.3245
 1121TIP3    H227559   4.456   2.510  10.646  0.4786 -1.9630 -0.4484
 1122TIP3   OH227560   7.098   2.922   8.480 -0.0060 -0.4476 -0.2504
 1122TIP3    H127561   7.169   2.880   8.528  0.3924  0.0520 -0.3934
 1122TIP3    H227562   7.025   2.860   8.486 -0.3177  0.0293  1.8696
 1123TIP3   OH227563   6.687   3.371   9.972  0.3803  0.2929 -0.1181
 1123TIP3    H127564   6.649   3.437   9.914  1.6928  0.5490 -0.6995
 1123TIP3    H227565   6.652   3.288   9.940 -2.6552  0.7132  1.6321
 1124TIP3   OH227566   0.875   3.853  10.165  0.6126 -0.4026  0.9889
 1124TIP3    H127567   0.878   3.814  10.077  2.0939 -0.1832  0.9291
 1124TIP3    H227568   0.784   3.840  10.193 -0.6899  1.8615 -1.6198
 1125TIP3   OH227569   4.138   4.439   8.967 -0.3109  0.1026 -0.5067
 1125TIP3    H127570   4.096   4.521   8.994 -1.1507 -0.4390 -0.1272
 1125TIP3    H227571   4.224   4.465   8.935 -0.5533  1.1282 -0.3441
 1126TIP3   OH227572   5.507   5.319  10.095 -0.1558  0.1284  0.3932
 1126TIP3    H127573   5.519   5.413  10.097 -1.0560  0.2885 -0.5470
 1126TIP3    H227574   5.466   5.298  10.179 -1.2806  0.8002  0.0344
 1127TIP3   OH227575   5.742   4.500  10.231 -0.2434 -0.1003  0.2738
 1127TIP3    H127576   5.796   4.442  10.177  0.2641 -0.3935  1.0756
 1127TIP3    H227577   5.652   4.475  10.210 -0.1667  1.2525 -2.0314
 1128TIP3   OH227578   1.143   5.281   9.252  0.2703  0.5853 -0.0313
 1128TIP3    H127579   1.101   5.206   9.210  2.1559  0.0489 -1.0814
 1128TIP3    H227580   1.188   5.326   9.181 -0.3230  2.4031  0.6850
 1129TIP3   OH227581   3.692   0.061   9.510  0.3983  0.5073  0.5684
 1129TIP3    H127582   3.597   0.053   9.516  0.3673  0.5648  0.1986
 1129TIP3    H227583   3.718  -0.007   9.448  0.6779  0.0389  1.1941
 1130TIP3   OH227584   2.207   6.933  10.183 -0.1436 -0.9201 -0.4841
 1130TIP3    H127585   2.263   6.928  10.106  0.5623  1.9868 -0.2823
 1130TIP3    H227586   2.256   6.886  10.251  1.1480 -0.1182 -0.8228
 1131TIP3   OH227587   0.944   4.425  10.317  0.1708 -0.5981 -0.2909
 1131TIP3    H127588   0.912   4.515  10.318  0.6637 -0.4211  0.4051
 1131TIP3    H227589   0.897   4.383  10.245  1.7224  0.8515 -2.2361
 1132TIP3   OH227590   0.943   2.839   8.587  0.0675 -0.1004 -0.0686
 1132TIP3    H127591   0.891   2.832   8.507 -1.5291  1.0386  0.8144
 1132TIP3    H227592   0.988   2.923   8.579  1.1289 -0.6744 -0.4180
 1133TIP3   OH227593   5.684   5.418   9.461 -0.6314  0.2395  0.0162
 1133TIP3    H127594   5.776   5.443   9.474 -0.2682  0.3285 -2.3269
 1133TIP3    H227595   5.684   5.323   9.472 -0.3774  0.2932  0.5349
 1134TIP3   OH227596   0.230   4.354  11.022 -0.1599  0.4994 -0.3871
 1134TIP3    H127597   0.280   4.347  10.941  0.6962 -0.1685  0.1945
 1134TIP3    H227598   0.153   4.299  11.008  0.2945 -0.1041 -0.5117
 1135TIP3   OH227599   4.176   1.113  11.074 -0.2550 -0.1679 -0.0341
 1135TIP3    H127600   4.219   1.059  11.141 -0.2828 -0.7512 -0.4836
 1135TIP3    H227601   4.101   1.061  11.045  0.1263 -0.1988 -0.9825
 1136TIP3   OH227602   0.410   5.896   9.965 -0.5889  0.6878 -0.1128
 1136TIP3    H127603   0.439   5.951   9.892  0.7607  1.2974  0.8386
 1136TIP3    H227604   0.467   5.921  10.038 -2.4151  0.6843  1.3940
 1137TIP3   OH227605   4.983   4.922  10.563  1.1822  0.5466  0.4397
 1137TIP3    H127606   4.889   4.939  10.556  0.7728 -1.0078  1.5476
 1137TIP3    H227607   5.021   4.963  10.486 -0.5879  0.0015 -0.7780
 1138TIP3   OH227608   4.416   1.058  11.245  0.0488 -0.2942  0.5110
 1138TIP3    H127609   4.442   1.148  11.225 -0.4364 -0.0641  0.9308
 1138TIP3    H227610   4.499   1.010  11.252  0.3626  0.3783  1.5267
 1139TIP3   OH227611   1.543   7.480   8.160 -0.0520  0.3353  0.1212
 1139TIP3    H127612   1.521   7.405   8.103  0.2762  1.8694 -2.1523
 1139TIP3    H227613   1.465   7.492   8.214 -0.5499 -0.9444 -0.2630
 1140TIP3   OH227614   5.223   2.014  10.497  0.3005  0.2009  0.7334
 1140TIP3    H127615   5.231   1.924  10.466  1.3513  1.2045 -2.2508
 1140TIP3    H227616   5.313   2.042  10.514  0.3358  1.5483 -1.3274
 1141TIP3   OH227617   3.756   2.772  10.340  0.5759 -0.6068  0.5349
 1141TIP3    H127618   3.735   2.863  10.318  1.4378 -0.5120  0.0702
 1141TIP3    H227619   3.689   2.747  10.404  0.9963  0.7286  1.5606
 1142TIP3   OH227620   1.544   5.387  10.456 -0.0160  0.5865 -0.5724
 1142TIP3    H127621   1.459   5.425  10.433  0.4995  1.1905 -1.5329
 1142TIP3    H227622   1.528   5.293  10.458 -1.5080  0.7570  2.6047
 1143TIP3   OH227623   4.618   6.209   9.437 -0.0439  0.0283 -0.4729
 1143TIP3    H127624   4.702   6.166   9.421 -0.9734 -1.4681 -1.6689
 1143TIP3    H227625   4.636   6.302   9.427  1.4071 -0.2866 -1.0263
 1144TIP3   OH227626   5.229   1.479  10.547  0.2190 -0.0013  0.3982
 1144TIP3    H127627   5.281   1.400  10.531  2.1273  1.2291  0.1590
 1144TIP3    H227628   5.202   1.473  10.638 -0.4704 -1.3364  0.1387
 1145TIP3   OH227629   5.112   1.083  10.162 -0.1008 -0.2186 -0.4342
 1145TIP3    H127630   5.174   1.119  10.225 -0.9788  0.6053 -0.0109
 1145TIP3    H227631   5.092   0.995  10.196 -0.8031  0.3325  0.6262
 1146TIP3   OH227632   6.010   1.821  10.452 -0.3661 -0.9903 -0.1270
 1146TIP3    H127633   5.997   1.823  10.546 -1.5924 -1.4267 -0.2663
 1146TIP3    H227634   5.996   1.912  10.423  1.9158 -0.4513  0.3067
 1147TIP3   OH227635   4.702   6.013  10.382  0.3099 -0.2923 -0.0963
 1147TIP3    H127636   4.657   6.068  10.317  1.4334  0.2775 -0.4208
 1147TIP3    H227637   4.737   6.076  10.445 -0.4163 -0.8185  0.8480
 1148TIP3   OH227638   2.965   3.107  10.070  0.1985  0.3740  0.2282
 1148TIP3    H127639   2.919   3.084   9.989 -0.6169  1.4257  0.3626
 1148TIP3    H227640   2.905   3.167  10.115  0.9585  0.3844  1.2624
 1149TIP3   OH227641   2.675   5.762  10.982  0.5876  0.1101 -0.2442
 1149TIP3    H127642   2.672   5.708  10.902  0.0914 -0.6127  0.2552
 1149TIP3    H227643   2.606   5.727  11.037 -1.2180  2.6075 -0.7379
 1150TIP3   OH227644   6.095   2.769   8.825 -0.3017  0.5301 -0.2644
 1150TIP3    H127645   6.048   2.848   8.853  0.8927  2.0538 -2.2104
 1150TIP3    H227646   6.105   2.781   8.730  0.3376 -1.7715 -0.5314
 1151TIP3   OH227647   0.543   6.203  10.831  0.6328  0.3208  0.0963
 1151TIP3    H127648   0.633   6.234  10.820  1.2833 -1.2651  0.6323
 1151TIP3    H227649   0.490   6.282  10.832  1.8205  1.2173 -2.0160
 1152TIP3   OH227650   7.189   2.496   9.232  0.3339 -0.0565 -0.1213
 1152TIP3    H127651   7.193   2.553   9.155  0.4185 -0.4030 -0.3744
 1152TIP3    H227652   7.224   2.550   9.304 -0.3160  0.4770 -0.1929
 1153TIP3   OH227653   3.153   4.768   9.758  0.2010  0.3020 -0.3441
 1153TIP3    H127654   3.204   4.701   9.804  0.7153  0.0380 -1.2666
 1153TIP3    H227655   3.205   4.848   9.768  0.8332  0.0289 -1.2981
 1154TIP3   OH227656   0.134   6.343  10.503 -0.3801  0.1567  0.4564
 1154TIP3    H127657   0.210   6.383  10.546  0.7290 -0.5321 -0.8017
 1154TIP3    H227658   0.072   6.415  10.491 -0.7433  0.4105  3.0917
 1155TIP3   OH227659   7.242   4.874  10.338  0.4938  0.1798 -0.0381
 1155TIP3    H127660   7.267   4.917  10.256 -1.0769  0.1525 -0.5786
 1155TIP3    H227661   7.288   4.923  10.406  0.4532  1.3447 -0.8143
 1156TIP3   OH227662   5.142   1.836  10.175 -0.1756  0.2168  0.2576
 1156TIP3    H127663   5.181   1.799  10.254  1.4412  0.1121 -0.5297
 1156TIP3    H227664   5.160   1.770  10.107  0.3784  1.2208 -0.6165
 1157TIP3   OH227665   2.909   2.647  10.763 -0.5962  0.0031 -0.5163
 1157TIP3    H127666   2.932   2.586  10.693  1.0931  1.1785 -1.0600
 1157TIP3    H227667   2.834   2.696  10.730 -1.1839 -0.9180 -0.5780
 1158TIP3   OH227668   0.437   2.830  10.723 -0.4254 -0.4756 -0.4064
 1158TIP3    H127669   0.403   2.832  10.633  0.2491  0.1418 -0.6597
 1158TIP3    H227670   0.365   2.863  10.776 -0.9572 -1.1863 -0.6717
 1159TIP3   OH227671   6.381   4.024   8.886 -0.1401 -0.2627 -0.4063
 1159TIP3    H127672   6.437   4.009   8.962 -0.9185 -0.9709  0.0336
 1159TIP3    H227673   6.356   3.937   8.857  0.9569 -0.0706 -2.1121
 1160TIP3   OH227674   7.105   3.922  10.441  0.1331 -0.3178  0.3946
 1160TIP3    H127675   7.193   3.933  10.405  0.2833  0.5935  1.0167
 1160TIP3    H227676   7.094   3.827  10.450  1.2121 -0.4240  0.6945
 1161TIP3   OH227677   7.478   0.627   9.537  0.1397 -0.1533 -0.0594
 1161TIP3    H127678   7.492   0.571   9.614  0.3781  1.0628  0.8147
 1161TIP3    H227679   7.443   0.568   9.471  1.0790 -1.4857  0.5812
 1162TIP3   OH227680   5.431   6.742  10.018  0.2475  0.3030  0.1442
 1162TIP3    H127681   5.490   6.807  10.056  1.1533 -0.4256  0.0380
 1162TIP3    H227682   5.438   6.755   9.923  2.0015 -1.2014  0.0006
 1163TIP3   OH227683   3.352   7.085  11.476 -0.0893  0.3595 -0.1563
 1163TIP3    H127684   3.422   7.076  11.412 -1.4458 -0.3057 -1.6030
 1163TIP3    H227685   3.292   7.012  11.457  0.0109 -0.5783  2.5946
 1164TIP3   OH227686   7.615   0.340   8.743  0.2900  0.3698 -0.4056
 1164TIP3    H127687   7.522   0.355   8.729 -0.1461 -0.3669  1.4892
 1164TIP3    H227688   7.635   0.262   8.692 -0.2703  0.1712 -0.3210
 1165TIP3   OH227689   0.562   2.550   9.322  0.4768 -0.4580  0.0074
 1165TIP3    H127690   0.647   2.512   9.344  0.6407  0.0920  0.3613
 1165TIP3    H227691   0.515   2.480   9.278  1.0028 -0.8652  0.0793
 1166TIP3   OH227692   0.612   3.347   9.215 -0.8719  0.0763  0.1312
 1166TIP3    H127693   0.541   3.292   9.181  0.9844 -0.8127 -2.6159
 1166TIP3    H227694   0.667   3.287   9.265 -0.5818  0.1270 -0.1223
 1167TIP3   OH227695   0.889   0.867   8.045  0.4281  0.6504 -0.2580
 1167TIP3    H127696   0.851   0.954   8.034  0.1629  0.6126  0.3524
 1167TIP3    H227697   0.819   0.814   8.083  1.9191  1.3686  4.0597
 1168TIP3   OH227698   4.201   4.698   9.935 -0.2718 -0.5195  0.5065
 1168TIP3    H127699   4.237   4.748   9.862  0.0914 -0.2178  0.8887
 1168TIP3    H227700   4.119   4.742   9.956 -0.5149 -0.7693  0.1134
 1169TIP3   OH227701   4.857   4.390   9.773 -0.5765  0.2810 -0.6533
 1169TIP3    H127702   4.831   4.393   9.865  1.8257 -0.8274  0.1515
 1169TIP3    H227703   4.891   4.302   9.760  1.2152  1.0792 -1.9495
 1170TIP3   OH227704   7.306   6.977   9.009  0.1655  0.1006  0.2143
 1170TIP3    H127705   7.395   6.943   8.997  0.2153  0.2656  0.1233
 1170TIP3    H227706   7.266   6.916   9.071  0.6139  0.5000  0.9093
 1171TIP3   OH227707   2.511   3.806  11.142 -0.1825  0.5638 -0.2010
 1171TIP3    H127708   2.584   3.748  11.166 -1.3553 -0.8869  0.0828
 1171TIP3    H227709   2.479   3.839  11.226 -1.7286 -1.2671  0.0082
 1172TIP3   OH227710   3.169   0.964  10.993 -0.6321 -0.0525 -0.0284
 1172TIP3    H127711   3.210   1.050  11.003  1.3025 -1.0458  1.2762
 1172TIP3    H227712   3.084   0.974  11.036  0.6825  0.5195  2.6771
 1173TIP3   OH227713   1.118   7.110   9.860  0.1617 -0.0180  0.2363
 1173TIP3    H127714   1.107   7.015   9.859 -1.8696  0.1854  0.4241
 1173TIP3    H227715   1.059   7.142   9.792 -0.4957  1.2170  1.3570
 1174TIP3   OH227716   4.173   1.081   8.466 -0.4378 -0.3893  0.5180
 1174TIP3    H127717   4.111   1.016   8.431 -1.5197 -0.3332  2.2299
 1174TIP3    H227718   4.158   1.081   8.560  1.8683 -0.0110  0.9612
 1175TIP3   OH227719   1.776   5.803  10.793  0.2266  0.3453  0.3696
 1175TIP3    H127720   1.771   5.759  10.709 -2.4423 -0.0690  0.6510
 1175TIP3    H227721   1.780   5.732  10.857  1.3583  0.6407  0.6427
 1176TIP3   OH227722   3.387   6.465   9.764  1.1700 -0.6671  0.1810
 1176TIP3    H127723   3.359   6.437   9.851  1.1439 -1.3461 -0.0418
 1176TIP3    H227724   3.438   6.392   9.730 -1.5463 -1.8395 -1.6855
 1177TIP3   OH227725   5.613   6.157   9.308  0.6979  0.5569 -0.0055
 1177TIP3    H127726   5.621   6.182   9.216 -0.8834  1.5860  0.0831
 1177TIP3    H227727   5.652   6.070   9.313 -1.5615 -0.7452 -2.2633
 1178TIP3   OH227728   1.819   7.181  10.350 -0.2327 -0.1210 -0.0920
 1178TIP3    H127729   1.759   7.106  10.352  0.4042 -0.6296  0.7797
 1178TIP3    H227730   1.890   7.156  10.409 -0.5925  1.6703  1.1929
 1179TIP3   OH227731   5.184   1.904   9.171  0.1401 -0.3256 -0.2002
 1179TIP3    H127732   5.208   1.992   9.144 -1.9843  0.4606  0.2851
 1179TIP3    H227733   5.175   1.855   9.089 -1.5318  0.7316 -0.6979
 1180TIP3   OH227734   6.103   5.626   9.011 -0.4930 -0.2278  0.0012
 1180TIP3    H127735   6.039   5.671   8.956  0.0275 -0.7219 -1.0192
 1180TIP3    H227736   6.061   5.543   9.034 -0.9098  0.1855  0.7801
 1181TIP3   OH227737   6.352   3.779  10.800 -0.1955 -0.0546 -0.3988
 1181TIP3    H127738   6.315   3.695  10.771  1.2414 -0.6970 -0.4573
 1181TIP3    H227739   6.340   3.778  10.895  0.2333 -0.5406 -0.3459
 1182TIP3   OH227740   1.203   3.803  10.182  0.1924 -0.0622  0.2680
 1182TIP3    H127741   1.198   3.780  10.089 -0.7058 -0.0387  0.3054
 1182TIP3    H227742   1.114   3.830  10.205  0.5879  0.7184  0.9333
 1183TIP3   OH227743   4.951   3.684   9.120  0.0459 -0.4362 -0.2157
 1183TIP3    H127744   4.920   3.757   9.066 -1.4490 -0.1851  0.8971
 1183TIP3    H227745   5.031   3.717   9.161 -0.7666  0.7419  0.5076
 1184TIP3   OH227746   1.235   2.044  10.681  0.3241  0.5602 -0.1896
 1184TIP3    H127747   1.270   1.960  10.649 -0.6380  0.4480 -0.9695
 1184TIP3    H227748   1.196   2.085  10.604  1.3780  2.0583  0.0317
 1185TIP3   OH227749   1.833   0.625  10.427 -0.4914 -0.0948 -0.5638
 1185TIP3    H127750   1.909   0.674  10.458 -0.7194  0.2594 -0.5577
 1185TIP3    H227751   1.787   0.685  10.369  0.3488 -1.0173 -2.2377
 1186TIP3   OH227752   5.074   2.912   9.886  0.3410  0.2019  0.4121
 1186TIP3    H127753   5.047   3.002   9.904 -0.2187  0.2468 -0.5694
 1186TIP3    H227754   5.013   2.881   9.819  0.9327 -0.6921  0.2562
 1187TIP3   OH227755   0.535   5.244   9.163  0.2619  0.2675  0.0938
 1187TIP3    H127756   0.582   5.262   9.081  0.6461  0.8971  0.4435
 1187TIP3    H227757   0.605   5.229   9.227 -0.0382 -0.5206  0.2455
 1188TIP3   OH227758   5.477   5.282  10.788  0.5193 -0.1695 -0.3066
 1188TIP3    H127759   5.563   5.323  10.789  0.4004  0.0813  0.0498
 1188TIP3    H227760   5.418   5.347  10.750  0.4528 -0.2614 -0.3622
 1189TIP3   OH227761   0.111   1.823   9.399 -0.0820 -0.6044  0.5760
 1189TIP3    H127762   0.184   1.805   9.458  0.3719 -1.7421 -0.2726
 1189TIP3    H227763   0.152   1.859   9.320 -0.6627  0.7873  0.8940
 1190TIP3   OH227764   5.407   6.711  10.431 -0.1978 -0.2170  0.1021
 1190TIP3    H127765   5.474   6.778  10.421 -1.0934  0.7427  0.3873
 1190TIP3    H227766   5.374   6.722  10.520 -0.1052 -1.2752  0.2765
 1191TIP3   OH227767   3.086   5.414  10.509 -0.0340 -0.3413 -0.5626
 1191TIP3    H127768   3.177   5.382  10.506  0.2449  0.4840 -1.1240
 1191TIP3    H227769   3.043   5.357  10.574  1.1957  0.0718  0.6574
 1192TIP3   OH227770   1.490   4.714   9.050 -0.0092  0.2120 -0.2760
 1192TIP3    H127771   1.560   4.653   9.024 -0.0263 -0.0995  0.3922
 1192TIP3    H227772   1.410   4.674   9.016 -0.0235 -0.1604  0.1886
 1193TIP3   OH227773   5.627   6.835  10.353  0.3297  0.4113 -0.4725
 1193TIP3    H127774   5.597   6.878  10.273 -0.5147  1.1521  0.2332
 1193TIP3    H227775   5.708   6.881  10.376 -0.3418  1.3496  0.0411
 1194TIP3   OH227776   2.018   6.329  11.017  0.2245  0.4589 -0.9966
 1194TIP3    H127777   2.078   6.257  11.000  0.0843 -0.4431  1.8737
 1194TIP3    H227778   1.944   6.288  11.062  0.3545  2.4111  1.1597
 1195TIP3   OH227779   2.495   2.986   9.271  0.3591 -0.4398  0.0482
 1195TIP3    H127780   2.496   2.903   9.223 -1.3459 -1.1792  1.1684
 1195TIP3    H227781   2.449   3.047   9.213 -0.8715 -1.0760  0.3259
 1196TIP3   OH227782   2.937   5.266   8.790  0.2671 -0.5937 -1.0044
 1196TIP3    H127783   2.996   5.230   8.856  1.0788  0.1104 -1.3266
 1196TIP3    H227784   2.868   5.311   8.840 -0.7639 -2.5171 -0.5939
 1197TIP3   OH227785   1.919   4.007  10.869  0.3730 -0.6206  0.1208
 1197TIP3    H127786   1.907   3.996  10.963  0.5528 -1.2217  0.0792
 1197TIP3    H227787   2.014   4.017  10.858  0.3931 -0.9522 -0.0300
 1198TIP3   OH227788   6.559   3.919   9.390 -0.1903  0.3458 -0.1435
 1198TIP3    H127789   6.601   4.001   9.417 -0.4928  0.9986 -1.5357
 1198TIP3    H227790   6.488   3.906   9.452 -0.0000  1.0245  0.2213
 1199TIP3   OH227791   2.612   2.648   9.643 -0.0409 -0.1384 -0.0324
 1199TIP3    H127792   2.650   2.561   9.635  0.0100 -0.0898 -0.3436
 1199TIP3    H227793   2.615   2.684   9.554 -0.4475  0.0169  0.0117
 1200TIP3   OH227794   3.631   1.289   8.741 -0.3982  0.2469 -0.1354
 1200TIP3    H127795   3.609   1.196   8.746 -2.7532  0.7460 -0.0206
 1200TIP3    H227796   3.595   1.326   8.822 -0.5172  1.4395 -0.7111
 1201TIP3   OH227797   0.786   5.091   9.021 -0.1173  0.4659 -0.4999
 1201TIP3    H127798   0.819   5.008   8.986 -0.8145 -0.3272  0.6242
 1201TIP3    H227799   0.717   5.117   8.960 -1.9102 -1.3361  0.6165
 1202TIP3   OH227800   4.618   2.629   9.708  0.3785  0.1101  0.2282
 1202TIP3    H127801   4.564   2.702   9.739 -1.0998 -1.8409  2.6417
 1202TIP3    H227802   4.631   2.574   9.785  1.4239 -2.1780 -1.4576
 1203TIP3   OH227803   1.638   7.532   9.530  0.3444  0.5098 -0.0221
 1203TIP3    H127804   1.606   7.442   9.517 -1.9609  1.1552  0.5896
 1203TIP3    H227805   1.606   7.556   9.617 -0.3298  2.3910 -0.7404
 1204TIP3   OH227806   7.392   1.877   9.934 -0.6050  0.5164 -0.2596
 1204TIP3    H127807   7.362   1.821   9.863 -0.3159 -1.5561  1.1558
 1204TIP3    H227808   7.481   1.848   9.952 -0.2143  1.8692  0.1421
 1205TIP3   OH227809   6.791   4.436   8.316  0.7067  0.2686 -0.0239
 1205TIP3    H127810   6.696   4.425   8.312  0.5534  1.0199  0.9959
 1205TIP3    H227811   6.827   4.361   8.269 -0.4172  1.6215 -3.3385
 1206TIP3   OH227812   3.379   7.423  10.386 -0.1589  0.2175 -0.2636
 1206TIP3    H127813   3.323   7.356  10.348 -0.6564  0.0949  0.6590
 1206TIP3    H227814   3.467   7.385  10.383 -0.8586 -2.3369  3.9444
 1207TIP3   OH227815   6.886   3.863  10.975  0.3266  0.1140  0.2254
 1207TIP3    H127816   6.891   3.910  11.058 -0.6703 -0.3077  0.5512
 1207TIP3    H227817   6.974   3.869  10.938  0.0242  3.0106 -0.2109
 1208TIP3   OH227818   2.581   5.350  10.984 -0.3305  0.4190  0.1393
 1208TIP3    H127819   2.567   5.287  10.913  1.7350  0.6749 -0.5905
 1208TIP3    H227820   2.675   5.369  10.980 -0.9094  3.9952 -0.0798
 1209TIP3   OH227821   1.408   4.317   9.999  0.0089 -0.6726  0.3761
 1209TIP3    H127822   1.385   4.406   9.975 -0.7924 -0.8552  0.4528
 1209TIP3    H227823   1.496   4.304   9.962  0.2755  0.2596  0.6705
 1210TIP3   OH227824   2.598   1.619  11.182 -0.5830 -0.5179  0.0713
 1210TIP3    H127825   2.629   1.530  11.201  3.3074  0.7645  0.6501
 1210TIP3    H227826   2.575   1.654  11.268 -1.2804 -0.6220 -0.0604
 1211TIP3   OH227827   2.852   2.665   8.484 -0.0031 -0.9801  0.5325
 1211TIP3    H127828   2.771   2.716   8.491 -0.4117 -1.4773 -0.4604
 1211TIP3    H227829   2.869   2.636   8.574 -0.5102 -0.2394  0.8816
 1212TIP3   OH227830   5.293   5.330   9.832  0.3977  0.3024  0.1923
 1212TIP3    H127831   5.200   5.327   9.855  0.1412 -1.1412 -0.9047
 1212TIP3    H227832   5.318   5.422   9.846 -1.5314  1.0194 -0.7561
 1213TIP3   OH227833   0.937   4.746   9.400 -0.3437 -0.2187 -0.2014
 1213TIP3    H127834   1.017   4.794   9.421 -0.2721  0.0097 -0.9963
 1213TIP3    H227835   0.964   4.679   9.338 -0.5890 -0.7954  0.3067
 1214TIP3   OH227836   6.489   1.048   9.821  0.1906 -0.0278 -0.2285
 1214TIP3    H127837   6.425   1.031   9.890  0.0607  0.2750 -0.2721
 1214TIP3    H227838   6.572   1.058   9.868 -0.1997  2.1089  0.1125
 1215TIP3   OH227839   2.286   2.302   9.901  0.1074 -0.0763 -0.4660
 1215TIP3    H127840   2.237   2.329   9.823  0.5567 -0.0709 -0.7497
 1215TIP3    H227841   2.260   2.211   9.915  0.6683 -0.3510 -1.1350
 1216TIP3   OH227842   6.204   4.489   9.883  0.5311 -0.7447 -0.5659
 1216TIP3    H127843   6.128   4.543   9.858  0.0633 -0.9254  0.4412
 1216TIP3    H227844   6.269   4.508   9.815  0.6184  1.6036  0.0893
 1217TIP3   OH227845   2.634   0.975   9.325 -0.0809  0.1629  0.1005
 1217TIP3    H127846   2.589   1.056   9.347  0.4536  0.2916  0.7318
 1217TIP3    H227847   2.579   0.906   9.365  1.5940  0.4577  3.2359
 1218TIP3   OH227848   2.069   1.800   9.355 -0.0637  0.5714 -0.5405
 1218TIP3    H127849   2.028   1.807   9.269  0.2412  3.0417 -0.5711
 1218TIP3    H227850   2.144   1.742   9.342  0.2229  1.2350 -2.0564
 1219TIP3   OH227851   3.228   0.387  10.732  0.3234 -0.1962 -0.0172
 1219TIP3    H127852   3.317   0.352  10.728  0.6401  0.6885 -1.6257
 1219TIP3    H227853   3.238   0.481  10.714 -0.8928 -0.0161  0.1471
 1220TIP3   OH227854   6.124   1.283   9.921 -0.2633 -0.3978 -0.9202
 1220TIP3    H127855   6.147   1.369   9.957  0.1326 -0.5660 -0.7656
 1220TIP3    H227856   6.042   1.260   9.965  0.5219 -0.8772  0.3713
 1221TIP3   OH227857   2.351   3.988   9.425  0.6223  0.0245  0.4422
 1221TIP3    H127858   2.309   3.945   9.351 -1.3609  1.2190  0.8119
 1221TIP3    H227859   2.333   3.931   9.500 -0.8857  0.7790  0.6947
 1222TIP3   OH227860   3.759   1.201   9.640 -0.5712 -0.3608 -0.0441
 1222TIP3    H127861   3.782   1.285   9.678  1.8084 -1.1517  0.4447
 1222TIP3    H227862   3.672   1.181   9.676 -1.2195  1.8828 -0.2594
 1223TIP3   OH227863   1.360   0.176   9.236  0.2635  0.0799  0.5914
 1223TIP3    H127864   1.401   0.103   9.282  0.7257  0.5238  0.8928
 1223TIP3    H227865   1.268   0.152   9.230  0.6005 -1.0912 -0.4027
 1224TIP3   OH227866   6.959   3.471  11.100 -0.1631  0.1367  0.1808
 1224TIP3    H127867   6.899   3.414  11.148 -1.1825 -0.5466 -1.7887
 1224TIP3    H227868   7.042   3.463  11.146 -0.4347 -2.5240  0.3416
 1225TIP3   OH227869   5.307   7.674  10.659 -0.2408  0.4685 -0.2974
 1225TIP3    H127870   5.314   7.588  10.701  1.1894  0.5085 -0.4082
 1225TIP3    H227871   5.241   7.661  10.591  1.3233 -1.1246 -1.6219
 1226TIP3   OH227872   4.030   0.707  10.031 -0.1788  0.4300  0.2941
 1226TIP3    H127873   4.026   0.766  10.106 -1.3676  1.5881 -0.6373
 1226TIP3    H227874   3.987   0.627  10.060  1.2547  0.0469  1.4999
 1227TIP3   OH227875   7.456   3.027   9.375 -0.0721  0.4048 -0.8214
 1227TIP3    H127876   7.373   3.073   9.385  0.2014  0.6032  0.6415
 1227TIP3    H227877   7.514   3.091   9.334 -0.9227 -0.0980 -2.9543
 1228TIP3   OH227878   4.016   7.032   9.138 -0.2371 -0.2242 -0.2036
 1228TIP3    H127879   4.052   7.083   9.066 -1.1018 -0.3579 -0.7416
 1228TIP3    H227880   3.943   6.984   9.100  0.0213 -1.2002  0.4930
 1229TIP3   OH227881   3.758   5.745   8.894 -0.2250 -0.1761  0.0526
 1229TIP3    H127882   3.813   5.820   8.870 -0.7581  0.1285 -0.2284
 1229TIP3    H227883   3.817   5.669   8.886  0.7714  0.3398  1.8801
 1230TIP3   OH227884   4.291   1.555  10.794 -0.9704 -0.3475 -0.1611
 1230TIP3    H127885   4.355   1.592  10.855 -1.2740  0.1259 -0.1281
 1230TIP3    H227886   4.259   1.476  10.837 -2.2659  0.7597  0.9624
 1231TIP3   OH227887   5.335   5.601   8.843  0.1010  0.5849 -0.3374
 1231TIP3    H127888   5.352   5.672   8.781  0.5546  0.6993 -0.0856
 1231TIP3    H227889   5.418   5.588   8.888 -0.2910  0.6833  0.4362
 1232TIP3   OH227890   5.333   3.843  10.917 -0.1519 -0.1286  0.6449
 1232TIP3    H127891   5.407   3.820  10.860 -0.2690  0.0703  0.4133
 1232TIP3    H227892   5.266   3.777  10.897 -0.8226  0.9165 -0.6606
 1233TIP3   OH227893   4.310   2.060   9.880  0.0162 -0.1413  0.0169
 1233TIP3    H127894   4.299   1.976   9.836 -0.1420 -0.6866  1.0744
 1233TIP3    H227895   4.262   2.051   9.962  2.0430  0.0989  1.2913
 1234TIP3   OH227896   0.232   1.940   9.177 -0.3142  0.1740 -0.3188
 1234TIP3    H127897   0.156   1.940   9.120 -0.8190  1.0801  0.3343
 1234TIP3    H227898   0.252   2.032   9.192  0.4173 -0.0503  0.1646
 1235TIP3   OH227899   0.184   7.227   9.730  0.4182  0.0447  0.4245
 1235TIP3    H127900   0.246   7.162   9.764  0.3206  1.0550  2.7504
 1235TIP3    H227901   0.238   7.287   9.679  0.8802 -0.5989  0.1412
 1236TIP3   OH227902   1.132   7.297   9.029 -0.0409  0.3481 -0.4247
 1236TIP3    H127903   1.048   7.289   9.075  0.2211  1.5817  0.3012
 1236TIP3    H227904   1.140   7.215   8.981 -0.9314 -0.4498  0.7239
 1237TIP3   OH227905   3.565   4.116  10.102  0.2728 -0.0195 -0.5677
 1237TIP3    H127906   3.617   4.089  10.178 -1.4308  0.7782  0.9586
 1237TIP3    H227907   3.607   4.196  10.071  0.1290  0.4852  0.4961
 1238TIP3   OH227908   1.828   6.270   9.273  0.0148 -0.3890  0.2798
 1238TIP3    H127909   1.888   6.295   9.203 -0.6185 -0.7725 -0.4171
 1238TIP3    H227910   1.817   6.350   9.325  0.9836 -0.2719  0.3246
 1239TIP3   OH227911   5.641   5.344  10.367 -0.0652  0.2137  0.0121
 1239TIP3    H127912   5.702   5.416  10.384 -0.0202  0.0314  0.6428
 1239TIP3    H227913   5.572   5.384  10.313  0.9334  0.2697 -1.2925
 1240TIP3   OH227914   7.333   2.814   9.932  0.8029  0.1842  0.3108
 1240TIP3    H127915   7.276   2.821   9.856 -1.7430  0.3280  2.0902
 1240TIP3    H227916   7.324   2.723   9.961  2.1182 -0.0005  0.1919
 1241TIP3   OH227917   4.669   6.840   9.015 -0.3510 -0.6729  0.3020
 1241TIP3    H127918   4.621   6.861   8.934 -1.2915 -4.2362 -0.2207
 1241TIP3    H227919   4.601   6.829   9.081  0.0557 -1.7468  0.5617
 1242TIP3   OH227920   1.550   0.651  10.502 -0.4282 -0.1909 -0.3590
 1242TIP3    H127921   1.509   0.651  10.589 -0.2707 -0.9707 -0.2782
 1242TIP3    H227922   1.613   0.723  10.505  0.7411 -1.2124  0.7399
 1243TIP3   OH227923   1.734   6.552  10.742 -0.2219  0.0491 -0.6408
 1243TIP3    H127924   1.804   6.585  10.798 -0.9887  0.6160 -0.0010
 1243TIP3    H227925   1.736   6.457  10.755  1.0376 -0.0587 -1.3678
 1244TIP3   OH227926   4.974   5.701  10.047 -0.6522  0.3831  0.2718
 1244TIP3    H127927   5.070   5.704  10.038 -0.3580 -2.5320  1.3564
 1244TIP3    H227928   4.956   5.751  10.126  0.2378 -0.5196  1.0821
 1245TIP3   OH227929   7.066   2.039  10.366 -0.0384 -0.1227  0.6145
 1245TIP3    H127930   7.129   2.069  10.300 -1.6218  1.1535 -0.3934
 1245TIP3    H227931   7.077   1.944  10.369 -0.2091 -0.2779 -1.8400
 1246TIP3   OH227932   1.843   7.512  10.545 -0.4030 -0.2579  0.5072
 1246TIP3    H127933   1.886   7.477  10.468  0.9182 -2.2751  2.0401
 1246TIP3    H227934   1.852   7.443  10.611 -0.3476  1.8221  2.8540
 1247TIP3   OH227935   3.304   7.123   9.937  0.4122  0.3454 -0.2862
 1247TIP3    H127936   3.256   7.042   9.954  0.6995  0.5252  1.5773
 1247TIP3    H227937   3.300   7.133   9.842  0.5798 -1.9858 -0.6122
 1248TIP3   OH227938   6.939   2.661   8.909  0.2428 -0.2461 -0.3762
 1248TIP3    H127939   6.916   2.580   8.863 -2.4271  0.3242 -0.2461
 1248TIP3    H227940   6.959   2.632   8.999 -0.2642 -0.8196 -0.4363
 1249TIP3   OH227941   0.938   5.451   9.426 -0.1558  0.4807 -0.1058
 1249TIP3    H127942   0.987   5.399   9.362  0.6675 -0.3157  1.1418
 1249TIP3    H227943   0.870   5.393   9.458 -1.6408  1.4117 -1.4264
 1250TIP3   OH227944   3.724   4.579  11.099 -0.2799  0.1987 -0.0238
 1250TIP3    H127945   3.629   4.573  11.107 -0.2838  0.0433 -0.1696
 1250TIP3    H227946   3.746   4.663  11.139 -0.5310  0.4563 -0.4107
 1251TIP3   OH227947   4.509   7.064   9.235 -0.3621 -0.5795 -0.3462
 1251TIP3    H127948   4.461   7.005   9.177 -1.0804 -0.7448  0.3987
 1251TIP3    H227949   4.560   7.119   9.176 -0.4105 -1.3136 -1.0922
 1252TIP3   OH227950   5.518   0.052   9.425  0.5579 -0.2644  0.0967
 1252TIP3    H127951   5.532   0.039   9.331  0.6411  0.7366 -0.0431
 1252TIP3    H227952   5.435   0.009   9.444 -0.7741  1.6658 -0.9716
 1253TIP3   OH227953   0.542   2.432  10.934 -0.3513  0.0687 -0.2100
 1253TIP3    H127954   0.566   2.525  10.928 -2.8612  0.7255 -1.7586
 1253TIP3    H227955   0.513   2.420  11.024 -1.0250  1.1260 -0.2623
 1254TIP3   OH227956   4.005   0.636   9.677  0.2945  0.3889 -0.5432
 1254TIP3    H127957   3.915   0.610   9.698 -0.1520  0.4968 -2.2063
 1254TIP3    H227958   4.013   0.724   9.714 -0.7865  0.9561 -1.5750
 1255TIP3   OH227959   4.831   1.075  10.350 -0.5483  0.2553 -0.0708
 1255TIP3    H127960   4.766   1.099  10.417  0.0434  1.8222 -0.0280
 1255TIP3    H227961   4.915   1.098  10.389 -0.0859 -0.1520 -0.8137
 1256TIP3   OH227962   4.462   0.461  10.971 -0.8193  0.0040  0.1302
 1256TIP3    H127963   4.432   0.522  11.038 -0.8336 -0.2634  0.3666
 1256TIP3    H227964   4.385   0.406  10.953 -1.1803  0.8275 -0.9541
 1257TIP3   OH227965   1.840   4.284  11.252  0.2431  0.4082 -0.0435
 1257TIP3    H127966   1.772   4.224  11.282  1.3569  0.4828  2.9784
 1257TIP3    H227967   1.821   4.298  11.159 -1.8871 -2.1033 -0.0911
 1258TIP3   OH227968   0.671   1.012  10.698 -0.2561 -0.4291  0.2612
 1258TIP3    H127969   0.757   1.023  10.738 -0.3906  1.3553  0.1467
 1258TIP3    H227970   0.627   0.948  10.753  0.5925 -0.1751  1.2730
 1259TIP3   OH227971   1.146   3.097   9.277  0.2865  0.1333  0.6544
 1259TIP3    H127972   1.224   3.053   9.242 -0.4934 -0.9231  0.1776
 1259TIP3    H227973   1.122   3.161   9.210 -1.0395 -1.6900 -0.7164
 1260TIP3   OH227974   1.202   1.427   9.865 -0.1713 -0.1896  0.3139
 1260TIP3    H127975   1.269   1.365   9.838 -0.2751  0.4582 -1.6253
 1260TIP3    H227976   1.229   1.510   9.825 -0.4366  0.8632  2.1906
 1261TIP3   OH227977   5.705   3.752   8.635 -0.0035 -0.5193 -0.6072
 1261TIP3    H127978   5.782   3.701   8.612  0.2444 -1.8081  2.4930
 1261TIP3    H227979   5.635   3.687   8.644  0.0003 -0.2737  2.1091
 1262TIP3   OH227980   6.529   5.963   9.567 -0.2370 -0.0852 -0.4450
 1262TIP3    H127981   6.549   5.909   9.643  0.4230 -1.7531 -1.7599
 1262TIP3    H227982   6.434   5.971   9.568 -0.1811  1.2546  1.3849
 1263TIP3   OH227983   5.885   6.810   9.191  0.2036 -0.4332  0.0329
 1263TIP3    H127984   5.812   6.861   9.225  0.6203 -0.1283  0.4882
 1263TIP3    H227985   5.851   6.721   9.182 -0.4063 -0.1694 -0.3695
 1264TIP3   OH227986   2.608   1.882   8.886  0.0287 -0.2018 -0.2192
 1264TIP3    H127987   2.654   1.966   8.881 -1.5632  0.7319  0.1450
 1264TIP3    H227988   2.627   1.849   8.974 -1.0887  0.8536  0.4387
 1265TIP3   OH227989   1.145   0.260  11.067  0.4866 -0.6981 -0.2253
 1265TIP3    H127990   1.211   0.322  11.098 -0.1233 -0.5769  0.8926
 1265TIP3    H227991   1.187   0.214  10.995  1.7815 -0.6045  0.4396
 1266TIP3   OH227992   1.072   0.293  10.521  0.1767  0.2026 -0.2702
 1266TIP3    H127993   1.135   0.221  10.520  0.4833  0.3855 -3.3693
 1266TIP3    H227994   1.123   0.371  10.503 -0.6795  0.6417 -0.8512
 1267TIP3   OH227995   4.433   1.502  10.573 -0.3464  0.2485 -0.1131
 1267TIP3    H127996   4.381   1.553  10.636 -1.1379  0.1927 -0.6997
 1267TIP3    H227997   4.504   1.561  10.547  0.0120  0.2595  0.8434
 1268TIP3   OH227998   3.159   3.128   8.860  0.2120  0.3069 -0.0662
 1268TIP3    H127999   3.084   3.153   8.913 -0.5569 -0.7619 -0.6054
 1268TIP3    H228000   3.204   3.210   8.842  0.5030  0.7025  2.1931
 1269TIP3   OH228001   6.375   7.137   9.325 -0.1670 -0.5599 -0.5367
 1269TIP3    H128002   6.350   7.185   9.404 -0.3677 -1.3696 -0.0881
 1269TIP3    H228003   6.297   7.141   9.269  0.2974  0.8227 -1.1178
 1270TIP3   OH228004   4.720   2.459   9.318 -0.8895  0.2319  0.3180
 1270TIP3    H128005   4.787   2.391   9.317 -1.0404  0.0821  0.1474
 1270TIP3    H228006   4.764   2.537   9.351 -0.4451  0.3330 -0.5034
 1271TIP3   OH228007   0.976   3.358   8.491 -0.2755 -0.0252  0.5897
 1271TIP3    H128008   0.949   3.420   8.559  2.0464  1.4623  0.2841
 1271TIP3    H228009   0.895   3.332   8.448 -1.6339  0.2765  2.8286
 1272TIP3   OH228010   4.324   2.299   8.999 -0.9296 -0.2200  0.6581
 1272TIP3    H128011   4.346   2.390   8.983 -0.8193 -0.3945 -0.2284
 1272TIP3    H228012   4.246   2.283   8.946 -0.2993 -0.9321 -0.0913
 1273TIP3   OH228013   6.689   5.849  10.302 -0.2404 -0.0945 -0.9985
 1273TIP3    H128014   6.758   5.836  10.368 -2.8846  0.4654  2.1053
 1273TIP3    H228015   6.677   5.944  10.298 -1.2775 -0.2120 -0.9510
 1274TIP3   OH228016   0.545   7.242   9.946  0.3640  0.0697  0.3014
 1274TIP3    H128017   0.621   7.274   9.898  0.8196  1.5737  1.9158
 1274TIP3    H228018   0.484   7.213   9.878  1.4472  0.9986 -1.1229
 1275TIP3   OH228019   5.046   0.474  10.413  0.2376  0.1242 -0.4425
 1275TIP3    H128020   4.984   0.454  10.484  0.2146 -0.9945 -0.7603
 1275TIP3    H228021   5.132   0.461  10.452  0.4389  3.2950  0.5076
 1276TIP3   OH228022   0.245   6.866  10.864 -0.0794  0.5124 -0.5058
 1276TIP3    H128023   0.254   6.914  10.947  0.1250 -0.7653  0.2323
 1276TIP3    H228024   0.151   6.868  10.845 -0.0343  1.5008 -0.6813
 1277TIP3   OH228025   5.054   5.538  10.522  0.5555 -0.1410  0.4308
 1277TIP3    H128026   5.067   5.508  10.432 -0.9745  1.2971 -0.3177
 1277TIP3    H228027   5.033   5.458  10.571 -3.2782 -0.5509 -1.4847
 1278TIP3   OH228028   3.555   4.901   9.536 -0.0250 -0.1033 -0.6580
 1278TIP3    H128029   3.460   4.910   9.534  0.0354  0.5025 -1.1933
 1278TIP3    H228030   3.575   4.884   9.628 -0.5847  0.6686 -0.3798
 1279TIP3   OH228031   2.106   4.902   9.523 -0.0552  0.0823 -0.1685
 1279TIP3    H128032   2.072   4.911   9.612  2.1580 -0.4080  0.7964
 1279TIP3    H228033   2.187   4.853   9.534 -0.3563 -1.0930 -2.6307
 1280TIP3   OH228034   3.617   5.218  11.038 -0.3140  0.0272 -0.1669
 1280TIP3    H128035   3.681   5.166  10.991  0.0038  1.4718 -1.4152
 1280TIP3    H228036   3.667   5.259  11.109 -0.1130  0.2475 -0.4368
 1281TIP3   OH228037   5.951   6.314   8.231 -0.7684  0.5402 -0.0399
 1281TIP3    H128038   5.998   6.368   8.167 -1.6871  0.5589 -0.7033
 1281TIP3    H228039   5.991   6.338   8.315 -0.9327  2.0151 -0.3549
 1282TIP3   OH228040   3.386   3.912   8.174 -0.3887 -0.0904 -0.2023
 1282TIP3    H128041   3.380   3.843   8.239 -1.3007  0.8389  0.7321
 1282TIP3    H228042   3.309   3.901   8.118 -0.7696  0.4151  0.2126
 1283TIP3   OH228043   2.096   4.160  11.264 -0.0141  0.0625  0.5267
 1283TIP3    H128044   2.002   4.172  11.279 -0.3628  0.1292 -1.3780
 1283TIP3    H228045   2.125   4.243  11.227  0.6425 -0.1929  0.4516
 1284TIP3   OH228046   2.646   6.574  10.488  0.3168 -0.1068  0.5488
 1284TIP3    H128047   2.597   6.610  10.562 -0.0983 -0.2227  0.3331
 1284TIP3    H228048   2.610   6.486  10.476  0.3778 -0.0871  0.2078
 1285TIP3   OH228049   7.539   5.244  10.795  0.2133 -0.6069  1.0818
 1285TIP3    H128050   7.471   5.263  10.731  0.7032  0.8485  0.9543
 1285TIP3    H228051   7.493   5.200  10.867 -1.1797  1.5579  1.6303
 1286TIP3   OH228052   5.932   5.794   8.876  0.2356  0.1374 -0.0484
 1286TIP3    H128053   5.921   5.885   8.904  1.1228  0.0702  0.5194
 1286TIP3    H228054   5.966   5.801   8.787  3.7121  0.4558  1.1623
 1287TIP3   OH228055   3.500   6.462   9.115 -0.0527 -0.1123  0.4957
 1287TIP3    H128056   3.421   6.423   9.152 -0.1639  0.0900  0.4700
 1287TIP3    H228057   3.512   6.418   9.031 -0.6691  0.5217  0.0621
 1288TIP3   OH228058   4.384   6.809  11.150 -0.0856 -0.1175  0.4169
 1288TIP3    H128059   4.348   6.874  11.210 -0.0072 -0.8963  1.3442
 1288TIP3    H228060   4.477   6.808  11.168  0.0337  0.0747 -0.1655
 1289TIP3   OH228061   7.484   2.539  10.111  0.4722 -0.3332 -0.1695
 1289TIP3    H128062   7.542   2.556  10.036  2.3188 -2.3181  0.7044
 1289TIP3    H228063   7.410   2.491  10.074 -0.9367  2.4944 -1.3579
 1290TIP3   OH228064   6.646   6.852   9.665  0.1443 -0.5611  0.5260
 1290TIP3    H128065   6.658   6.932   9.716 -0.8487 -0.1406  0.1285
 1290TIP3    H228066   6.566   6.868   9.615  0.8362 -1.1440 -0.8031
 1291TIP3   OH228067   5.037   0.218   9.651 -0.2961 -0.2972 -0.2345
 1291TIP3    H128068   5.120   0.234   9.604 -1.0231 -1.0887 -1.8868
 1291TIP3    H228069   4.992   0.303   9.649  0.6792  0.2950  1.1908
 1292TIP3   OH228070   6.431   1.662   9.886  0.0408 -0.5314  0.2311
 1292TIP3    H128071   6.477   1.578   9.883  1.3429  0.1729 -0.3272
 1292TIP3    H228072   6.466   1.711   9.812 -0.4820  0.6250  0.7289
 1293TIP3   OH228073   6.428   7.117  10.946  0.9098 -0.4019  0.2865
 1293TIP3    H128074   6.456   7.049  11.007  1.3589  0.0758  0.6213
 1293TIP3    H228075   6.442   7.079  10.859 -1.0019 -1.6208  0.4420
 1294TIP3   OH228076   7.190   3.399   8.354  0.0372  0.8162 -0.0226
 1294TIP3    H128077   7.266   3.347   8.331  0.0039  1.4698 -1.7409
 1294TIP3    H228078   7.126   3.336   8.386  0.4274 -0.0519 -0.9185
 1295TIP3   OH228079   5.094   1.122  10.470 -0.1333 -0.3495  0.6757
 1295TIP3    H128080   5.038   1.170  10.531 -2.0029 -0.5672 -0.7822
 1295TIP3    H228081   5.177   1.171  10.470 -0.1442 -0.2048  3.1424
 1296TIP3   OH228082   6.502   1.522  11.078  0.1718  0.4147  0.3815
 1296TIP3    H128083   6.551   1.488  11.153  0.3551  0.1937  0.1626
 1296TIP3    H228084   6.462   1.603  11.111 -0.4587 -0.1234  0.9732
 1297TIP3   OH228085   3.873   1.981  10.121  0.2180  0.2063  0.5530
 1297TIP3    H128086   3.925   1.929  10.182 -1.1587 -1.3202  0.4850
 1297TIP3    H228087   3.788   1.990  10.164 -0.3283  0.3220 -0.5340
 1298TIP3   OH228088   1.947   1.946   8.944 -0.1857  0.1687 -0.3272
 1298TIP3    H128089   2.018   1.884   8.957 -0.5872 -0.0111  1.0588
 1298TIP3    H228090   1.894   1.940   9.023 -1.3792  0.7878 -1.0551
 1299TIP3   OH228091   0.345   7.589   9.880 -0.8344 -0.3244 -0.2518
 1299TIP3    H128092   0.292   7.662   9.912 -1.5453  0.2635 -2.5495
 1299TIP3    H228093   0.312   7.513   9.926 -0.9313  0.6100  1.2849
 1300TIP3   OH228094   1.942   1.716   8.596 -0.0232  0.1382 -0.0591
 1300TIP3    H128095   1.947   1.646   8.660  1.4830 -0.0686 -0.3707
 1300TIP3    H228096   1.981   1.792   8.639  0.0078  0.2912 -0.3507
 1301TIP3   OH228097   4.555   2.151   9.810  0.1040  0.3073  0.3929
 1301TIP3    H128098   4.472   2.111   9.836 -0.5812  1.2553 -0.2825
 1301TIP3    H228099   4.599   2.168   9.893  1.1290 -3.1561  0.7192
 1302TIP3   OH228100   4.447   5.245  10.164  0.1317 -0.5445 -0.5313
 1302TIP3    H128101   4.412   5.278  10.247 -1.2926 -2.6478 -0.1970
 1302TIP3    H228102   4.542   5.256  10.172  0.0657 -1.0096  1.5595
 1303TIP3   OH228103   0.830   6.224  10.541 -0.5185  0.2841 -0.2986
 1303TIP3    H128104   0.883   6.152  10.575 -0.5609  0.7876  0.8685
 1303TIP3    H228105   0.815   6.280  10.617 -1.9558  0.6230 -0.8109
 1304TIP3   OH228106   2.636   0.462  11.119 -0.3380  0.4679  0.3498
 1304TIP3    H128107   2.724   0.474  11.083 -0.4227  2.3998  0.6928
 1304TIP3    H228108   2.578   0.472  11.043 -0.3252  0.4133  0.3329
 1305TIP3   OH228109   1.576   1.884   9.694  0.8737 -0.0327  0.5777
 1305TIP3    H128110   1.481   1.870   9.695  0.8691 -0.0772  1.9060
 1305TIP3    H228111   1.601   1.872   9.603 -0.8796  3.3231 -0.5190
 1306TIP3   OH228112   6.370   1.294  10.116  0.0587  0.3545 -0.5853
 1306TIP3    H128113   6.313   1.315  10.191 -1.4496  1.0135 -1.8360
 1306TIP3    H228114   6.318   1.234  10.063  0.9766  0.1482 -1.2726
 1307TIP3   OH228115   4.483   2.487  10.829 -0.5417  0.1455 -0.1605
 1307TIP3    H128116   4.439   2.531  10.902 -1.3991 -1.1215  0.1241
 1307TIP3    H228117   4.498   2.398  10.861 -0.6383 -0.3372 -1.4211
 1308TIP3   OH228118   3.149   4.129   8.275 -0.6251  0.0611  0.4233
 1308TIP3    H128119   3.062   4.167   8.270  0.2066  2.0030 -3.6513
 1308TIP3    H228120   3.147   4.057   8.211  0.8141  0.3174  0.0578
 1309TIP3   OH228121   1.371   4.783  10.469  1.0845 -0.2686  0.1404
 1309TIP3    H128122   1.429   4.814  10.538  0.0347  0.2998  0.8044
 1309TIP3    H228123   1.377   4.849  10.401  0.4644  0.3192  0.6439
 1310TIP3   OH228124   3.386   5.629  10.473 -0.2608 -0.4648  0.5338
 1310TIP3    H128125   3.471   5.654  10.436 -0.2111 -2.0864 -0.5210
 1310TIP3    H228126   3.324   5.646  10.402 -0.4839 -1.5213  0.4745
 1311TIP3   OH228127   0.681   6.724  11.079 -0.5766  0.1899 -0.2891
 1311TIP3    H128128   0.666   6.633  11.104  1.2811 -0.2092 -0.4388
 1311TIP3    H228129   0.655   6.728  10.987  1.8209 -0.9768 -1.1261
 1312TIP3   OH228130   6.434   5.616  10.617 -0.5492  0.0043  0.2935
 1312TIP3    H128131   6.348   5.605  10.658 -2.0427  0.5192 -2.4383
 1312TIP3    H228132   6.415   5.620  10.524  2.4441  0.6053 -0.3833
 1313TIP3   OH228133   2.512   6.717   8.878 -0.1621 -0.4844  0.2904
 1313TIP3    H128134   2.578   6.673   8.932 -1.5174 -2.0285  0.7848
 1313TIP3    H228135   2.450   6.648   8.856 -1.2442  0.7711 -0.7450
 1314TIP3   OH228136   3.758   4.058   8.642 -0.4242  0.2762 -0.1246
 1314TIP3    H128137   3.745   4.091   8.553  0.9514  0.3138 -0.3314
 1314TIP3    H228138   3.820   3.985   8.633 -2.5957 -1.7613  0.4578
 1315TIP3   OH228139   2.550   4.767   9.743 -0.6915 -0.1215 -0.2221
 1315TIP3    H128140   2.520   4.686   9.786  0.0998  0.4956  1.5756
 1315TIP3    H228141   2.519   4.837   9.800  1.7277  0.6637  0.2186
 1316TIP3   OH228142   5.058   4.556  11.010  0.4574  0.2869 -0.0852
 1316TIP3    H128143   5.036   4.481  10.954  0.9159  0.0369  0.0645
 1316TIP3    H228144   5.103   4.617  10.951  2.0806 -0.5183  0.2585
 1317TIP3   OH228145   7.450   4.977  10.925  0.4560  0.4198  0.3501
 1317TIP3    H128146   7.526   4.954  10.872 -0.6801 -0.2778 -1.0351
 1317TIP3    H228147   7.460   4.924  11.005  0.5593 -0.9930 -0.5635
 1318TIP3   OH228148   1.139   2.232   9.415 -0.2229  0.4134  0.8679
 1318TIP3    H128149   1.094   2.251   9.497  0.1853  1.1103  0.9344
 1318TIP3    H228150   1.230   2.255   9.431 -0.2927  1.3932 -0.0491
 1319TIP3   OH228151   6.683   1.849   9.211 -0.1725  0.5352 -0.0963
 1319TIP3    H128152   6.695   1.814   9.300 -0.9475 -0.3681 -0.3348
 1319TIP3    H228153   6.590   1.868   9.205 -0.3145 -0.3547 -1.0425
 1320TIP3   OH228154   4.963   3.061  11.012 -0.3823 -0.7392  0.0722
 1320TIP3    H128155   4.896   3.130  11.008 -1.0380 -1.4246 -1.5509
 1320TIP3    H228156   5.045   3.107  10.999 -0.8320 -0.2491 -1.2296
 1321TIP3   OH228157   4.154   5.239   8.535 -0.3774 -0.0871  0.0776
 1321TIP3    H128158   4.194   5.323   8.558 -0.8316  0.1975 -0.1423
 1321TIP3    H228159   4.087   5.226   8.602 -0.1541 -0.3883  0.2423
 1322TIP3   OH228160   0.891   5.257  10.610 -0.1886 -0.0290  0.1857
 1322TIP3    H128161   0.812   5.304  10.635 -0.3384  0.1381 -0.5799
 1322TIP3    H228162   0.860   5.172  10.578 -0.0277 -0.1203  0.2667
 1323TIP3   OH228163   2.750   6.025   9.601  0.0460  0.0964 -0.1208
 1323TIP3    H128164   2.766   5.991   9.688  0.4565  0.4830 -0.0472
 1323TIP3    H228165   2.835   6.056   9.570  0.2465 -1.4700 -1.2878
 1324TIP3   OH228166   2.322   1.040  10.805 -0.0830  0.2895  0.3007
 1324TIP3    H128167   2.238   1.054  10.848 -0.2538 -0.5340  0.2491
 1324TIP3    H228168   2.329   1.110  10.741  0.6150  2.1684  2.2995
 1325TIP3   OH228169   3.668   3.414   8.783  0.2446 -0.2054  0.3840
 1325TIP3    H128170   3.722   3.340   8.753 -1.0835 -0.9533 -0.2485
 1325TIP3    H228171   3.680   3.481   8.716 -0.1307 -0.6301 -0.1198
 1326TIP3   OH228172   6.003   2.364  10.076  0.1155  0.8651 -0.1940
 1326TIP3    H128173   6.008   2.417   9.997  2.2677  1.6562  0.4076
 1326TIP3    H228174   5.976   2.277  10.045  1.3842  1.0267 -1.8827
 1327TIP3   OH228175   1.582   7.609   9.802 -0.2891 -0.1344  0.1419
 1327TIP3    H128176   1.532   7.557   9.865 -2.1658  0.0820 -1.0838
 1327TIP3    H228177   1.615   7.684   9.852 -3.2464  0.9866  0.5804
 1328TIP3   OH228178   6.598   5.784   9.785  0.3924 -0.5045  0.1021
 1328TIP3    H128179   6.654   5.804   9.860 -0.7674 -0.3037  0.9439
 1328TIP3    H228180   6.516   5.753   9.824 -1.0273  1.6290 -1.0023
 1329TIP3   OH228181   0.938   5.365  10.372  0.1974  0.1404  0.3261
 1329TIP3    H128182   1.009   5.317  10.329  1.4417  1.0049  1.3346
 1329TIP3    H228183   0.934   5.329  10.460 -0.8865 -0.1455  0.1757
 1330TIP3   OH228184   5.202   0.571  10.726  0.3497  0.2204  0.2608
 1330TIP3    H128185   5.167   0.496  10.774  1.2430 -0.5180 -0.1990
 1330TIP3    H228186   5.248   0.533  10.651  0.0122  1.2883 -0.5163
 1331TIP3   OH228187   2.441   5.275  11.199  0.3671 -0.1583 -0.1530
 1331TIP3    H128188   2.498   5.296  11.125 -1.8767  2.1073 -1.3785
 1331TIP3    H228189   2.420   5.360  11.237 -2.0633 -0.9090  0.3284
 1332TIP3   OH228190   4.160   6.075   8.777  0.3135 -0.4633 -0.6735
 1332TIP3    H128191   4.193   6.021   8.849  2.2666  1.7133  0.2233
 1332TIP3    H228192   4.233   6.080   8.715  0.1485  0.9349 -0.7991
 1333TIP3   OH228193   6.491   3.586  10.286  0.0747  0.0213 -0.2268
 1333TIP3    H128194   6.575   3.607  10.245 -0.0961  1.1009 -0.0419
 1333TIP3    H228195   6.490   3.638  10.366 -0.6421 -0.2223 -0.0758
 1334TIP3   OH228196   1.809   0.548   8.882 -0.9847 -0.0340  0.2825
 1334TIP3    H128197   1.747   0.613   8.917 -0.1685  0.7481  0.3204
 1334TIP3    H228198   1.778   0.531   8.793  0.5569  2.8446 -0.9340
 1335TIP3   OH228199   0.335   1.112  10.118  0.3822  0.3176 -0.2045
 1335TIP3    H128200   0.418   1.125  10.162  0.4274  0.8589 -0.4404
 1335TIP3    H228201   0.339   1.170  10.041  0.2751 -0.5380 -0.8694
 1336TIP3   OH228202   3.267   3.343  11.216  0.1181  0.0226  0.1948
 1336TIP3    H128203   3.239   3.376  11.131 -0.6782 -2.4772 -0.6020
 1336TIP3    H228204   3.205   3.381  11.278 -0.4693  0.3846 -0.6065
 1337TIP3   OH228205   1.061   7.388  11.025  0.1738 -0.4204  0.2887
 1337TIP3    H128206   1.090   7.444  11.097  1.0996  0.6408 -0.8659
 1337TIP3    H228207   1.102   7.426  10.947 -1.6092 -0.9224 -0.9517
 1338TIP3   OH228208   3.439   3.039   8.895  0.6470 -0.1074  0.4127
 1338TIP3    H128209   3.355   3.018   8.854 -0.0800  1.0300  1.2488
 1338TIP3    H228210   3.505   2.997   8.839 -0.4096 -0.0651 -0.9145
 1339TIP3   OH228211   3.271   5.917   9.053 -0.6724 -0.2513 -0.3917
 1339TIP3    H128212   3.190   5.940   9.098 -0.3866  1.4083 -0.6800
 1339TIP3    H228213   3.244   5.901   8.962 -0.8292 -0.8212 -0.2493
 1340TIP3   OH228214   5.909   2.349  10.716  0.4416  0.0344  0.0220
 1340TIP3    H128215   5.931   2.266  10.759  1.0763 -0.0643 -0.4652
 1340TIP3    H228216   5.966   2.351  10.638 -0.5696  0.2728 -0.7289
 1341TIP3   OH228217   3.130   0.815   9.308 -0.0264  0.4426 -0.5291
 1341TIP3    H128218   3.062   0.882   9.300 -0.1000  0.6494  1.4387
 1341TIP3    H228219   3.209   0.858   9.275 -0.1373  1.4373  0.4335
 1342TIP3   OH228220   0.197   2.397  10.986 -0.5263  0.1305 -0.5488
 1342TIP3    H128221   0.209   2.450  10.908 -0.7387  0.8526 -0.0975
 1342TIP3    H228222   0.278   2.408  11.036 -0.4700 -0.1719 -0.5682
 1343TIP3   OH228223   0.456   1.469   8.424 -0.3596 -0.0404 -0.4462
 1343TIP3    H128224   0.407   1.418   8.359 -2.2993  0.0638  0.8694
 1343TIP3    H228225   0.523   1.514   8.373 -1.4735 -0.3827 -2.2988
 1344TIP3   OH228226   7.105   3.380   9.463  0.3150  0.4258  0.7232
 1344TIP3    H128227   7.141   3.397   9.550  1.8015 -2.6424  0.8385
 1344TIP3    H228228   7.031   3.321   9.480  0.0804  0.4860 -0.0700
 1345TIP3   OH228229   1.024   6.815  10.113 -0.0684  0.1494  0.2782
 1345TIP3    H128230   0.953   6.764  10.152 -0.4410 -0.0725 -0.6858
 1345TIP3    H228231   1.088   6.824  10.184 -1.1312  0.5132  1.2255
 1346TIP3   OH228232   2.339   1.079  10.104 -0.3925 -0.3621  0.6010
 1346TIP3    H128233   2.255   1.051  10.068  0.1611 -0.8579 -0.3565
 1346TIP3    H228234   2.358   1.016  10.173  0.1287 -1.5082 -0.5368
 1347TIP3   OH228235   6.222   4.123  10.996  0.3834 -0.5774 -0.1154
 1347TIP3    H128236   6.280   4.060  11.038  1.5482  0.6790  0.2256
 1347TIP3    H228237   6.250   4.208  11.030 -1.1985  0.1284 -0.4976
 1348TIP3   OH228238   3.334   3.422   9.305 -0.3604 -0.1904 -0.1942
 1348TIP3    H128239   3.364   3.373   9.382  0.7743  2.7077  1.3714
 1348TIP3    H228240   3.413   3.465   9.272 -1.0809 -0.3273 -2.2353
 1349TIP3   OH228241   0.256   4.542  10.387 -0.0403  0.4878  0.3216
 1349TIP3    H128242   0.236   4.545  10.293  3.4477  1.4576 -0.5162
 1349TIP3    H228243   0.293   4.455  10.401 -2.5525 -0.4965  1.3786
 1350TIP3   OH228244   4.247   0.782  11.008 -0.3927  0.1654  0.3228
 1350TIP3    H128245   4.278   0.691  11.002 -1.2451 -0.2787  2.0082
 1350TIP3    H228246   4.298   0.829  10.942  0.9830 -1.2789  0.2936
 1351TIP3   OH228247   3.098   5.159  10.109  0.0137  0.0895 -0.2348
 1351TIP3    H128248   3.136   5.077  10.077 -0.2929 -0.5732  1.0325
 1351TIP3    H228249   3.082   5.143  10.202 -0.0272  1.6052  0.0410
 1352TIP3   OH228250   3.964   5.394  10.558  0.5249 -0.1448 -0.5488
 1352TIP3    H128251   4.032   5.453  10.591 -0.5564 -0.0941  1.7695
 1352TIP3    H228252   3.977   5.313  10.606 -2.2194  0.5106  1.5601
 1353TIP3   OH228253   3.797   3.767   8.615 -0.4717  0.5015  0.4693
 1353TIP3    H128254   3.729   3.773   8.548 -0.0653 -0.1358 -0.0106
 1353TIP3    H228255   3.799   3.675   8.639  1.1842  0.2352 -0.5562
 1354TIP3   OH228256   2.995   4.019  10.849  0.2101  0.0004 -0.6656
 1354TIP3    H128257   2.990   3.926  10.829  1.4592 -0.0606 -0.7998
 1354TIP3    H228258   3.086   4.032  10.878 -0.1282  1.0514 -0.0147
 1355TIP3   OH228259   4.052   7.101  11.324  0.2811 -0.0123 -0.2062
 1355TIP3    H128260   4.141   7.120  11.355  0.2922 -0.3471 -0.0214
 1355TIP3    H228261   4.055   7.119  11.230  0.5230  0.0589 -0.1854
 1356TIP3   OH228262   5.801   4.066  10.374 -0.3059  0.3099  0.0694
 1356TIP3    H128263   5.742   3.996  10.345  0.8553 -0.6677 -0.0062
 1356TIP3    H228264   5.819   4.117  10.295  1.0457 -0.9986 -0.5205
 1357TIP3   OH228265   2.183   6.913  10.497 -0.4007  0.3083 -0.0361
 1357TIP3    H128266   2.279   6.912  10.500 -0.3985  0.9821  0.7516
 1357TIP3    H228267   2.159   6.836  10.447  0.5499 -0.1174  0.1437
 1358TIP3   OH228268   3.306   2.326   8.379 -0.5084  0.4548  0.3455
 1358TIP3    H128269   3.343   2.403   8.422 -0.0015 -0.3598  1.4102
 1358TIP3    H228270   3.352   2.252   8.417 -0.4912 -0.3616 -1.1564
 1359TIP3   OH228271   1.896   7.618   9.533 -0.3137 -0.1136  0.4010
 1359TIP3    H128272   1.819   7.563   9.524 -1.0317  0.9450 -0.1032
 1359TIP3    H228273   1.911   7.623   9.628 -2.3094  1.5486  0.7031
 1360TIP3   OH228274   2.942   3.525  11.113 -0.1222  0.0600  0.1172
 1360TIP3    H128275   2.906   3.516  11.025  3.0551  0.0025 -1.3127
 1360TIP3    H228276   2.912   3.447  11.159 -1.3944 -0.1846 -1.0695
 1361TIP3   OH228277   5.312   5.497  10.649 -0.2731  0.1080 -0.3142
 1361TIP3    H128278   5.227   5.524  10.614 -0.9091 -0.1348  0.9604
 1361TIP3    H228279   5.309   5.524  10.741  1.7643  1.7295 -0.6625
 1362TIP3   OH228280   5.678   2.455  10.408  0.1301  0.1599 -0.3414
 1362TIP3    H128281   5.762   2.423  10.441 -0.6859 -1.6792  0.0533
 1362TIP3    H228282   5.631   2.482  10.487 -0.1846 -0.1789 -0.4082
 1363TIP3   OH228283   1.627   1.766   8.681 -0.2290 -0.2851 -0.2575
 1363TIP3    H128284   1.677   1.835   8.637  1.2787  0.8375  2.8332
 1363TIP3    H228285   1.694   1.706   8.714 -0.9875 -0.0547  1.9241
 1364TIP3   OH228286   5.083   4.619  10.120  0.2941 -0.2678 -0.5687
 1364TIP3    H128287   5.091   4.536  10.167  3.0222  1.2204  1.9188
 1364TIP3    H228288   5.165   4.627  10.072  1.2362  2.0379  1.2494
 1365TIP3   OH228289   0.248   2.925  10.909  0.1181  0.3718 -0.0875
 1365TIP3    H128290   0.281   2.977  10.983  0.1843 -0.5950  0.5752
 1365TIP3    H228291   0.175   2.875  10.945 -0.1763  0.2576 -0.8123
 1366TIP3   OH228292   3.764   6.412   9.696  0.8042  1.0926 -0.2804
 1366TIP3    H128293   3.690   6.467   9.669 -0.5298 -1.1937 -1.5862
 1366TIP3    H228294   3.729   6.361   9.769  1.7449  1.3116  0.3415
 1367TIP3   OH228295   1.960   0.286   9.585 -0.3023 -0.3680 -0.6187
 1367TIP3    H128296   1.990   0.377   9.585 -1.1110 -0.0569  0.9311
 1367TIP3    H228297   2.038   0.235   9.562  1.0241  0.5243  1.5830
 1368TIP3   OH228298   5.896   5.185  10.581 -0.3218 -0.3880  0.1630
 1368TIP3    H128299   5.853   5.123  10.522 -0.1289  1.1476 -1.6702
 1368TIP3    H228300   5.935   5.130  10.649 -1.4606 -2.1415 -0.5337
 1369TIP3   OH228301   3.635   3.140  11.277 -0.6141  0.3097  0.2042
 1369TIP3    H128302   3.625   3.052  11.315 -0.8291 -0.4633 -1.5555
 1369TIP3    H228303   3.555   3.154  11.227 -1.2919  2.2105  1.7274
 1370TIP3   OH228304   1.748   6.974  10.706 -0.3134  0.2904 -0.2248
 1370TIP3    H128305   1.844   6.980  10.715 -0.3159 -0.9378  0.9415
 1370TIP3    H228306   1.714   7.025  10.779 -0.5164 -0.5072  0.2480
 1371TIP3   OH228307   1.213   7.082   9.226  0.6802  0.1719 -0.0843
 1371TIP3    H128308   1.134   7.135   9.215  0.3404 -0.4603 -0.7509
 1371TIP3    H228309   1.285   7.141   9.203  0.3509  0.5390 -0.1785
 1372TIP3   OH228310   2.083   2.912   9.148 -0.7727  0.0671 -1.2165
 1372TIP3    H128311   1.998   2.907   9.103 -0.6115 -0.8093 -1.4316
 1372TIP3    H228312   2.135   2.842   9.109  0.3798  1.1918 -1.7459
 1373TIP3   OH228313   4.588   1.526  10.191  0.3544 -0.3519 -0.1754
 1373TIP3    H128314   4.616   1.465  10.259  0.7383 -0.3836 -0.3645
 1373TIP3    H228315   4.611   1.613  10.226  0.4579 -0.3617 -0.2185
 1374TIP3   OH228316   4.727   4.183  10.844 -0.1760  0.4531  0.3768
 1374TIP3    H128317   4.729   4.230  10.761 -1.0597 -0.7075 -0.3375
 1374TIP3    H228318   4.718   4.251  10.910 -1.1872  1.3198 -0.6112
 1375TIP3   OH228319   5.304   0.041  10.306  0.4893  0.0537  0.5483
 1375TIP3    H128320   5.347   0.114  10.263  0.8999  0.2670  1.3087
 1375TIP3    H228321   5.273  -0.015  10.234  2.1306 -0.1727 -0.0205
 1376TIP3   OH228322   6.250   5.801   9.168  0.4063 -0.5236 -0.3399
 1376TIP3    H128323   6.217   5.891   9.168  0.9484 -0.1491  3.3272
 1376TIP3    H228324   6.186   5.752   9.118  0.1702  1.8738 -2.6149
 1377TIP3   OH228325   1.756   3.409   9.850 -0.3189 -0.3893 -0.3174
 1377TIP3    H128326   1.777   3.456   9.769  0.2595  1.7302  1.0020
 1377TIP3    H228327   1.841   3.379   9.883 -0.6200 -1.8645 -0.8093
 1378TIP3   OH228328   6.703   1.484  10.694 -0.2462  0.3236  0.9339
 1378TIP3    H128329   6.616   1.456  10.667 -0.3080  0.8197  0.6049
 1378TIP3    H228330   6.696   1.495  10.789 -1.3488  2.9984  0.6506
 1379TIP3   OH228331   1.873   6.453  10.510  0.0219  0.4942 -0.3804
 1379TIP3    H128332   1.812   6.499  10.453 -2.4664 -2.2312 -0.1426
 1379TIP3    H228333   1.837   6.464  10.598  0.9187  0.3121  0.0275
 1380TIP3   OH228334   2.655   0.308   9.754 -0.0680 -0.2810  0.5943
 1380TIP3    H128335   2.695   0.393   9.768 -2.7040  1.2534 -0.4762
 1380TIP3    H228336   2.637   0.275   9.842 -0.8739  1.2481  1.0350
 1381TIP3   OH228337   5.901   5.716   9.493  0.0223 -0.0810 -0.2540
 1381TIP3    H128338   5.896   5.697   9.399  1.3101  0.5986 -0.4833
 1381TIP3    H228339   5.904   5.630   9.535 -0.7521 -0.3969 -0.8037
 1382TIP3   OH228340   5.663   1.200  10.538 -0.1302 -0.2231 -0.2763
 1382TIP3    H128341   5.758   1.203  10.526 -0.4142 -1.4615 -3.9285
 1382TIP3    H228342   5.637   1.292  10.540  1.1367  0.1560  1.5295
 1383TIP3   OH228343   2.924   5.845  11.056  0.8010 -0.5623 -0.7636
 1383TIP3    H128344   2.838   5.806  11.044 -0.0269  0.5694  0.9902
 1383TIP3    H228345   2.924   5.923  11.001  1.1184 -1.1076 -1.5523
 1384TIP3   OH228346   3.866   3.760  10.104  1.4880  0.7881 -0.0754
 1384TIP3    H128347   3.877   3.745  10.198 -0.3530  0.8602  0.1893
 1384TIP3    H228348   3.908   3.684  10.063 -3.1324 -2.9421  1.0907
 1385TIP3   OH228349   4.378   7.428  10.594  0.2540  0.5122  0.1223
 1385TIP3    H128350   4.371   7.473  10.510  0.8846  0.0507 -0.1848
 1385TIP3    H228351   4.368   7.498  10.660  2.1331  1.2816 -0.3378
 1386TIP3   OH228352   3.432   1.475   9.945  0.2293 -0.2968 -0.2174
 1386TIP3    H128353   3.342   1.488   9.976  0.5151  2.2435 -0.2143
 1386TIP3    H228354   3.485   1.525  10.007  1.4326 -0.0839 -1.3816
 1387TIP3   OH228355   3.660   7.052   9.667  0.9539  0.0495 -0.6639
 1387TIP3    H128356   3.630   6.961   9.672  0.2188  0.2871 -0.5299
 1387TIP3    H228357   3.707   7.066   9.749  1.5756 -0.3778 -0.9427
 1388TIP3   OH228358   7.658   0.240  10.099  0.2720  0.0681  0.2442
 1388TIP3    H128359   7.621   0.155  10.121  0.5174  0.2653  1.4752
 1388TIP3    H228360   7.597   0.304  10.138 -1.2470  0.5744 -2.6888
 1389TIP3   OH228361   0.671   5.447   9.865 -0.1901  0.5325  0.0172
 1389TIP3    H128362   0.622   5.470   9.786 -0.3222  0.0673 -0.0356
 1389TIP3    H228363   0.762   5.452   9.838  0.0463  4.7201  0.9470
 1390TIP3   OH228364   4.416   2.564  11.077 -0.1289 -0.0717  0.3307
 1390TIP3    H128365   4.324   2.537  11.083 -0.3083  0.3118 -0.5147
 1390TIP3    H228366   4.421   2.643  11.130 -0.0090 -0.7299  1.3342
 1391TIP3   OH228367   1.905   4.482  10.206  0.0742  0.0309  0.1223
 1391TIP3    H128368   1.904   4.429  10.126 -1.8417  1.0279 -0.5775
 1391TIP3    H228369   1.849   4.433  10.267 -0.6443  0.5587 -0.0907
 1392TIP3   OH228370   6.634   5.192  10.479  0.3309 -0.2586  0.4279
 1392TIP3    H128371   6.570   5.205  10.549  0.9686 -0.5851  1.0836
 1392TIP3    H228372   6.645   5.279  10.441 -0.8751 -0.2891 -0.0369
 1393TIP3   OH228373   7.652   2.029   9.819 -0.1080 -0.1022  0.3950
 1393TIP3    H128374   7.625   2.072   9.899  1.7010  1.9584 -0.0041
 1393TIP3    H228375   7.572   2.024   9.766 -0.7413  1.1261  1.1965
 1394TIP3   OH228376   3.228   6.171   9.600 -0.2198  0.1429 -0.0632
 1394TIP3    H128377   3.311   6.215   9.579 -0.0355 -0.6834 -1.1839
 1394TIP3    H228378   3.240   6.082   9.566 -0.3478 -0.9962  2.6773
 1395TIP3   OH228379   4.302   2.788   9.305  0.0278 -0.1906  0.0357
 1395TIP3    H128380   4.293   2.694   9.294 -1.8021  0.0100 -0.6431
 1395TIP3    H228381   4.318   2.821   9.216 -0.3808  0.2237  0.1133
 1396TIP3   OH228382   7.308   4.567  10.794  0.2064 -0.1163 -0.2536
 1396TIP3    H128383   7.223   4.578  10.751 -1.0469 -0.6198  1.9509
 1396TIP3    H228384   7.287   4.549  10.885  2.6975 -0.6868  0.2877
 1397TIP3   OH228385   7.005   0.045  10.945  0.0386 -0.1699  0.0638
 1397TIP3    H128386   7.096   0.026  10.966 -0.3832 -0.9831  1.2628
 1397TIP3    H228387   7.009   0.116  10.881  1.4629  1.0232  1.4086
 1398TIP3   OH228388   0.523   1.728  10.865  0.0775  0.4381  0.6036
 1398TIP3    H128389   0.569   1.791  10.921 -0.8056  0.0895  1.7586
 1398TIP3    H228390   0.494   1.660  10.925  0.9450 -1.0649 -0.6059
 1399TIP3   OH228391   0.932   3.527   8.715 -0.0049 -0.3070 -0.1578
 1399TIP3    H128392   0.917   3.506   8.807  0.7673 -0.9041 -0.1629
 1399TIP3    H228393   0.879   3.605   8.700 -0.7200 -0.6208  0.5990
 1400TIP3   OH228394   5.994   0.898  10.511  0.4467 -0.2836 -0.2885
 1400TIP3    H128395   5.916   0.848  10.487  0.1149 -0.1519  0.4957
 1400TIP3    H228396   6.067   0.848  10.473  0.2776 -2.2875  1.8024
 1401TIP3   OH228397   1.711   4.423  10.484 -0.1628 -0.5258  0.0526
 1401TIP3    H128398   1.665   4.488  10.432  0.1959  0.3171  0.7688
 1401TIP3    H228399   1.747   4.362  10.419 -0.0352  0.2895 -0.6618
 1402TIP3   OH228400   0.313   3.765  10.292  0.0707  0.2080 -0.3743
 1402TIP3    H128401   0.371   3.689  10.293  0.1588  0.2563  1.9094
 1402TIP3    H228402   0.226   3.729  10.276  0.1604 -0.3567  0.3649
 1403TIP3   OH228403   1.005   0.698   8.663  0.2944 -0.6120  0.3219
 1403TIP3    H128404   0.994   0.710   8.569 -3.8987 -3.0001  0.2652
 1403TIP3    H228405   1.033   0.607   8.672 -1.1192 -0.9864  1.3263
 1404TIP3   OH228406   5.908   5.028  10.092 -0.7101  0.5762 -0.0474
 1404TIP3    H128407   5.930   4.983  10.173 -0.2860 -1.9245 -1.4441
 1404TIP3    H228408   5.859   5.106  10.120  0.5938  0.5532  2.6131
 1405TIP3   OH228409   4.688   5.362   8.492 -0.0756 -0.2271 -0.0109
 1405TIP3    H128410   4.724   5.445   8.522 -0.2900  0.0195 -0.4296
 1405TIP3    H228411   4.763   5.303   8.487  0.2833  0.3015 -0.9496
 1406TIP3   OH228412   6.891   1.436  11.230 -1.2424 -0.5170 -0.0677
 1406TIP3    H128413   6.986   1.433  11.241 -1.4522 -2.2443  1.7135
 1406TIP3    H228414   6.871   1.530  11.230  0.5308 -0.0744 -1.5235
 1407TIP3   OH228415   5.690   4.017   9.738 -0.1453 -0.0761  0.5132
 1407TIP3    H128416   5.680   3.922   9.744 -0.1130 -0.0539  0.9908
 1407TIP3    H228417   5.603   4.052   9.756 -0.0574 -0.0059  0.8249
 1408TIP3   OH228418   6.836   0.644   8.830  0.0465 -0.1805  0.1446
 1408TIP3    H128419   6.776   0.692   8.887  1.7741  0.8432  1.1924
 1408TIP3    H228420   6.853   0.704   8.757  1.0114  0.2218  0.6752
 1409TIP3   OH228421   6.458   1.098   9.090  0.1634 -0.2470 -0.0518
 1409TIP3    H128422   6.458   1.077   8.997 -2.2263 -0.5703 -0.0383
 1409TIP3    H228423   6.542   1.141   9.105  2.3650 -3.5538 -1.5225
 1410TIP3   OH228424   6.562   6.929   8.631  0.1458  0.6608  0.1319
 1410TIP3    H128425   6.607   6.919   8.547  0.4703  0.5986  0.3140
 1410TIP3    H228426   6.595   7.012   8.666  0.2826  0.5071  0.3662
 1411TIP3   OH228427   0.684   3.889   9.163  0.6322  0.4979 -0.4861
 1411TIP3    H128428   0.705   3.887   9.256 -1.1873  0.1973 -0.0302
 1411TIP3    H228429   0.621   3.817   9.152  1.4778 -0.0358 -2.1398
 1412TIP3   OH228430   4.491   6.598   9.116 -0.3373  0.1742 -0.3413
 1412TIP3    H128431   4.512   6.623   9.026 -1.7600 -2.4703 -1.5001
 1412TIP3    H228432   4.555   6.531   9.138 -0.0140  0.7833  0.6690
 1413TIP3   OH228433   2.101   3.258  10.216 -0.3558 -0.0682 -0.1193
 1413TIP3    H128434   2.156   3.252  10.294 -1.2923 -0.1039  0.5553
 1413TIP3    H228435   2.028   3.199  10.234  0.0325 -1.0271 -1.5566
 1414TIP3   OH228436   3.866   1.252   8.607  0.4526  0.5940  0.3765
 1414TIP3    H128437   3.782   1.269   8.651  0.3675  2.7253 -0.5220
 1414TIP3    H228438   3.842   1.233   8.517  0.7966 -1.5290  0.6821
 1415TIP3   OH228439   3.933   6.331  11.156 -0.0204  0.3049  0.1402
 1415TIP3    H128440   3.922   6.323  11.061  0.3103 -0.0183  0.1261
 1415TIP3    H228441   3.924   6.242  11.189  0.6227  0.3001  0.3263
 1416TIP3   OH228442   5.611   3.304  10.747  0.4868 -0.2940  0.3294
 1416TIP3    H128443   5.627   3.395  10.772  1.6608 -0.2967 -0.3418
 1416TIP3    H228444   5.688   3.257  10.779  0.1510 -0.9569  0.1751
 1417TIP3   OH228445   6.190   3.356  10.199 -0.4050 -0.0833 -0.3479
 1417TIP3    H128446   6.145   3.420  10.255  1.0472  0.9255 -0.2960
 1417TIP3    H228447   6.121   3.321  10.143 -1.0706  2.4372 -1.2288
 1418TIP3   OH228448   3.158   3.183  10.319 -0.3667 -0.1397  0.2713
 1418TIP3    H128449   3.196   3.120  10.258  0.7402 -0.6650  1.4649
 1418TIP3    H228450   3.068   3.196  10.287  1.0181  2.0136 -3.3049
 1419TIP3   OH228451   3.539   1.192  10.393 -0.4378  0.7326  0.4556
 1419TIP3    H128452   3.602   1.124  10.369 -0.7463  0.4391  0.4659
 1419TIP3    H228453   3.551   1.204  10.487  1.2253  2.3461  0.0910
 1420TIP3   OH228454   4.150   2.016   9.537  0.0264 -0.2675  0.1989
 1420TIP3    H128455   4.176   2.108   9.534 -0.1651 -0.1991  0.5811
 1420TIP3    H228456   4.233   1.969   9.551 -0.0095 -0.0656  1.1745
 1421TIP3   OH228457   2.144   2.615   8.813  0.5341 -0.2495  0.0690
 1421TIP3    H128458   2.069   2.581   8.764  0.9212  0.4860 -1.0753
 1421TIP3    H228459   2.171   2.543   8.868 -1.8393 -0.1329  1.5272
 1422TIP3   OH228460   1.147   6.572   9.992 -0.2411 -0.5515 -0.2378
 1422TIP3    H128461   1.075   6.634   9.994 -0.9090 -1.2676 -1.2989
 1422TIP3    H228462   1.131   6.518   9.915  1.0723 -1.1557 -0.1181
 1423TIP3   OH228463   6.071   1.871   9.753  0.0822  0.1091 -0.1157
 1423TIP3    H128464   6.032   1.929   9.688  1.9293  0.7919 -0.6819
 1423TIP3    H228465   6.035   1.784   9.734 -1.4219  0.7585 -0.3271
 1424TIP3   OH228466   0.212   4.784  10.493 -0.1241 -0.3556 -0.0382
 1424TIP3    H128467   0.240   4.696  10.465  0.6246 -0.4869  1.0469
 1424TIP3    H228468   0.246   4.842  10.426  0.9475 -0.7338  0.1591
 1425TIP3   OH228469   5.756   2.337   9.606  0.0190  0.0698 -0.2609
 1425TIP3    H128470   5.837   2.373   9.570  1.2321 -0.8576  1.3993
 1425TIP3    H228471   5.738   2.391   9.683 -0.6561 -0.0749 -0.3103
 1426TIP3   OH228472   3.612   4.104   9.148  0.3690 -0.0044  0.2300
 1426TIP3    H128473   3.540   4.156   9.183 -0.8429 -0.6434 -1.1827
 1426TIP3    H228474   3.613   4.125   9.054  1.2115 -0.9363  0.0111
 1427TIP3   OH228475   0.832   5.990   9.389  0.2159 -0.3688  0.6193
 1427TIP3    H128476   0.901   5.973   9.452 -0.1371 -0.4065  1.0049
 1427TIP3    H228477   0.772   6.049   9.434 -1.4705 -2.5121  1.3734
 1428TIP3   OH228478   1.399   4.316  10.511  0.1910  0.1626  0.1741
 1428TIP3    H128479   1.412   4.295  10.419  0.7787  0.2362  0.2349
 1428TIP3    H228480   1.466   4.382  10.530 -1.3501  1.8387  0.0790
 1429TIP3   OH228481   1.644   0.770  11.061 -0.5016 -0.3297 -0.3079
 1429TIP3    H128482   1.702   0.697  11.078  0.0194 -0.0242 -0.7539
 1429TIP3    H228483   1.702   0.845  11.050 -0.9720 -0.0227 -0.7674
 1430TIP3   OH228484   6.224   1.522   9.668 -0.0507  0.3930  0.6320
 1430TIP3    H128485   6.244   1.460   9.738  1.0527 -0.5358 -0.4675
 1430TIP3    H228486   6.308   1.562   9.646  0.1855 -1.3369 -1.9843
 1431TIP3   OH228487   1.153   2.927  10.420  0.1530  0.3225  0.1338
 1431TIP3    H128488   1.178   3.016  10.446  1.5223 -0.6049  2.3227
 1431TIP3    H228489   1.077   2.907  10.474  0.6323 -0.2647  0.6004
 1432TIP3   OH228490   3.445   3.725   8.755  0.2529  0.1507 -0.0142
 1432TIP3    H128491   3.460   3.682   8.671  0.7960  0.4104 -0.0507
 1432TIP3    H228492   3.378   3.671   8.797 -1.6359  1.1818 -1.4821
 1433TIP3   OH228493   1.685   1.176  10.570 -0.2176 -0.2086 -0.8759
 1433TIP3    H128494   1.675   1.107  10.505 -0.5798  0.6006 -1.7205
 1433TIP3    H228495   1.776   1.205  10.561  1.1612 -3.0081  2.0776
 1434TIP3   OH228496   3.965   1.939  10.533 -0.3353  0.0276 -0.6909
 1434TIP3    H128497   4.042   1.964  10.583  0.1512  0.0538 -1.4439
 1434TIP3    H228498   3.958   1.844  10.546 -1.8428  0.3678  1.6865
 1435TIP3   OH228499   5.626   5.838   9.331 -0.0110  0.1128  0.1346
 1435TIP3    H128500   5.597   5.825   9.241  0.8680  0.3683 -0.2053
 1435TIP3    H228501   5.715   5.802   9.333  0.5884  1.5158  0.4673
 1436TIP3   OH228502   2.213   4.496   9.546 -0.3671 -0.1783 -0.7328
 1436TIP3    H128503   2.238   4.588   9.541 -1.6847  0.2619  0.1553
 1436TIP3    H228504   2.159   4.490   9.625 -1.1483 -1.4936 -1.3228
 1437TIP3   OH228505   4.797   6.193  10.604 -0.4250 -0.1148 -0.1556
 1437TIP3    H128506   4.888   6.173  10.625 -0.0028  0.7351 -1.0848
 1437TIP3    H228507   4.750   6.184  10.687  0.7968  1.0283  0.6974
 1438TIP3   OH228508   5.616   7.627   9.699  0.3316 -0.4580  0.2876
 1438TIP3    H128509   5.530   7.669   9.703  1.2193  1.4581 -0.0849
 1438TIP3    H228510   5.674   7.693   9.663  2.2628 -1.2314  1.7931
 1439TIP3   OH228511   7.314   6.457  10.014 -0.7862 -0.2075 -0.2388
 1439TIP3    H128512   7.245   6.516  10.045 -1.3993 -1.9833  2.0689
 1439TIP3    H228513   7.269   6.376   9.993  0.2589 -0.4573 -1.7141
 1440TIP3   OH228514   1.010   5.206  10.961 -0.1986 -0.0164  0.1040
 1440TIP3    H128515   1.048   5.229  11.046  0.5794  0.0508 -0.2494
 1440TIP3    H228516   1.047   5.271  10.900 -0.2051 -0.4825 -0.4067
 1441TIP3   OH228517   3.344   7.486   9.734  0.5025  0.2464 -0.1402
 1441TIP3    H128518   3.434   7.454   9.732  0.2077 -0.6057 -0.0644
 1441TIP3    H228519   3.326   7.501   9.827  0.6290  0.6032 -0.1721
 1442TIP3   OH228520   5.199   2.568   8.990 -0.8722  0.4057 -0.9824
 1442TIP3    H128521   5.209   2.529   9.078 -0.1007  0.4539 -1.0394
 1442TIP3    H228522   5.203   2.493   8.931 -0.5700  0.4499 -1.0212
 1443TIP3   OH228523   0.561   3.083   9.955 -0.1366 -1.0398 -0.0614
 1443TIP3    H128524   0.575   3.149  10.024 -4.4146 -0.4670  0.4982
 1443TIP3    H228525   0.580   3.129   9.874  0.4142 -0.2562  0.4929
 1444TIP3   OH228526   3.030   2.792   9.300  0.0516 -0.5085 -0.7630
 1444TIP3    H128527   3.118   2.822   9.277  0.3701  0.8492  1.8307
 1444TIP3    H228528   2.980   2.800   9.219  2.1871 -0.8845 -2.1896
 1445TIP3   OH228529   2.271   6.226   9.582 -0.3947 -0.3054 -0.3494
 1445TIP3    H128530   2.338   6.160   9.597  1.5699  1.8612  1.3633
 1445TIP3    H228531   2.298   6.270   9.501  0.2715  0.4597  0.2547
 1446TIP3   OH228532   6.144   5.186  10.328  0.0959  0.0612 -0.4215
 1446TIP3    H128533   6.177   5.178  10.417 -2.6224  0.1432  0.6838
 1446TIP3    H228534   6.100   5.103  10.311 -0.8175  0.6624 -1.0584
 1447TIP3   OH228535   6.914   2.367  11.048 -0.3557 -0.4557  0.5213
 1447TIP3    H128536   6.938   2.314  10.972 -3.3254 -1.3277  0.0606
 1447TIP3    H228537   6.971   2.444  11.042  1.4871 -1.8313 -0.9098
 1448TIP3   OH228538   4.407   0.781  10.303  0.3122 -0.4450  0.2425
 1448TIP3    H128539   4.315   0.794  10.284  0.6194  0.1559 -0.9178
 1448TIP3    H228540   4.438   0.867  10.332  1.2503  0.3380 -2.7320
 1449TIP3   OH228541   7.543   3.897   9.200 -0.5528 -0.4173  0.4492
 1449TIP3    H128542   7.460   3.861   9.171 -0.9931 -0.2376  1.4300
 1449TIP3    H228543   7.526   3.927   9.290  0.1761  0.9303  0.1633
 1450TIP3   OH228544   1.185   4.154  10.104 -0.0666  0.4037 -0.0685
 1450TIP3    H128545   1.251   4.202  10.055  1.7943 -0.8109  1.0733
 1450TIP3    H228546   1.168   4.076  10.051  0.0552  0.3233  0.0076
 1451TIP3   OH228547   1.908   5.464   9.891 -0.4340  0.0522  0.3316
 1451TIP3    H128548   1.967   5.538   9.877 -1.7340  1.5293  2.0685
 1451TIP3    H228549   1.867   5.482   9.976 -1.8870 -1.9317  0.1302
 1452TIP3   OH228550   1.046   6.447   9.773 -0.2332  0.1317  0.3156
 1452TIP3    H128551   0.987   6.394   9.718 -2.2955  1.5325  1.0383
 1452TIP3    H228552   1.105   6.490   9.711 -0.8651 -0.2577 -0.5806
 1453TIP3   OH228553   1.399   2.337  10.596  0.2021 -0.0935 -0.6794
 1453TIP3    H128554   1.401   2.411  10.656 -0.3386  1.2086 -2.1960
 1453TIP3    H228555   1.467   2.278  10.628 -0.4210  0.2756  1.5000
 1454TIP3   OH228556   4.703   1.050   9.691 -0.5186  0.1007 -0.0138
 1454TIP3    H128557   4.669   1.127   9.737 -1.6525  0.2787 -1.0889
 1454TIP3    H228558   4.684   0.977   9.749 -0.9338  0.4517  0.2981
 1455TIP3   OH228559   2.961   1.705  10.098 -0.2766  0.1407  0.0675
 1455TIP3    H128560   2.980   1.799  10.090 -1.1694  0.2514 -0.9750
 1455TIP3    H228561   2.866   1.701  10.108 -0.1788 -0.6265  0.6951
 1456TIP3   OH228562   4.547   1.548   9.423  0.6972 -0.5116 -0.4002
 1456TIP3    H128563   4.522   1.461   9.454  0.8132 -0.1810  0.6464
 1456TIP3    H228564   4.466   1.598   9.422  0.6970 -0.5126 -0.6341
 1457TIP3   OH228565   5.796   5.368  10.759  0.3032  0.7521 -0.3646
 1457TIP3    H128566   5.810   5.292  10.703 -1.2073  1.3036 -1.5714
 1457TIP3    H228567   5.879   5.381  10.803  0.5247 -1.7682  0.1131
 1458TIP3   OH228568   5.136   3.205   8.217 -0.0226 -0.2127 -0.5628
 1458TIP3    H128569   5.180   3.121   8.205 -1.8114 -1.3101  0.1870
 1458TIP3    H228570   5.117   3.209   8.311  1.2463  1.7124 -0.3183
 1459TIP3   OH228571   0.321   3.503  10.970  0.0773 -0.6523 -1.1927
 1459TIP3    H128572   0.370   3.426  10.999  1.8131  0.6015 -0.7098
 1459TIP3    H228573   0.364   3.530  10.889  1.4396  1.5242  0.1650
 1460TIP3   OH228574   2.768   2.163   9.164 -0.0174  0.3716  0.0814
 1460TIP3    H128575   2.751   2.121   9.079  0.6633 -0.4781  0.3466
 1460TIP3    H228576   2.837   2.226   9.147 -0.1938  0.5224 -0.0805
 1461TIP3   OH228577   4.649   6.734   9.511 -0.1971 -0.4526 -0.2522
 1461TIP3    H128578   4.684   6.812   9.556 -0.2413 -0.1602 -0.7136
 1461TIP3    H228579   4.557   6.754   9.498 -0.3307 -0.8247  0.1238
 1462TIP3   OH228580   3.094   7.618   9.457 -0.4190  0.2365  0.1265
 1462TIP3    H128581   3.049   7.607   9.541  0.0752 -3.1468  0.0559
 1462TIP3    H228582   3.030   7.589   9.392  0.5441 -0.9932 -0.2915
 1463TIP3   OH228583   0.980   0.634  10.106  0.1655  0.1142  0.2884
 1463TIP3    H128584   0.969   0.612  10.198 -1.4149  0.7462  0.2877
 1463TIP3    H228585   0.946   0.559  10.058  0.2077  0.1266  0.2388
 1464TIP3   OH228586   1.501   2.105  10.262  0.1312  0.2471  0.4309
 1464TIP3    H128587   1.556   2.031  10.240 -1.0677 -1.3080  2.3445
 1464TIP3    H228588   1.418   2.066  10.291 -0.8202  2.3598  0.7602
 1465TIP3   OH228589   2.799   3.349  11.316  0.7938 -0.0361 -0.1251
 1465TIP3    H128590   2.721   3.302  11.287 -0.2072  1.2889  0.3302
 1465TIP3    H228591   2.867   3.282  11.321 -0.3620 -1.2623 -0.3147
 1466TIP3   OH228592   3.303   7.163   9.666 -0.1252  0.3511  0.5638
 1466TIP3    H128593   3.377   7.188   9.610 -0.0889  0.0425  0.4763
 1466TIP3    H228594   3.260   7.091   9.620  0.1039 -0.1353  1.0932
 1467TIP3   OH228595   4.146   3.369  11.144  0.4332  0.1392  0.4373
 1467TIP3    H128596   4.117   3.282  11.174 -1.5447  0.2821 -0.8553
 1467TIP3    H228597   4.066   3.422  11.147  1.3764  1.6005  0.1023
 1468TIP3   OH228598   5.368   2.415  10.766  0.1534 -0.2251 -0.0126
 1468TIP3    H128599   5.286   2.422  10.716  0.6155  1.3845 -0.5832
 1468TIP3    H228600   5.339   2.391  10.854 -0.9763  0.6205 -0.1254
 1469TIP3   OH228601   2.474   7.524   8.999  0.0608 -0.7328  0.6686
 1469TIP3    H128602   2.381   7.548   9.003  0.0340 -0.6792 -0.0158
 1469TIP3    H228603   2.509   7.578   8.927 -0.1316 -3.1192 -1.3603
 1470TIP3   OH228604   5.747   1.913   8.699 -0.4114  0.3804 -0.2349
 1470TIP3    H128605   5.727   1.965   8.621 -1.1939 -0.8526 -0.8907
 1470TIP3    H228606   5.841   1.924   8.711 -0.1655  0.1400 -1.7010
 1471TIP3   OH228607   3.294   4.937  10.030  0.6604 -0.2682  0.0968
 1471TIP3    H128608   3.370   4.906  10.080  1.5572  0.5834 -0.6778
 1471TIP3    H228609   3.239   4.860  10.019  0.9260 -0.6854  1.5348
 1472TIP3   OH228610   4.380   4.809  10.310  0.1974  0.2060  0.2827
 1472TIP3    H128611   4.294   4.846  10.333  0.8337  1.9773 -0.0456
 1472TIP3    H228612   4.420   4.875  10.253  1.6039 -0.8026  0.0551
 1473TIP3   OH228613   7.110   6.974  10.479 -0.7957  0.2267 -0.5910
 1473TIP3    H128614   7.107   6.950  10.571  0.7027 -1.0801 -0.8363
 1473TIP3    H228615   7.092   7.068  10.478  0.2508  0.4856  1.1374
 1474TIP3   OH228616   7.667   5.927   8.544 -0.2082  0.2949  0.1368
 1474TIP3    H128617   7.700   5.854   8.596 -0.0119  0.0795 -0.2815
 1474TIP3    H228618   7.720   5.925   8.464 -0.7837  0.3602 -0.2520
 1475TIP3   OH228619   5.060   7.317  10.742 -0.3634  0.4067 -0.0203
 1475TIP3    H128620   4.978   7.314  10.791 -1.3872  3.1256 -1.3002
 1475TIP3    H228621   5.054   7.245  10.679 -1.5097  0.2048  0.3051
 1476TIP3   OH228622   2.451   4.273   9.988  0.0312  0.4813 -0.9500
 1476TIP3    H128623   2.542   4.287  10.013  0.7423 -1.8447 -1.9876
 1476TIP3    H228624   2.410   4.238  10.068  0.3674  0.3386 -0.8370
 1477TIP3   OH228625   1.911   0.912  10.256  0.0865  0.1185 -0.2529
 1477TIP3    H128626   1.955   0.964  10.324 -0.7913  0.5325  0.0104
 1477TIP3    H228627   1.823   0.948  10.252  0.4393  0.8873 -2.4502
 1478TIP3   OH228628   3.182   2.589  10.017 -0.4562  0.1321  0.1034
 1478TIP3    H128629   3.134   2.518   9.975  0.8156 -0.2355 -0.8064
 1478TIP3    H228630   3.273   2.576   9.989  0.5459 -0.2710  3.1556
 1479TIP3   OH228631   7.168   1.313  10.138  0.0377  0.2626 -0.0126
 1479TIP3    H128632   7.228   1.247  10.171  1.8601  1.6723 -0.3138
 1479TIP3    H228633   7.182   1.389  10.195 -1.5092  0.6364 -0.0735
 1480TIP3   OH228634   3.046   1.887   9.344 -0.1033  0.0236  0.0496
 1480TIP3    H128635   3.137   1.916   9.339  0.0701 -0.4296  0.4947
 1480TIP3    H228636   3.051   1.795   9.368 -0.6953  0.3615  1.6052
 1481TIP3   OH228637   4.014   6.498   8.960  0.0956 -0.1559 -0.3492
 1481TIP3    H128638   3.935   6.473   9.008 -0.6263  2.2069 -0.1911
 1481TIP3    H228639   3.983   6.521   8.872  0.5724  0.9554 -0.2361
 1482TIP3   OH228640   1.001   7.452   9.921  0.0550  0.3314  0.3817
 1482TIP3    H128641   1.059   7.380   9.898  0.1146 -0.2737  2.2485
 1482TIP3    H228642   1.040   7.529   9.880  0.8060 -0.4523 -0.4143
 1483TIP3   OH228643   1.220   1.731  10.227 -0.3689 -0.6992 -0.3091
 1483TIP3    H128644   1.308   1.750  10.195 -0.9835 -0.2511 -1.8396
 1483TIP3    H228645   1.192   1.655  10.176 -1.4212  0.0891 -0.9517
 1484TIP3   OH228646   6.767   2.636  11.000 -0.1309 -0.6653  0.4469
 1484TIP3    H128647   6.830   2.663  10.934  0.9173 -0.3339  1.5556
 1484TIP3    H228648   6.789   2.687  11.078 -0.6660 -1.7938  1.3760
 1485TIP3   OH228649   4.636   4.736  11.085 -0.2746 -0.0821  0.0617
 1485TIP3    H128650   4.596   4.700  11.164  1.2618 -0.6977  0.5895
 1485TIP3    H228651   4.730   4.734  11.102  0.0976 -0.3079 -1.8146
 1486TIP3   OH228652   0.278   2.797  10.459  0.0952 -0.0718 -0.0226
 1486TIP3    H128653   0.218   2.728  10.489 -0.5164  0.5030  0.1031
 1486TIP3    H228654   0.295   2.776  10.367 -0.3020 -0.2469 -0.0586
 1487TIP3   OH228655   3.046   6.163  10.613  0.3405 -0.9203  0.0802
 1487TIP3    H128656   3.129   6.120  10.631  0.2888 -1.2116 -0.3639
 1487TIP3    H228657   3.052   6.248  10.658  1.5355 -0.2544 -1.2777
 1488TIP3   OH228658   6.227   1.042  10.268  0.5767  0.3936  0.0786
 1488TIP3    H128659   6.189   1.129  10.266 -0.4076 -0.0255 -1.2351
 1488TIP3    H228660   6.246   1.026  10.360 -2.3917  0.6900  0.8477
 1489TIP3   OH228661   2.832   4.533  10.257 -0.3355  0.2715 -0.2496
 1489TIP3    H128662   2.838   4.495  10.344  1.4847 -0.3192 -0.5870
 1489TIP3    H228663   2.778   4.611  10.268  0.3992  0.5752  1.5475
 1490TIP3   OH228664   2.235   6.169  10.926 -0.6904 -0.0318 -0.0698
 1490TIP3    H128665   2.298   6.218  10.978  2.5744 -2.5348 -1.3648
 1490TIP3    H228666   2.276   6.084  10.911 -2.6093 -0.4687 -4.3785
 1491TIP3   OH228667   0.665   4.130  10.017  0.0081 -0.7698  0.7609
 1491TIP3    H128668   0.745   4.167  10.055 -0.5616 -0.0612  1.3049
 1491TIP3    H228669   0.608   4.114  10.092 -0.5315 -0.8505  0.3401
 1492TIP3   OH228670   1.735   4.993   9.371  0.4211 -0.2294  0.8785
 1492TIP3    H128671   1.764   4.967   9.284 -0.4129 -0.3025  0.6136
 1492TIP3    H228672   1.654   5.041   9.356  0.9117  0.8443  1.5187
 1493TIP3   OH228673   3.747   3.679   9.768 -0.0142 -0.6405 -0.6131
 1493TIP3    H128674   3.720   3.719   9.851  0.3170 -0.0184 -0.7909
 1493TIP3    H228675   3.679   3.615   9.748 -0.6990  0.0176 -0.4372
 1494TIP3   OH228676   2.754   2.215  10.923  0.4604 -0.2778  0.0321
 1494TIP3    H128677   2.846   2.223  10.948  0.4792 -0.0768 -0.0949
 1494TIP3    H228678   2.755   2.160  10.845  0.5950  0.7337 -0.6960
 1495TIP3   OH228679   4.047   5.149  10.245  0.4273  0.1710 -0.4462
 1495TIP3    H128680   4.040   5.111  10.158 -1.5385 -0.5927 -0.0158
 1495TIP3    H228681   4.034   5.243  10.232  2.5560  0.4122 -1.2020
 1496TIP3   OH228682   2.318   3.409  10.146 -0.3599 -0.4105 -0.1805
 1496TIP3    H128683   2.248   3.345  10.158 -0.8245  0.0968 -0.1421
 1496TIP3    H228684   2.318   3.462  10.226 -0.0173 -0.3256 -0.2318
 1497TIP3   OH228685   4.179   4.847   9.630 -0.0838  0.6623 -0.1770
 1497TIP3    H128686   4.272   4.839   9.647 -0.2754 -0.5804  0.4239
 1497TIP3    H228687   4.165   4.800   9.548 -0.2821  0.2170  0.1079
 1498TIP3   OH228688   0.092   2.931   9.423 -0.3919  0.6192 -0.2916
 1498TIP3    H128689   0.124   2.873   9.492 -1.3062  0.6542  0.1773
 1498TIP3    H228690   0.124   3.017   9.448  0.3143  0.4417 -0.5728
 1499TIP3   OH228691   1.930   1.313  10.580 -0.5237  0.4334 -0.1078
 1499TIP3    H128692   1.985   1.370  10.527 -1.9745  1.6978 -0.3597
 1499TIP3    H228693   1.919   1.361  10.663  0.7566 -0.9685  0.9353
 1500TIP3   OH228694   5.043   0.059  10.393 -0.0885 -0.4592 -0.2885
 1500TIP3    H128695   5.130   0.077  10.357  0.0307 -1.1346 -0.3616
 1500TIP3    H228696   5.048  -0.032  10.424 -0.6838 -0.4158 -0.0406
 1501TIP3   OH228697   7.612   7.020   9.210 -0.5872 -0.2929 -0.1392
 1501TIP3    H128698   7.592   7.113   9.200 -0.3489 -0.0812  1.1023
 1501TIP3    H228699   7.603   6.983   9.123  1.0010  1.2243 -1.0046
 1502TIP3   OH228700   6.185   0.869  10.775  0.3566 -0.4003  0.2318
 1502TIP3    H128701   6.205   0.945  10.830 -0.5617 -1.5797  2.2728
 1502TIP3    H228702   6.231   0.796  10.816 -1.0886 -1.4878  0.0113
 1503TIP3   OH228703   5.280   0.060   9.210  0.2644  0.0169 -0.3579
 1503TIP3    H128704   5.283  -0.004   9.281  1.0693  1.3019  0.8088
 1503TIP3    H228705   5.221   0.021   9.145  0.7861 -1.9111  0.2805
 1504TIP3   OH228706   7.058   0.535   8.683 -0.7124 -0.3045  0.8954
 1504TIP3    H128707   7.006   0.563   8.758  0.0278 -0.3006  1.4165
 1504TIP3    H228708   7.059   0.439   8.689 -1.6038 -0.3586  0.2357
 1505TIP3   OH228709   3.217   1.281  10.145  0.3530 -0.1441 -0.3420
 1505TIP3    H128710   3.311   1.286  10.160  0.5688 -0.1740 -1.5896
 1505TIP3    H228711   3.202   1.336  10.069 -0.8843  1.1317  0.7610
 1506TIP3   OH228712   4.413   2.808   9.743  0.4930 -0.2604  0.0831
 1506TIP3    H128713   4.448   2.849   9.822  1.3084  0.4310 -0.6180
 1506TIP3    H228714   4.322   2.839   9.738  0.5760  0.0624  0.4972
 1507TIP3   OH228715   4.613   5.768   9.015  0.1089  0.1735  0.3386
 1507TIP3    H128716   4.610   5.724   8.930  0.5758  0.3593  0.2239
 1507TIP3    H228717   4.547   5.837   9.008  0.9307  0.9251 -0.2918
 1508TIP3   OH228718   1.537   3.652  10.942 -0.1496 -0.1857 -0.3490
 1508TIP3    H128719   1.531   3.747  10.949 -0.0559 -0.0577 -1.7179
 1508TIP3    H228720   1.602   3.627  11.007 -1.5862  0.4516  1.3847
 1509TIP3   OH228721   7.257   0.455   9.326  0.3059  0.4019 -0.4058
 1509TIP3    H128722   7.268   0.363   9.303  1.3749 -0.2123  2.2023
 1509TIP3    H228723   7.259   0.501   9.242  2.6386 -1.7088 -1.6470
 1510TIP3   OH228724   7.559   6.787   9.332 -0.0123  0.0231 -0.7982
 1510TIP3    H128725   7.553   6.777   9.427 -1.4235 -0.4187 -0.9199
 1510TIP3    H228726   7.579   6.880   9.319 -2.9384  0.8505 -0.1231
 1511TIP3   OH228727   3.338   2.172   9.130 -0.1589 -0.0509 -0.7864
 1511TIP3    H128728   3.420   2.207   9.165 -0.0749 -0.6991 -0.3200
 1511TIP3    H228729   3.315   2.232   9.059 -0.1528  1.0879  0.1466
 1512TIP3   OH228730   7.654   3.174  10.591  0.0713  0.1278  0.3422
 1512TIP3    H128731   7.616   3.253  10.628 -1.3860  0.0812 -0.9432
 1512TIP3    H228732   7.579   3.121  10.565  1.0234 -0.9910 -0.2246
 1513TIP3   OH228733   1.850   7.477   8.858  0.3201  1.0009  0.4363
 1513TIP3    H128734   1.814   7.430   8.933 -0.1848  2.5179  1.1821
 1513TIP3    H228735   1.789   7.549   8.843 -0.4221 -0.0998 -2.4173
 1514TIP3   OH228736   0.195   0.666  10.620 -0.0446 -0.0331  0.0365
 1514TIP3    H128737   0.163   0.591  10.670 -0.2318 -0.9262 -1.3714
 1514TIP3    H228738   0.128   0.734  10.632 -0.1753 -0.3018  0.8254
 1515TIP3   OH228739   1.187   4.554   8.673 -0.4503  0.1654  0.2093
 1515TIP3    H128740   1.204   4.485   8.737 -0.6643  0.8366  1.0075
 1515TIP3    H228741   1.134   4.618   8.720 -0.9001  0.5110 -0.7507
 1516TIP3   OH228742   2.085   0.417  10.766  0.5959  0.2601 -0.6485
 1516TIP3    H128743   2.123   0.333  10.793  1.6026  0.5019 -1.2752
 1516TIP3    H228744   2.024   0.394  10.696 -0.1048 -0.0732  0.0420
 1517TIP3   OH228745   6.961   1.049  10.299 -0.0908 -0.8624 -0.2594
 1517TIP3    H128746   6.983   1.122  10.357 -0.2194 -0.8738 -0.1959
 1517TIP3    H228747   6.870   1.065  10.274  0.7261  0.6988 -2.6788
 1518TIP3   OH228748   6.834   1.698   9.416 -0.5982  0.7521 -0.1776
 1518TIP3    H128749   6.824   1.645   9.495 -1.2697  0.3648 -0.5085
 1518TIP3    H228750   6.877   1.778   9.445  0.3281  0.0705  0.3551
 1519TIP3   OH228751   3.715   2.906   8.451 -0.4390 -0.3390  0.0076
 1519TIP3    H128752   3.625   2.875   8.443 -0.6885  0.4333 -0.2603
 1519TIP3    H228753   3.718   2.987   8.400  0.5583 -0.6469 -0.4508
 1520TIP3   OH228754   2.959   4.655   9.589  0.1290  0.3227 -0.4926
 1520TIP3    H128755   3.051   4.682   9.591 -0.2361  1.6674  1.0873
 1520TIP3    H228756   2.950   4.597   9.664 -0.2350 -0.1266 -0.8823
 1521TIP3   OH228757   3.924   7.070   8.597 -0.0106  0.3594  0.3699
 1521TIP3    H128758   3.843   7.044   8.640  0.5217  0.8356  1.7078
 1521TIP3    H228759   3.994   7.043   8.657  0.8236  0.1675 -0.6437
 1522TIP3   OH228760   2.967   4.659  10.767  0.3805 -0.2287  0.2561
 1522TIP3    H128761   2.970   4.643  10.861 -1.6988  2.1875  0.8416
 1522TIP3    H228762   2.881   4.627  10.740  1.1593 -1.3791 -0.9831
 1523TIP3   OH228763   0.623   7.508   9.682 -0.6257 -0.3189 -0.1822
 1523TIP3    H128764   0.610   7.458   9.601  0.3151 -0.8178 -0.0454
 1523TIP3    H228765   0.676   7.450   9.737 -2.6639 -0.7360  1.5045
 1524TIP3   OH228766   3.894   2.731   9.985  0.9839  0.2432 -0.7181
 1524TIP3    H128767   3.977   2.719  10.030  0.5744  0.5970  0.1622
 1524TIP3    H228768   3.899   2.820   9.949  0.3358  0.9256  0.7986
 1525TIP3   OH228769   1.450   2.582  10.814 -0.0061  0.3327 -0.3641
 1525TIP3    H128770   1.439   2.665  10.767 -1.5618  1.1056  1.2306
 1525TIP3    H228771   1.367   2.569  10.860  1.0699 -0.8279  1.4016
 1526TIP3   OH228772   6.299   2.043  10.281  0.2595  0.1496 -0.5028
 1526TIP3    H128773   6.316   1.975  10.216  0.0294 -2.5110  2.0224
 1526TIP3    H228774   6.204   2.054  10.281  0.3449  1.1650 -1.4568
 1527TIP3   OH228775   1.408   1.863  10.075 -0.3084 -0.0145  0.1228
 1527TIP3    H128776   1.319   1.891  10.057 -0.6232 -1.2633 -0.3161
 1527TIP3    H228777   1.463   1.919  10.019 -0.9677 -0.7393 -1.2904
 1528TIP3   OH228778   7.009   0.778   9.340 -0.1580 -0.1346 -0.4591
 1528TIP3    H128779   7.055   0.803   9.420 -1.7183  0.1867  0.3778
 1528TIP3    H228780   7.017   0.854   9.282 -0.6230  0.3726  0.1354
 1529TIP3   OH228781   7.677   3.596   9.195  0.1710 -0.1873 -0.1921
 1529TIP3    H128782   7.686   3.669   9.134  1.9450  0.0384  0.2849
 1529TIP3    H228783   7.607   3.623   9.254  0.8774  1.2079  0.0491
 1530TIP3   OH228784   7.197   2.743   9.047  0.1909 -0.3435 -0.6087
 1530TIP3    H128785   7.166   2.805   8.982  2.1203  0.8380 -0.4869
 1530TIP3    H228786   7.193   2.791   9.130  0.5531 -0.7981 -0.3188
 1531TIP3   OH228787   1.195   6.070  10.039  0.4084  0.2874 -0.2774
 1531TIP3    H128788   1.228   5.980  10.032 -0.4504  0.0324 -1.3241
 1531TIP3    H228789   1.270   6.125  10.016  2.2599  0.1439  4.3251
 1532TIP3   OH228790   0.300   0.441  11.179 -0.2224  0.1848  0.4338
 1532TIP3    H128791   0.251   0.443  11.262 -0.8158 -1.0419  0.1448
 1532TIP3    H228792   0.260   0.369  11.130  0.5781  0.4528 -0.6412
 1533TIP3   OH228793   4.145   2.548   9.279 -0.6629  0.5280  0.0039
 1533TIP3    H128794   4.112   2.472   9.232  2.0579 -0.2989 -0.7675
 1533TIP3    H228795   4.122   2.531   9.371 -0.3006 -1.1520 -0.1741
 1534TIP3   OH228796   1.199   1.786   8.877  0.0370 -0.1474 -0.2600
 1534TIP3    H128797   1.259   1.856   8.901 -1.0040  0.8775 -0.5423
 1534TIP3    H228798   1.156   1.762   8.960  3.4191 -3.5770  0.7845
 1535TIP3   OH228799   4.604   2.852  10.261  0.1120 -0.1790  0.1146
 1535TIP3    H128800   4.658   2.806  10.198 -0.2028 -2.5933  1.4769
 1535TIP3    H228801   4.519   2.808  10.258 -0.9587  1.7574 -0.0272
 1536TIP3   OH228802   3.849   4.234   9.733  0.2978 -0.3929  0.2494
 1536TIP3    H128803   3.924   4.228   9.674 -0.4851  0.6870 -0.9232
 1536TIP3    H228804   3.800   4.153   9.718  0.5521 -0.5094  0.0346
 1537TIP3   OH228805   6.337   0.240   8.388 -0.3174 -0.0441 -0.3285
 1537TIP3    H128806   6.265   0.192   8.349 -1.7497 -0.4564  2.5387
 1537TIP3    H228807   6.404   0.174   8.406 -0.5784 -0.2448 -0.0957
 1538TIP3   OH228808   4.727   1.718   8.869 -0.3956  0.2288 -0.4055
 1538TIP3    H128809   4.642   1.756   8.891  0.0256  0.1507  1.4793
 1538TIP3    H228810   4.710   1.669   8.788 -2.4693 -0.8622  0.6085
 1539TIP3   OH228811   2.919   0.550  10.510 -0.6908 -0.1728 -0.3865
 1539TIP3    H128812   2.882   0.613  10.448 -1.4754  1.4901  1.6803
 1539TIP3    H228813   2.960   0.603  10.578  1.8962 -1.9592 -0.4124
 1540TIP3   OH228814   2.645   0.564   8.850  0.0428  0.0710 -0.5586
 1540TIP3    H128815   2.584   0.511   8.901 -0.2313  1.4126  0.5769
 1540TIP3    H228816   2.712   0.503   8.820  0.0393 -0.8282  1.1589
 1541TIP3   OH228817   4.426   5.801   9.570  0.0770 -0.6412 -0.0290
 1541TIP3    H128818   4.331   5.813   9.582  0.0021 -0.5343 -0.7107
 1541TIP3    H228819   4.434   5.759   9.485  0.7151  0.5629 -0.5832
 1542TIP3   OH228820   2.343   1.021  11.147 -0.1865 -0.0882  0.0527
 1542TIP3    H128821   2.387   0.937  11.134 -0.2033 -0.3504  1.5119
 1542TIP3    H228822   2.262   1.013  11.097 -0.3537 -1.1023  0.4474
 1543TIP3   OH228823   4.358   5.472  10.034 -0.2629  0.4501 -0.5548
 1543TIP3    H128824   4.387   5.390  10.074 -0.0099  0.5382 -0.5538
 1543TIP3    H228825   4.262   5.466  10.034 -0.2778  0.6044  0.4035
 1544TIP3   OH228826   0.036   6.155   9.778 -0.1430  0.2266 -0.8379
 1544TIP3    H128827   0.050   6.096   9.704 -1.6153 -0.3025 -0.7305
 1544TIP3    H228828   0.083   6.235   9.754  1.3485 -0.7400 -1.2690
 1545TIP3   OH228829   7.484   4.887   8.678 -0.6230  0.1656  0.0247
 1545TIP3    H128830   7.537   4.884   8.757 -1.3523 -0.3570  0.5107
 1545TIP3    H228831   7.437   4.804   8.677 -0.9441  0.3418 -0.7364
 1546TIP3   OH228832   5.454   7.382   9.301 -0.7650 -0.1674 -0.8474
 1546TIP3    H128833   5.393   7.438   9.349 -0.1005  1.1699 -1.5166
 1546TIP3    H228834   5.442   7.406   9.209  0.6055 -0.0494 -1.0065
 1547TIP3   OH228835   1.094   0.441   8.744  0.2991  0.4657  0.0637
 1547TIP3    H128836   1.025   0.432   8.810  1.0529 -1.1404  0.6851
 1547TIP3    H228837   1.158   0.500   8.784  0.4682 -0.0245  0.5194
 1548TIP3   OH228838   1.383   7.043   9.562  0.1826 -0.0721 -0.2124
 1548TIP3    H128839   1.454   7.034   9.626 -1.2706 -0.6146  1.4061
 1548TIP3    H228840   1.409   7.117   9.507  1.6313  0.2171  0.8118
 1549TIP3   OH228841   3.221   1.539  10.976  0.0081  0.0151  0.3659
 1549TIP3    H128842   3.282   1.504  10.911 -0.0389  0.7439 -0.0934
 1549TIP3    H228843   3.238   1.633  10.976 -1.8121  0.3902 -0.5331
 1550TIP3   OH228844   1.840   2.833   9.018 -0.1715  0.0434  0.5273
 1550TIP3    H128845   1.747   2.827   9.039  0.2190 -0.3475  2.3275
 1550TIP3    H228846   1.843   2.849   8.924 -2.1006  2.1728  0.7617
 1551TIP3   OH228847   6.520   7.030  10.015  0.3515 -0.3664 -0.1822
 1551TIP3    H128848   6.438   7.030   9.965 -0.0015 -1.4722  0.3416
 1551TIP3    H228849   6.589   7.034   9.949 -0.1215  0.0958 -0.6546
 1552TIP3   OH228850   4.643   4.453   9.082  0.0924  0.2803 -0.1830
 1552TIP3    H128851   4.723   4.417   9.119 -0.7338 -1.0722  0.3603
 1552TIP3    H228852   4.657   4.451   8.987 -0.2055 -2.2996 -0.2327
 1553TIP3   OH228853   5.860   2.803  10.943  0.2007 -0.1936  0.0018
 1553TIP3    H128854   5.847   2.757  10.860 -1.0992 -1.2811  0.7820
 1553TIP3    H228855   5.955   2.800  10.957  0.4593  0.0899 -1.4701
 1554TIP3   OH228856   1.951   1.286   9.395  0.0439 -0.1733 -0.7262
 1554TIP3    H128857   2.002   1.346   9.449 -0.8123  0.1969 -0.3264
 1554TIP3    H228858   1.899   1.342   9.337 -0.4717 -0.5328 -0.6172
 1555TIP3   OH228859   2.827   7.268  11.407 -0.1673 -0.3412 -0.5654
 1555TIP3    H128860   2.825   7.191  11.350 -0.3629 -1.6839  1.1681
 1555TIP3    H228861   2.913   7.266  11.449 -0.8549 -0.7129  0.8873
 1556TIP3   OH228862   6.754   0.004  11.002  0.2251 -0.3102 -0.1122
 1556TIP3    H128863   6.843   0.020  10.972  0.0868 -1.5181 -1.2625
 1556TIP3    H228864   6.733  -0.084  10.971 -1.3249 -0.1098  0.2530
 1557TIP3   OH228865   5.025   0.332   8.985  0.2685  0.5578 -0.4895
 1557TIP3    H128866   5.063   0.366   9.066  1.1493  0.2851 -0.7771
 1557TIP3    H228867   4.985   0.249   9.010  2.3404 -0.5869 -0.6709
 1558TIP3   OH228868   2.516   0.439   9.055 -0.2364 -0.0480 -0.7585
 1558TIP3    H128869   2.433   0.398   9.029  0.2467 -1.2501 -0.4909
 1558TIP3    H228870   2.544   0.390   9.132  0.7147  0.3524 -0.8325
 1559TIP3   OH228871   5.430   1.559  10.933  0.2391 -0.3252  0.5387
 1559TIP3    H128872   5.479   1.598  10.861  2.0510  1.3396  2.5068
 1559TIP3    H228873   5.376   1.631  10.966 -0.8107 -1.1494  0.6663
 1560TIP3   OH228874   4.693   5.443   9.410  0.1871 -0.2821  0.2336
 1560TIP3    H128875   4.702   5.467   9.318 -0.8860  0.2889  0.2563
 1560TIP3    H228876   4.762   5.491   9.455  1.6972 -1.7326 -0.4352
 1561TIP3   OH228877   2.481   4.113  11.030  0.0984 -0.2280  0.0338
 1561TIP3    H128878   2.414   4.119  11.098  1.0565  0.6465  0.9422
 1561TIP3    H228879   2.461   4.032  10.984 -1.6154  0.0349  0.2225
 1562TIP3   OH228880   3.878   3.660  10.682 -0.1227  0.1353 -0.2226
 1562TIP3    H128881   3.904   3.731  10.740 -0.6829  0.5169 -0.4241
 1562TIP3    H228882   3.922   3.582  10.717  3.2565  1.1154 -1.9670
 1563TIP3   OH228883   4.394   4.558  10.952 -0.2638 -0.2028  0.4038
 1563TIP3    H128884   4.306   4.591  10.933  0.1005 -0.1785 -1.4167
 1563TIP3    H228885   4.404   4.570  11.046 -1.2706  2.0986  0.2845
 1564TIP3   OH228886   0.056   1.384   9.056 -0.0283 -0.2206  0.3872
 1564TIP3    H128887  -0.024   1.378   9.109 -0.4161 -2.7567 -0.3753
 1564TIP3    H228888   0.098   1.299   9.065  2.3747  0.8779  0.3422
 1565TIP3   OH228889   2.245   5.777   9.582 -0.3126  0.7140  0.3045
 1565TIP3    H128890   2.298   5.845   9.541  1.1462  0.7817  2.1696
 1565TIP3    H228891   2.234   5.806   9.672 -0.6141 -0.9864  0.8537
 1566TIP3   OH228892   5.017   5.552   9.767  0.2995 -0.3059 -0.0876
 1566TIP3    H128893   5.011   5.468   9.814  0.3082 -0.6826 -0.7393
 1566TIP3    H228894   5.072   5.607   9.823 -0.2853 -0.4991  0.6854
 1567TIP3   OH228895   3.900   0.295  10.316  0.0481  0.0699  0.8443
 1567TIP3    H128896   3.903   0.201  10.296 -0.7767  0.4254 -1.3262
 1567TIP3    H228897   3.983   0.313  10.360  2.6979 -0.8152 -3.2309
 1568TIP3   OH228898   4.694   4.437  10.027  0.2973 -0.0259  0.3307
 1568TIP3    H128899   4.660   4.526  10.015  0.9075  0.4248  1.7108
 1568TIP3    H228900   4.686   4.421  10.121 -0.8257 -1.8812 -0.0295
 1569TIP3   OH228901   5.058   7.074   8.662  0.4233  0.4739 -0.0133
 1569TIP3    H128902   5.149   7.102   8.663  1.0738 -1.3982  1.4630
 1569TIP3    H228903   5.015   7.129   8.728  0.3500  1.6435 -1.0063
 1570TIP3   OH228904   4.112   3.837   8.673 -0.7116  0.4406 -0.3131
 1570TIP3    H128905   4.045   3.775   8.702 -0.5007  0.0990 -0.5465
 1570TIP3    H228906   4.116   3.902   8.743 -2.4271  1.3843 -1.0293
 1571TIP3   OH228907   7.116   3.185   8.505  0.6677 -0.3131 -0.1051
 1571TIP3    H128908   7.209   3.181   8.526  1.2873  0.1884 -2.4823
 1571TIP3    H228909   7.091   3.094   8.490  1.1857 -0.3296 -0.9471
 1572TIP3   OH228910   2.375   3.640   9.354  0.2631 -0.0238 -0.9549
 1572TIP3    H128911   2.450   3.689   9.321  0.0680  1.9579  1.2203
 1572TIP3    H228912   2.299   3.680   9.311  0.2331  0.3829 -0.5341
 1573TIP3   OH228913   6.031   5.958   9.473  0.0201 -0.8225  0.2524
 1573TIP3    H128914   6.064   5.975   9.385 -0.4257  0.1857  0.2590
 1573TIP3    H228915   6.010   5.865   9.474  0.2608 -0.8917 -0.6300
 1574TIP3   OH228916   4.489   5.563   8.421  0.1162 -0.1861  0.7668
 1574TIP3    H128917   4.552   5.491   8.421  1.2767  0.7970  1.1437
 1574TIP3    H228918   4.519   5.622   8.352 -0.9930 -0.1851  0.2585
 1575TIP3   OH228919   6.420   1.934  10.501  0.1432  0.2413  0.1349
 1575TIP3    H128920   6.337   1.923  10.548 -0.6178 -1.4753 -1.4597
 1575TIP3    H228921   6.394   1.967  10.415  1.1206 -0.2894 -0.3760
 1576TIP3   OH228922   5.496   5.023  10.701  0.5498  0.7635  0.1897
 1576TIP3    H128923   5.454   5.040  10.617  3.7994  0.2214 -1.7373
 1576TIP3    H228924   5.515   5.110  10.736  0.0738  1.0059 -0.1405
 1577TIP3   OH228925   3.368   1.058   8.730  0.3998  0.1951 -0.3004
 1577TIP3    H128926   3.350   0.973   8.689 -0.3849 -0.0034  0.4356
 1577TIP3    H228927   3.450   1.045   8.778 -0.7890 -0.8123  1.5755
 1578TIP3   OH228928   5.271   7.590   9.439 -0.1176  0.3319  0.7052
 1578TIP3    H128929   5.248   7.497   9.450  1.6075 -0.0987  0.9489
 1578TIP3    H228930   5.189   7.637   9.456 -0.9791 -1.1273  0.7844
 1579TIP3   OH228931   7.082   1.020  11.124  0.4207 -0.3500 -0.0860
 1579TIP3    H128932   7.158   1.008  11.067 -0.5113  0.5942 -1.5729
 1579TIP3    H228933   7.089   1.110  11.156  0.0702 -0.3529  0.0067
 1580TIP3   OH228934   5.866   3.958  10.613 -0.4471 -0.4633 -0.0972
 1580TIP3    H128935   5.866   3.986  10.522  1.1180 -0.6651 -0.1760
 1580TIP3    H228936   5.944   3.997  10.651 -0.3311 -1.5064  0.8006
 1581TIP3   OH228937   0.490   4.020  11.037  0.0657 -0.3702  0.0138
 1581TIP3    H128938   0.414   3.974  11.071 -0.7037  0.7868 -0.0672
 1581TIP3    H228939   0.516   4.079  11.108  0.0711  0.1706 -0.4309
 1582TIP3   OH228940   7.610   2.251   8.631 -0.0289 -0.1311 -0.5173
 1582TIP3    H128941   7.662   2.200   8.694  0.7325  0.7784 -0.3843
 1582TIP3    H228942   7.544   2.189   8.600 -0.0569 -0.7744  0.7332
 1583TIP3   OH228943   5.745   2.837   9.537 -0.4035 -0.1071  0.1031
 1583TIP3    H128944   5.654   2.842   9.567 -0.7887 -1.6729 -0.6652
 1583TIP3    H228945   5.738   2.832   9.442  0.6526  2.1455 -0.1531
 1584TIP3   OH228946   0.609   7.425  10.978 -0.6834 -0.0132 -0.6634
 1584TIP3    H128947   0.691   7.423  11.027 -0.3715  0.7861 -1.1523
 1584TIP3    H228948   0.569   7.509  11.001 -1.9055 -0.8369  0.4249
 1585TIP3   OH228949   6.042   6.506   9.135  0.2777 -0.2825 -0.1954
 1585TIP3    H128950   6.096   6.545   9.204  1.5408 -1.7168 -0.3231
 1585TIP3    H228951   6.100   6.502   9.058 -0.8048  0.4070 -1.0846
 1586TIP3   OH228952   7.383   5.854   9.744  0.2289 -0.6799  0.0287
 1586TIP3    H128953   7.329   5.799   9.688  0.8808 -0.7476 -0.5334
 1586TIP3    H228954   7.473   5.838   9.716  0.4575  0.4221  0.0658
 1587TIP3   OH228955   4.294   5.726   9.829  0.4237  0.2678 -0.2221
 1587TIP3    H128956   4.312   5.763   9.743 -0.0280  1.4384  0.1729
 1587TIP3    H228957   4.226   5.660   9.812  1.2705 -0.4626 -0.9296
 1588TIP3   OH228958   4.717   5.959  10.009 -0.6519 -0.1164  0.2385
 1588TIP3    H128959   4.703   5.915  10.093 -0.6958 -0.7530 -0.0919
 1588TIP3    H228960   4.658   5.914   9.949 -0.0178 -0.2278 -0.3130
 1589TIP3   OH228961   3.784   3.458  10.425  0.2282 -1.2498 -0.0048
 1589TIP3    H128962   3.690   3.454  10.444 -0.2829  1.6361 -1.4416
 1589TIP3    H228963   3.823   3.495  10.504 -0.2766  0.1445 -0.3870
 1590TIP3   OH228964   4.930   7.277   8.816  0.2563  0.3106  0.1006
 1590TIP3    H128965   4.961   7.359   8.852 -1.0748  0.7610  0.2593
 1590TIP3    H228966   4.838   7.271   8.843 -0.0677 -0.5420 -1.0910
 1591TIP3   OH228967   1.162   2.255  10.466 -0.5044  0.7743  0.4998
 1591TIP3    H128968   1.158   2.295  10.379 -0.8496 -1.7700 -0.7532
 1591TIP3    H228969   1.248   2.281  10.500  1.2255 -0.9360 -2.1489
 1592TIP3   OH228970   0.398   2.290   9.488  0.0713 -0.9952  0.4803
 1592TIP3    H128971   0.329   2.244   9.439  0.5536 -1.4592  0.2230
 1592TIP3    H228972   0.471   2.296   9.427  0.7985 -1.8632  1.2216
 1593TIP3   OH228973   6.483   0.860  10.273  0.2464  0.5052 -0.0067
 1593TIP3    H128974   6.397   0.883  10.239 -0.1234  0.9320  1.1696
 1593TIP3    H228975   6.510   0.784  10.220 -1.6529 -0.7894  0.7647
 1594TIP3   OH228976   5.338   1.923   9.629  0.0921  0.0810 -0.6743
 1594TIP3    H128977   5.400   1.985   9.669  0.8230 -0.8546 -0.3114
 1594TIP3    H228978   5.263   1.977   9.605  0.2514  0.9298  0.6091
 1595TIP3   OH228979   3.174   2.257   9.711  0.6918 -0.7457  0.4417
 1595TIP3    H128980   3.255   2.292   9.673  1.2263 -0.5338  1.7007
 1595TIP3    H228981   3.179   2.163   9.697  0.3912 -0.5792 -0.8755
 1596TIP3   OH228982   1.483   4.680   9.605  0.0599 -0.0841 -0.0923
 1596TIP3    H128983   1.499   4.606   9.664  1.1412 -0.0278 -0.2964
 1596TIP3    H228984   1.547   4.669   9.535 -0.3453  0.5737 -0.5691
 1597TIP3   OH228985   4.639   2.339  11.065 -0.3056 -0.1267  0.3629
 1597TIP3    H128986   4.571   2.402  11.088 -0.2173  0.0825  0.0535
 1597TIP3    H228987   4.722   2.386  11.078 -0.2454 -0.1069 -0.0746
 1598TIP3   OH228988   1.253   5.794  10.859  0.1154  0.1681 -0.0028
 1598TIP3    H128989   1.315   5.738  10.906  1.3913  2.9465  1.9088
 1598TIP3    H228990   1.190   5.822  10.926  0.1044  1.7622 -0.6377
 1599TIP3   OH228991   5.082   6.994  11.012 -0.6639  0.4465 -0.2354
 1599TIP3    H128992   5.107   7.020  10.923  1.9804 -2.8905 -0.6356
 1599TIP3    H228993   5.137   7.048  11.069  1.0071 -0.5090 -0.8652
 1600TIP3   OH228994   5.885   6.643   9.780  0.7811  0.5728 -0.5448
 1600TIP3    H128995   5.899   6.664   9.872 -2.7117  3.5623 -0.4419
 1600TIP3    H228996   5.944   6.570   9.762  1.3359 -0.4277  4.1295
 1601TIP3   OH228997   4.678   1.814   9.475  0.3518  0.0983 -0.0053
 1601TIP3    H128998   4.729   1.894   9.461  0.6573 -0.1171 -0.1323
 1601TIP3    H228999   4.630   1.801   9.393  1.1773 -0.4710 -0.4161
 1602TIP3   OH229000   5.070   5.472  10.184  0.0657 -0.3763  0.3587
 1602TIP3    H129001   5.035   5.549  10.138  1.5992 -0.3626 -0.8791
 1602TIP3    H229002   4.995   5.437  10.232 -0.5213  2.3975  1.7115
 1603TIP3   OH229003   7.251   2.255  10.472  0.2292  0.3802  0.2118
 1603TIP3    H129004   7.229   2.211  10.390  2.6784 -0.2989 -0.1821
 1603TIP3    H229005   7.221   2.345  10.459  1.4792  0.5807 -1.9453
 1604TIP3   OH229006   2.708   1.296   9.211  0.3085 -0.3239 -0.2063
 1604TIP3    H129007   2.699   1.222   9.150 -0.5674  0.4568 -1.0525
 1604TIP3    H229008   2.777   1.268   9.271 -1.1855 -2.5892  0.6031
 1605TIP3   OH229009   6.132   5.092   9.517 -0.5364  0.0239 -0.0307
 1605TIP3    H129010   6.128   5.002   9.548 -0.3691 -0.0230 -0.1461
 1605TIP3    H229011   6.180   5.139   9.585 -1.6526  0.2750  0.6119
 1606TIP3   OH229012   5.596   6.515  10.068  0.6878 -0.4816 -0.0673
 1606TIP3    H129013   5.548   6.598  10.070  0.3299 -0.6946  2.5723
 1606TIP3    H229014   5.621   6.499  10.159  1.4250 -2.9080 -0.6237
 1607TIP3   OH229015   4.673   1.600   9.702  0.2435  0.4181  0.2432
 1607TIP3    H129016   4.606   1.659   9.737 -1.1579 -1.1228  0.2807
 1607TIP3    H229017   4.661   1.603   9.607 -0.1426 -0.1293  0.2686
 1608TIP3   OH229018   1.853   0.296   9.023  0.3993  0.0545  0.0413
 1608TIP3    H129019   1.848   0.384   8.986 -0.4823 -0.2506 -0.5667
 1608TIP3    H229020   1.765   0.277   9.054  0.6617 -0.4929  0.4864
 1609TIP3   OH229021   1.119   0.006   9.836 -0.6660 -0.7242 -0.2095
 1609TIP3    H129022   1.168   0.044   9.763  1.0693  0.7598  1.6166
 1609TIP3    H229023   1.037   0.055   9.839 -0.6033 -0.5621 -0.9244
 1610TIP3   OH229024   6.412   6.351   8.765  0.1749 -0.4419  0.4647
 1610TIP3    H129025   6.429   6.445   8.770  1.8117 -0.6793 -0.1886
 1610TIP3    H229026   6.386   6.336   8.674  2.3838 -0.9585 -0.1330
 1611TIP3   OH229027   3.302   0.634  10.820  0.1084 -0.1215  0.0430
 1611TIP3    H129028   3.326   0.637  10.913  1.5477  0.9614 -0.3243
 1611TIP3    H229029   3.383   0.659  10.774 -0.6559 -0.3728 -1.4900
 1612TIP3   OH229030   6.159   3.285  10.655  0.2420 -0.2647  0.4921
 1612TIP3    H129031   6.099   3.343  10.608  1.3116  1.0791  0.6897
 1612TIP3    H229032   6.198   3.230  10.587  0.7996  0.7524 -0.0309
 1613TIP3   OH229033   5.699   0.599   9.437 -0.0343 -0.4078  0.0683
 1613TIP3    H129034   5.765   0.600   9.367  1.3640 -0.5541  1.3272
 1613TIP3    H229035   5.739   0.546   9.506 -2.0262 -1.5674  0.4021
 1614TIP3   OH229036   1.363   1.797   8.567  0.9389 -0.4845 -0.3164
 1614TIP3    H129037   1.426   1.831   8.630  1.9488 -0.1014 -1.4797
 1614TIP3    H229038   1.333   1.874   8.519 -1.2286 -0.5176  0.8645
 1615TIP3   OH229039   4.185   1.028   9.533 -0.0000  0.5646 -0.0361
 1615TIP3    H129040   4.255   0.965   9.517 -1.4186 -1.1530  0.2072
 1615TIP3    H229041   4.224   1.113   9.512  1.7926 -0.4303 -1.0010
 1616TIP3   OH229042   5.127   1.551   9.788 -0.1252 -0.6563 -0.1195
 1616TIP3    H129043   5.184   1.611   9.739 -0.6140 -1.5589 -1.8884
 1616TIP3    H229044   5.186   1.482   9.819  0.0133 -0.7316 -0.5356
 1617TIP3   OH229045   6.487   7.637  11.058 -0.1010 -0.2428  0.2514
 1617TIP3    H129046   6.580   7.619  11.044  0.9165  3.5460  0.9888
 1617TIP3    H229047   6.460   7.685  10.979 -0.5022  1.4392  1.3651
 1618TIP3   OH229048   7.229   3.142   9.998  0.3100  0.3626  0.0177
 1618TIP3    H129049   7.305   3.135   9.941 -0.3169 -1.7390 -0.6579
 1618TIP3    H229050   7.215   3.236  10.008  1.6914  0.7885 -1.5925
 1619TIP3   OH229051   7.425   4.040   9.409  0.0858  0.0535 -0.3879
 1619TIP3    H129052   7.367   4.099   9.361  1.3841  0.7324 -1.1794
 1619TIP3    H229053   7.441   4.085   9.492 -0.4228 -0.0929 -0.2037
 1620TIP3   OH229054   0.876   0.440   8.905 -0.0014  0.9353  0.4654
 1620TIP3    H129055   0.865   0.448   9.000 -0.8022  0.4581  0.4188
 1620TIP3    H229056   0.839   0.521   8.870 -0.8141  0.5808  0.4903
 1621TIP3   OH229057   0.204   2.214   8.928  0.0298 -0.0625 -0.1019
 1621TIP3    H129058   0.228   2.258   8.846  1.4370 -0.3890  0.1029
 1621TIP3    H229059   0.133   2.155   8.904 -1.4245  1.7617 -0.5235
 1622TIP3   OH229060   6.426   0.913  11.048  0.2285  0.2749 -0.8571
 1622TIP3    H129061   6.491   0.960  11.101 -1.0246 -0.4254  1.4680
 1622TIP3    H229062   6.475   0.843  11.006  1.4470  1.4283 -1.4483
 1623TIP3   OH229063   7.520   2.195  10.029  0.1068  0.4199 -0.1430
 1623TIP3    H129064   7.509   2.154  10.115  0.6631  1.3827  0.4044
 1623TIP3    H229065   7.599   2.249  10.038 -0.0520  0.8469 -1.1443
 1624TIP3   OH229066   7.671   4.641   8.900  0.3916  0.1644 -0.6950
 1624TIP3    H129067   7.678   4.733   8.928  0.9073  0.0068 -0.3033
 1624TIP3    H229068   7.576   4.625   8.898  0.3120  0.1049  1.2497
 1625TIP3   OH229069   1.831   2.649   9.837  0.0161 -0.2196  0.0773
 1625TIP3    H129070   1.802   2.726   9.789 -1.0332 -0.8684 -0.3517
 1625TIP3    H229071   1.926   2.661   9.847 -0.2369  1.4613  0.6633
 1626TIP3   OH229072   5.038   5.579   9.224 -0.2566 -0.4721 -0.8365
 1626TIP3    H129073   5.108   5.521   9.194 -0.9045 -1.3292 -0.7266
 1626TIP3    H229074   5.071   5.616   9.306  0.2493 -0.5194 -1.0160
 1627TIP3   OH229075   2.983   6.734   9.753 -0.1377 -0.1523  0.1944
 1627TIP3    H129076   2.968   6.647   9.791 -0.7190 -0.3929 -0.5677
 1627TIP3    H229077   2.906   6.784   9.777 -0.3527 -0.2052 -0.3904
 1628TIP3   OH229078   4.166   5.245   9.135 -0.6424 -0.6380  0.2992
 1628TIP3    H129079   4.139   5.277   9.048 -1.5222  0.6544  1.0120
 1628TIP3    H229080   4.222   5.315   9.169 -1.2727 -0.5750  1.2454
 1629TIP3   OH229081   5.188   1.804  10.699  0.4335 -0.5243 -0.6469
 1629TIP3    H129082   5.188   1.898  10.680 -0.0791 -0.6257 -1.1483
 1629TIP3    H229083   5.239   1.765  10.628  2.3654 -0.4266  0.6148
 1630TIP3   OH229084   0.168   0.441   9.504 -0.0851  0.2751 -0.2571
 1630TIP3    H129085   0.087   0.407   9.542 -0.8394  1.4856 -0.7465
 1630TIP3    H229086   0.238   0.396   9.553 -1.0395  0.2244  1.1067
 1631TIP3   OH229087   2.496   4.915   9.073 -0.0018  0.5659  0.1153
 1631TIP3    H129088   2.528   4.877   9.155  1.2461  1.4262  0.0636
 1631TIP3    H229089   2.508   4.847   9.008 -1.6014 -0.3614  0.7206
 1632TIP3   OH229090   6.990   3.053  11.109  0.1468  0.2795  0.3235
 1632TIP3    H129091   7.081   3.027  11.104  0.2666  0.3357  1.7476
 1632TIP3    H229092   6.983   3.127  11.049  1.0693  0.3516  0.2935
 1633TIP3   OH229093   6.029   6.999  10.948  0.2840 -0.4372  0.1790
 1633TIP3    H129094   6.097   7.059  10.977 -0.8020 -0.5534  3.2970
 1633TIP3    H229095   6.074   6.915  10.939  0.8940 -0.1553  0.5103
 1634TIP3   OH229096   1.214   6.934   8.526  1.2031 -0.3126 -0.0452
 1634TIP3    H129097   1.146   6.873   8.496  1.2519 -1.3467  1.8505
 1634TIP3    H229098   1.213   7.004   8.460 -1.4325 -0.4830 -0.3063
 1635TIP3   OH229099   4.093   7.428  10.436  0.1428 -0.1408 -0.1033
 1635TIP3    H129100   4.089   7.467  10.523  1.5959 -1.3460  0.5391
 1635TIP3    H229101   4.014   7.460  10.392  0.2075  1.7994  1.0779
 1636TIP3   OH229102   1.015   5.795   9.283  0.3787  0.0336 -0.1142
 1636TIP3    H129103   1.057   5.860   9.339 -2.0586  1.1841  0.5047
 1636TIP3    H229104   1.040   5.711   9.322  2.0776  0.6464  0.1829
 1637TIP3   OH229105   3.181   2.817  10.533 -0.0689  0.0296  0.4180
 1637TIP3    H129106   3.213   2.785  10.448  0.9214 -0.7046  1.0495
 1637TIP3    H229107   3.102   2.866  10.511 -0.1752 -0.6616 -0.8744
 1638TIP3   OH229108   4.158   6.191   9.611  0.1413 -0.1557 -0.0359
 1638TIP3    H129109   4.154   6.197   9.706 -0.4571 -1.0605  0.0073
 1638TIP3    H229110   4.251   6.178   9.591  0.1614 -0.8425  0.4876
 1639TIP3   OH229111   2.885   5.099   9.355  0.0025 -0.0308  0.0077
 1639TIP3    H129112   2.885   5.175   9.413  0.8198  0.7230 -0.9460
 1639TIP3    H229113   2.813   5.115   9.294  0.7938  0.5067 -0.8217
 1640TIP3   OH229114   4.957   6.419   9.541 -0.1511  0.7255 -0.2770
 1640TIP3    H129115   4.984   6.499   9.586  0.0377  0.2258  0.5153
 1640TIP3    H229116   4.954   6.353   9.609 -1.0615  0.2183 -0.7876
 1641TIP3   OH229117   2.342   4.609  11.071 -0.1591  0.1850 -0.0816
 1641TIP3    H129118   2.406   4.674  11.100 -0.5765  0.3941  0.3923
 1641TIP3    H229119   2.281   4.659  11.016 -0.6451  0.2633  0.5183
 1642TIP3   OH229120   2.867   6.806   8.788 -0.2855 -0.0420 -0.4054
 1642TIP3    H129121   2.920   6.743   8.739 -0.0225  0.8080 -1.2686
 1642TIP3    H229122   2.915   6.819   8.870  0.9098  0.7520 -1.1988
 1643TIP3   OH229123   1.966   0.777   8.908 -0.1036  0.5026  0.5880
 1643TIP3    H129124   1.915   0.696   8.906 -0.2837  0.5511  2.0791
 1643TIP3    H229125   1.914   0.839   8.856  0.9765 -0.7979 -2.2462
 1644TIP3   OH229126   1.593   3.110   9.206  0.1265 -0.2245 -0.6697
 1644TIP3    H129127   1.553   3.023   9.203 -1.9597  0.5912  1.1723
 1644TIP3    H229128   1.629   3.117   9.294  0.4403  0.7185 -0.8652
 1645TIP3   OH229129   3.387   5.103  10.340  0.4693  0.0593 -0.2188
 1645TIP3    H129130   3.383   5.134  10.250 -0.7506  0.2897 -0.0935
 1645TIP3    H229131   3.454   5.158  10.381  1.8545 -0.8023 -1.2511
 1646TIP3   OH229132   1.414   7.335   9.465  0.1814 -0.5377  0.2587
 1646TIP3    H129133   1.410   7.332   9.370  2.4890 -0.6641  0.1260
 1646TIP3    H229134   1.342   7.393   9.490 -3.5797 -4.0817 -1.2019
 1647TIP3   OH229135   3.574   7.110   8.628 -0.8216  0.3339 -0.0017
 1647TIP3    H129136   3.616   7.047   8.687  0.4808  0.2054 -1.0370
 1647TIP3    H229137   3.547   7.059   8.552 -0.3970  0.9024 -0.5404
 1648TIP3   OH229138   6.142   6.803   9.489 -0.2644  0.4477  0.4809
 1648TIP3    H129139   6.160   6.756   9.408 -3.5290 -0.6415  0.2334
 1648TIP3    H229140   6.187   6.753   9.557  0.2112 -0.2440 -0.3290
 1649TIP3   OH229141   4.768   1.805   9.150  0.0828  0.3565 -0.0486
 1649TIP3    H129142   4.762   1.785   9.057 -0.5920 -2.4310  0.5107
 1649TIP3    H229143   4.718   1.886   9.161 -2.0833 -0.6639 -1.7494
 1650TIP3   OH229144   2.835   5.977   9.960  0.1281  0.4636 -0.1539
 1650TIP3    H129145   2.920   5.979   9.916  0.6364 -0.0028  0.7908
 1650TIP3    H229146   2.789   5.904   9.920  0.4635  0.2408 -0.1347
 1651TIP3   OH229147   4.532   3.745  10.202  0.2680  0.4231  0.3080
 1651TIP3    H129148   4.575   3.810  10.147 -0.6663 -0.0618 -1.0410
 1651TIP3    H229149   4.451   3.725  10.156 -1.0874  0.7759  2.3896
 1652TIP3   OH229150   2.633   5.310   8.691 -1.0142 -0.0169 -0.2602
 1652TIP3    H129151   2.597   5.244   8.632 -1.1029  0.6783 -0.9970
 1652TIP3    H229152   2.642   5.389   8.637  2.8246 -0.4298 -0.5495
 1653TIP3   OH229153   6.152   1.326  10.290  0.0232 -0.1068 -0.3674
 1653TIP3    H129154   6.137   1.359  10.379  0.8023 -0.6442 -0.0250
 1653TIP3    H229155   6.065   1.324  10.251 -0.4037 -0.3150  0.5537
 1654TIP3   OH229156   4.932   2.811  10.402  0.2032  0.3197  0.3506
 1654TIP3    H129157   4.872   2.885  10.408 -0.8875 -0.4527 -0.4525
 1654TIP3    H229158   4.974   2.821  10.317 -0.7245 -0.5123 -0.2303
 1655TIP3   OH229159   4.610   0.911   9.935 -0.3226 -0.5440 -0.0037
 1655TIP3    H129160   4.583   0.830   9.977  1.0200 -0.6910  0.6371
 1655TIP3    H229161   4.598   0.978  10.001 -1.1603 -0.2464 -0.4410
 1656TIP3   OH229162   1.646   4.626   8.705 -0.1267 -0.4861  0.5154
 1656TIP3    H129163   1.603   4.586   8.780  0.5084 -0.8203  0.7090
 1656TIP3    H229164   1.576   4.673   8.659 -0.9985 -2.2340 -0.0100
 1657TIP3   OH229165   0.918   1.033  10.849  0.0539  0.0698 -0.6232
 1657TIP3    H129166   1.008   1.016  10.878  0.0534  0.4543 -0.3856
 1657TIP3    H229167   0.864   1.007  10.924 -0.0416 -0.2570 -0.8037
 1658TIP3   OH229168   2.416   1.620   8.263  0.0283 -0.0934  0.0873
 1658TIP3    H129169   2.474   1.628   8.188 -1.8697  0.1611 -1.4254
 1658TIP3    H229170   2.460   1.667   8.333  0.9199  1.4814 -1.4517
 1659TIP3   OH229171   3.323   5.935   9.522 -0.2029  0.1279 -0.4052
 1659TIP3    H129172   3.407   5.969   9.553  0.0628 -0.3684 -0.5611
 1659TIP3    H229173   3.343   5.895   9.437 -0.7494  0.6728 -0.7953
 1660TIP3   OH229174   2.973   5.619  10.832 -0.0007 -0.1433  0.1356
 1660TIP3    H129175   3.062   5.606  10.798 -0.4368  0.5909 -1.3834
 1660TIP3    H229176   2.984   5.621  10.927  1.7623  0.9561 -0.0454
 1661TIP3   OH229177   2.660   7.669   9.972  0.5782 -0.1134 -0.0016
 1661TIP3    H129178   2.707   7.632   9.897 -1.1084  0.1458 -1.2355
 1661TIP3    H229179   2.618   7.594  10.013 -1.4321  0.1160 -1.4922
 1662TIP3   OH229180   7.032   0.164  10.303 -0.2983 -0.3704 -0.2906
 1662TIP3    H129181   6.976   0.161  10.225  0.9753 -1.2594 -1.2127
 1662TIP3    H229182   7.000   0.093  10.359  0.7088 -1.8051 -1.4396
 1663TIP3   OH229183   4.871   2.312   9.057 -0.6546 -0.3496  0.0958
 1663TIP3    H129184   4.894   2.281   8.969  0.2139 -0.8163  0.4664
 1663TIP3    H229185   4.776   2.324   9.055 -0.6149 -0.1498 -0.9674
 1664TIP3   OH229186   1.739   6.806   9.421  0.3280  0.4084 -0.4282
 1664TIP3    H129187   1.680   6.877   9.394  1.7066  0.8072 -2.7185
 1664TIP3    H229188   1.758   6.824   9.513 -1.8692  1.1165 -0.0399
 1665TIP3   OH229189   3.335   4.586  10.299 -0.1573 -0.2150  0.2472
 1665TIP3    H129190   3.364   4.672  10.329 -1.2018 -0.0963  0.9874
 1665TIP3    H229191   3.312   4.598  10.207 -0.7656  0.4179  0.4801
 1666TIP3   OH229192   3.061   5.761   8.443  0.1958 -0.0950 -0.4879
 1666TIP3    H129193   3.065   5.698   8.514 -3.1950 -0.6949 -0.6492
 1666TIP3    H229194   3.108   5.838   8.476  1.2887 -1.4003  1.1424
 1667TIP3   OH229195   0.920   2.622  10.899 -0.0860 -0.9077 -0.3169
 1667TIP3    H129196   0.884   2.572  10.825 -1.0207  1.3850 -1.5150
 1667TIP3    H229197   1.001   2.660  10.864  0.3907 -1.2263  0.4301
 1668TIP3   OH229198   3.035   0.782  10.037 -0.1194 -0.3824  0.7863
 1668TIP3    H129199   3.119   0.757   9.998 -0.0371 -0.9099  1.2804
 1668TIP3    H229200   3.054   0.793  10.131 -0.1714  1.5261  0.6089
 1669TIP3   OH229201   1.478   2.166   8.696 -0.0910 -0.0932  0.9244
 1669TIP3    H129202   1.527   2.102   8.747  0.3024  0.0694  0.7599
 1669TIP3    H229203   1.492   2.140   8.605  0.5957  0.5768  0.8210
 1670TIP3   OH229204   4.436   1.640   9.081  0.3269  0.2789  0.0961
 1670TIP3    H129205   4.511   1.591   9.116  0.0253 -0.9170 -0.8523
 1670TIP3    H229206   4.363   1.613   9.136  0.1922 -0.2289 -0.3245
 1671TIP3   OH229207   2.932   3.273  10.791 -0.0846 -0.0140  0.1352
 1671TIP3    H129208   2.996   3.292  10.722 -0.5016 -1.2500 -0.6151
 1671TIP3    H229209   2.908   3.182  10.778 -2.9335  0.6913 -0.4320
 1672TIP3   OH229210   0.075   0.483   9.908  0.2796 -0.4257  0.5131
 1672TIP3    H129211   0.000   0.539   9.887  0.8454  0.7418  1.4902
 1672TIP3    H229212   0.048   0.435   9.986  0.1013 -0.9451  0.1433
 1673TIP3   OH229213   4.787   7.420   9.225  0.0520  0.0303 -0.0736
 1673TIP3    H129214   4.709   7.434   9.171 -0.2554  2.0192  0.8207
 1673TIP3    H229215   4.860   7.448   9.170  0.1466 -1.3994 -0.7402
 1674TIP3   OH229216   6.605   6.386   9.370  0.2396 -0.0457  0.2478
 1674TIP3    H129217   6.588   6.397   9.463  0.6679 -0.1083  0.3361
 1674TIP3    H229218   6.600   6.474   9.333 -1.8924 -0.2270 -0.0206
 1675TIP3   OH229219   3.663   0.250  11.163  0.7432 -0.1199  0.2234
 1675TIP3    H129220   3.664   0.332  11.214 -0.5265 -0.0699  0.1930
 1675TIP3    H229221   3.685   0.278  11.074 -0.6788  0.3702 -0.0016
 1676TIP3   OH229222   6.941   6.699   9.880  0.4990  0.0737 -0.1679
 1676TIP3    H129223   6.846   6.689   9.873  0.3718  0.8351  0.4112
 1676TIP3    H229224   6.975   6.653   9.803 -0.2890 -0.8155 -0.0111
 1677TIP3   OH229225   0.047   0.731   9.580 -0.6358 -0.2658  0.1879
 1677TIP3    H129226  -0.034   0.682   9.570 -0.3576 -1.3612  2.5743
 1677TIP3    H229227   0.113   0.665   9.600  0.8757  0.6097 -1.6040
 1678TIP3   OH229228   2.082   4.891  10.559 -0.2518  0.2122  0.1600
 1678TIP3    H129229   2.141   4.817  10.544  0.1709  0.4873  0.4535
 1678TIP3    H229230   2.009   4.876  10.498 -0.0143 -0.2728 -0.0109
 1679TIP3   OH229231   0.096   2.269  10.135 -0.6195  0.1719  0.1198
 1679TIP3    H129232   0.072   2.253  10.226  0.1774 -0.9444  0.1579
 1679TIP3    H229233   0.186   2.302  10.139  0.1537 -1.7474 -0.3336
 1680TIP3   OH229234   3.464   5.182  10.769 -0.0247  0.2042 -0.4493
 1680TIP3    H129235   3.550   5.211  10.801 -1.0371  1.5691  1.2462
 1680TIP3    H229236   3.425   5.137  10.844  0.1900 -2.8546 -2.0336
 1681TIP3   OH229237   1.547   0.744   9.753 -0.3981 -0.0593  0.0969
 1681TIP3    H129238   1.517   0.744   9.662 -0.7612 -0.0569  0.2145
 1681TIP3    H229239   1.522   0.658   9.787  0.6018 -0.4285 -0.0830
 1682TIP3   OH229240   2.776   1.966   9.371  0.5079 -0.3675 -0.4354
 1682TIP3    H129241   2.800   2.043   9.320  2.3800  0.9422  2.1338
 1682TIP3    H229242   2.856   1.913   9.374 -0.1224 -1.3344 -0.4305
 1683TIP3   OH229243   7.019   5.603   8.593  0.4430  0.1592 -0.2499
 1683TIP3    H129244   7.034   5.598   8.498  0.6712 -0.7802 -0.1775
 1683TIP3    H229245   7.004   5.696   8.610  0.3239  0.3331 -1.2188
 1684TIP3   OH229246   6.162   3.543  10.413 -0.0077  0.1116 -0.1815
 1684TIP3    H129247   6.079   3.519  10.455 -2.3830  0.2655 -4.3005
 1684TIP3    H229248   6.173   3.636  10.431  1.2122 -0.5224  3.1324
 1685TIP3   OH229249   4.765   4.123   9.595 -0.1406  0.3099 -0.4962
 1685TIP3    H129250   4.832   4.189   9.576  0.2885  0.2048  0.5659
 1685TIP3    H229251   4.752   4.129   9.690 -2.2387  0.8942 -0.7744
 1686TIP3   OH229252   3.812   1.328  10.426  0.7061  0.6152 -0.2679
 1686TIP3    H129253   3.822   1.255  10.365 -0.5376  0.4574 -0.3181
 1686TIP3    H229254   3.749   1.387  10.383 -1.0307 -0.0115  1.2823
 1687TIP3   OH229255   6.651   6.277   8.474  0.2696  0.0494 -0.3186
 1687TIP3    H129256   6.570   6.236   8.504  0.8293 -0.1831  0.9637
 1687TIP3    H229257   6.640   6.370   8.495  1.1029 -0.2643  1.8080
 1688TIP3   OH229258   6.196   0.338  11.192 -0.1469  0.0965  0.4719
 1688TIP3    H129259   6.265   0.363  11.254 -0.1518  1.2839  0.0239
 1688TIP3    H229260   6.150   0.419  11.174 -0.5994 -0.3752 -0.5422
 1689TIP3   OH229261   3.445   2.667   8.892 -0.6327 -0.1223 -0.2840
 1689TIP3    H129262   3.470   2.583   8.855 -1.3476 -0.6594  0.4395
 1689TIP3    H229263   3.465   2.730   8.822 -1.3359 -1.0256 -1.3433
 1690TIP3   OH229264   3.200   0.515  10.038 -0.8056 -0.0684 -0.0024
 1690TIP3    H129265   3.256   0.440  10.020 -1.1859 -0.3668  0.0379
 1690TIP3    H229266   3.261   0.585  10.062 -0.4151 -0.2036 -0.5784
 1691TIP3   OH229267   7.007   0.908   8.723 -0.3871 -0.8519  0.7090
 1691TIP3    H129268   7.076   0.958   8.766 -0.9059 -0.0239  0.5999
 1691TIP3    H229269   6.926   0.946   8.755 -0.7899 -0.0536 -1.1457
 1692TIP3   OH229270   1.454   3.538   8.371 -0.0889  0.1033  0.3930
 1692TIP3    H129271   1.421   3.604   8.310 -1.3141  0.1723  1.0952
 1692TIP3    H229272   1.382   3.476   8.380  0.1808 -0.0657  1.5300
 1693TIP3   OH229273   5.683   1.512   9.749 -0.0702 -0.5970  0.0237
 1693TIP3    H129274   5.778   1.516   9.739  0.0810 -1.4567  0.9913
 1693TIP3    H229275   5.658   1.429   9.710 -0.6586  0.3595 -1.7399
 1694TIP3   OH229276   0.040   5.258  10.249 -0.0883  0.4199  0.0317
 1694TIP3    H129277  -0.021   5.313  10.201 -0.0555  1.7865  1.4768
 1694TIP3    H229278  -0.017   5.200  10.301 -0.1443  0.6908  0.2727
 1695TIP3   OH229279   4.451   2.027  10.798  0.4330  0.6920 -0.0797
 1695TIP3    H129280   4.366   2.043  10.756  0.4151 -2.4521 -1.5087
 1695TIP3    H229281   4.515   2.035  10.728  0.6416 -2.4163 -0.3783
 1696TIP3   OH229282   6.093   2.528   9.833  0.0653 -0.0877 -0.5368
 1696TIP3    H129283   6.086   2.602   9.772  0.7501 -1.3369 -2.1910
 1696TIP3    H229284   6.176   2.543   9.879 -1.1170  1.6130  1.2175
 1697TIP3   OH229285   5.020   0.910  11.000  0.2110  0.5101  0.2940
 1697TIP3    H129286   5.027   0.948  10.912 -0.3531 -0.3336 -0.1264
 1697TIP3    H229287   5.094   0.850  11.006  2.3887  3.1259  1.7511
 1698TIP3   OH229288   3.672   4.603  10.489  0.7298  0.2091 -0.6197
 1698TIP3    H129289   3.633   4.688  10.510 -1.2419 -0.6278 -0.7144
 1698TIP3    H229290   3.694   4.565  10.574  2.0616  0.9652 -0.5917
 1699TIP3   OH229291   6.058   5.341   8.988 -0.4716 -0.9354  0.1726
 1699TIP3    H129292   6.061   5.250   9.018 -0.0777 -1.5082 -1.5163
 1699TIP3    H229293   6.028   5.336   8.898  0.6136  0.5086 -0.3178
 1700TIP3   OH229294   3.707   1.645  11.138 -0.6591  0.2826 -0.5531
 1700TIP3    H129295   3.791   1.604  11.114 -1.6441 -1.0551 -1.8894
 1700TIP3    H229296   3.728   1.738  11.146  1.1025 -0.1060 -0.1226
 1701TIP3   OH229297   7.498   6.341  10.764  0.7788 -0.1498 -0.2343
 1701TIP3    H129298   7.420   6.287  10.769  0.5542  0.2169  0.4323
 1701TIP3    H229299   7.522   6.342  10.671  0.4846 -0.9517 -0.3190
 1702TIP3   OH229300   4.980   3.207  10.252  0.0892  0.3706 -0.2621
 1702TIP3    H129301   4.950   3.289  10.292 -1.4797  0.2864 -1.1851
 1702TIP3    H229302   4.908   3.145  10.266  1.1491 -0.8060  0.2193
 1703TIP3   OH229303   0.485   1.489   9.736 -0.0114 -0.3266 -0.1503
 1703TIP3    H129304   0.580   1.487   9.742 -0.0235 -1.0417 -0.1371
 1703TIP3    H229305   0.462   1.581   9.748  0.4921 -0.4988  2.7403
 1704TIP3   OH229306   6.681   7.221   9.117  0.2422  0.5686 -0.0223
 1704TIP3    H129307   6.609   7.179   9.071 -0.5332  0.0153  1.5948
 1704TIP3    H229308   6.751   7.157   9.116 -0.1293  0.1485  0.4369
 1705TIP3   OH229309   2.685   5.145   9.164 -0.1213  0.0948  0.4301
 1705TIP3    H129310   2.710   5.140   9.072 -0.4447 -2.7718  0.4188
 1705TIP3    H229311   2.630   5.068   9.178 -1.9251  1.6378  2.5148
 1706TIP3   OH229312   2.116   2.046   9.517  0.1867 -0.3382  0.1643
 1706TIP3    H129313   2.130   1.980   9.585  0.7417 -0.2049  0.1862
 1706TIP3    H229314   2.065   2.001   9.449 -3.1519  0.3608  2.0005
 1707TIP3   OH229315   0.609   4.181   9.240  0.0767 -0.1481 -0.4288
 1707TIP3    H129316   0.599   4.102   9.187 -0.2961 -0.6214  0.3303
 1707TIP3    H229317   0.527   4.188   9.289  1.0541 -0.7361  1.4223
 1708TIP3   OH229318   0.871   4.666   9.710  0.0385  0.4420  0.3201
 1708TIP3    H129319   0.948   4.657   9.767  1.2433 -0.3737 -1.3490
 1708TIP3    H229320   0.908   4.688   9.624 -1.6944  1.1500 -0.2854
 1709TIP3   OH229321   4.563   5.416   9.865 -0.2722 -0.0511 -0.1357
 1709TIP3    H129322   4.602   5.498   9.894 -1.9563  1.2745 -1.4204
 1709TIP3    H229323   4.476   5.415   9.905  0.6397 -2.6432  2.1680
 1710TIP3   OH229324   1.117   2.360  10.726  0.3596  0.0759 -0.0301
 1710TIP3    H129325   1.210   2.372  10.709  0.3485 -0.3008 -0.3526
 1710TIP3    H229326   1.081   2.330  10.643  0.1432 -0.8704  0.3961
 1711TIP3   OH229327   4.449   4.815   9.641 -0.7486 -0.7397  0.0861
 1711TIP3    H129328   4.545   4.815   9.633 -0.9179 -0.2278 -4.7757
 1711TIP3    H229329   4.425   4.722   9.640 -0.3831 -0.8422  0.3671
 1712TIP3   OH229330   2.554   0.739   9.091  0.1016 -0.5478  0.4648
 1712TIP3    H129331   2.646   0.765   9.089 -0.1538  0.3814  0.1855
 1712TIP3    H229332   2.554   0.649   9.057  0.8370 -0.3325 -0.1436
 1713TIP3   OH229333   3.631   0.378   9.552 -0.1795 -0.1338 -0.4378
 1713TIP3    H129334   3.601   0.442   9.616  0.5955 -0.4156  0.2180
 1713TIP3    H229335   3.553   0.325   9.533 -0.0578 -1.1464  1.5929
 1714TIP3   OH229336   1.838   2.807  10.627  0.1108 -0.3576 -0.2497
 1714TIP3    H129337   1.896   2.735  10.649  0.5507  0.3745  1.0703
 1714TIP3    H229338   1.895   2.872  10.585  0.0188 -0.1126  0.0026
 1715TIP3   OH229339   0.085   5.729   8.703  0.0820 -0.4406 -0.2321
 1715TIP3    H129340   0.082   5.686   8.789 -0.9350 -0.8995 -0.4837
 1715TIP3    H229341   0.046   5.665   8.643 -1.5433  0.8406 -0.6127
 1716TIP3   OH229342   4.703   0.719  10.379 -0.2043 -0.0372  0.1476
 1716TIP3    H129343   4.636   0.709  10.312 -1.3558  0.2090  1.2268
 1716TIP3    H229344   4.717   0.631  10.412  1.0421 -0.3128 -0.9971
 1717TIP3   OH229345   6.495   1.217  10.601  0.0227 -0.3967  0.1346
 1717TIP3    H129346   6.586   1.190  10.593 -0.1960 -1.2128  0.3636
 1717TIP3    H229347   6.469   1.193  10.689  0.3003  2.1265  1.0053
 1718TIP3   OH229348   5.178   4.876  10.226 -0.0581 -0.4146  0.5083
 1718TIP3    H129349   5.180   4.780  10.227  0.9871 -0.4277 -0.6449
 1718TIP3    H229350   5.249   4.902  10.285  0.1248 -0.3631  0.2674
 1719TIP3   OH229351   0.260   6.032  10.876  0.8528 -0.0196 -0.4471
 1719TIP3    H129352   0.295   6.119  10.896 -1.8907  1.0435  0.2187
 1719TIP3    H229353   0.188   6.049  10.816 -0.2067 -1.7446  0.2784
 1720TIP3   OH229354   4.433   2.007  11.066  0.0537 -0.1493  0.3963
 1720TIP3    H129355   4.343   2.033  11.083 -0.0467 -0.8667  1.0418
 1720TIP3    H229356   4.446   2.024  10.973 -0.3548  1.0938  0.5548
 1721TIP3   OH229357   0.519   3.632   9.986  0.2712 -0.6466 -0.3548
 1721TIP3    H129358   0.541   3.640   9.893  2.2803  0.0979  0.1219
 1721TIP3    H229359   0.489   3.542   9.997 -1.7070 -0.2593 -2.0010
 1722TIP3   OH229360   7.225   5.247   9.237  0.1870  0.0597 -0.7730
 1722TIP3    H129361   7.202   5.288   9.321 -2.1242 -1.2644 -0.6786
 1722TIP3    H229362   7.310   5.285   9.215  0.3688  1.2680  1.6229
 1723TIP3   OH229363   1.972   0.578   9.367  0.4020 -0.3939 -0.2939
 1723TIP3    H129364   1.993   0.636   9.440 -0.6037  0.4999 -0.6924
 1723TIP3    H229365   1.923   0.633   9.306  1.0983 -1.1556 -1.5911
 1724TIP3   OH229366   5.055   0.685   8.999  0.2895  0.1693 -0.0123
 1724TIP3    H129367   5.036   0.777   8.983 -1.9821 -0.1915  0.2540
 1724TIP3    H229368   5.147   0.684   9.027  0.4601  2.2854 -0.3204
 1725TIP3   OH229369   3.865   4.141   8.874 -0.3120 -0.3391 -0.3025
 1725TIP3    H129370   3.819   4.125   8.791 -2.9258 -1.6835  1.2590
 1725TIP3    H229371   3.878   4.055   8.912 -1.3783  0.3125  1.7235
 1726TIP3   OH229372   6.110   6.144   8.772 -0.4580 -0.3883 -0.2342
 1726TIP3    H129373   6.099   6.235   8.744  0.8647  0.6362  2.3246
 1726TIP3    H229374   6.030   6.124   8.821 -0.2359 -0.2093  0.1997
 1727TIP3   OH229375   2.647   6.701  10.006  0.1009  0.1354 -0.8035
 1727TIP3    H129376   2.658   6.608  10.027  0.0324  0.5227  1.1913
 1727TIP3    H229377   2.613   6.740  10.087  0.3078  1.9424 -1.5326
 1728TIP3   OH229378   0.267   5.240  10.030  0.6674  0.4107  0.3534
 1728TIP3    H129379   0.262   5.228  10.124  1.9407 -2.7897  0.1577
 1728TIP3    H229380   0.210   5.172   9.994  0.1453  1.6106 -1.2238
 1729TIP3   OH229381   2.566   1.206  10.995  0.3724 -0.2000 -0.2063
 1729TIP3    H129382   2.533   1.226  10.907  0.4001  0.8706  0.0084
 1729TIP3    H229383   2.504   1.143  11.030 -0.8763  0.9728 -0.2101
 1730TIP3   OH229384   3.781   3.178   8.626 -0.2361 -0.0657  0.4265
 1730TIP3    H129385   3.736   3.193   8.542 -0.5241  3.0809  1.0158
 1730TIP3    H229386   3.871   3.208   8.610  1.1124 -3.8766  0.0039
 1731TIP3   OH229387   1.742   2.933  10.045 -0.4106  0.0111  0.2406
 1731TIP3    H129388   1.762   2.962  10.134  2.1942 -0.1551 -0.2182
 1731TIP3    H229389   1.724   2.839  10.055 -0.1483 -0.0049  0.5870
 1732TIP3   OH229390   2.219   6.476  11.189 -0.0541  0.2865 -0.3559
 1732TIP3    H129391   2.147   6.433  11.142 -1.3114  1.2458  0.6168
 1732TIP3    H229392   2.293   6.417  11.178 -1.5462 -1.8703  0.4472
 1733TIP3   OH229393   2.449   0.417  10.915  0.4189 -0.7271  0.0365
 1733TIP3    H129394   2.422   0.328  10.893  0.3221 -0.3784 -1.3446
 1733TIP3    H229395   2.369   0.462  10.942  0.4751 -1.0587  0.7720
 1734TIP3   OH229396   4.738   4.128   9.883  0.6343  0.2152 -0.1737
 1734TIP3    H129397   4.714   4.078   9.961  3.5437 -2.6891 -0.9266
 1734TIP3    H229398   4.715   4.218   9.905 -2.7769 -1.0208  2.2060
 1735TIP3   OH229399   4.754   7.477  10.612 -0.1298  0.1629 -0.5931
 1735TIP3    H129400   4.841   7.480  10.652 -0.0399  0.0251 -0.7788
 1735TIP3    H229401   4.716   7.394  10.641 -0.3670  0.4121 -0.1683
 1736TIP3   OH229402   1.665   3.402  11.138 -0.1613  0.0596 -0.4316
 1736TIP3    H129403   1.604   3.339  11.177  0.7603  0.0023  0.9874
 1736TIP3    H229404   1.729   3.419  11.207  0.7546  1.0253 -1.4854
 1737TIP3   OH229405   5.214   0.686   8.683 -0.4789  0.2405  0.4499
 1737TIP3    H129406   5.279   0.695   8.753 -0.7190  0.5213  0.6393
 1737TIP3    H229407   5.200   0.775   8.651 -2.1134  0.4597  1.6390
 1738TIP3   OH229408   6.560   5.613  10.083  0.4302  0.0811  0.3440
 1738TIP3    H129409   6.534   5.677  10.149 -0.3706 -0.1476  0.2595
 1738TIP3    H229410   6.633   5.654  10.037 -0.4483  1.2092 -0.1030
 1739TIP3   OH229411   0.102   0.962   8.358  0.1480 -0.0039  0.5207
 1739TIP3    H129412   0.022   0.916   8.381 -0.3055  0.4286 -0.1536
 1739TIP3    H229413   0.164   0.939   8.427 -1.3597  1.7933  2.5936
 1740TIP3   OH229414   2.262   1.519  10.160 -0.1668  0.7577  0.6671
 1740TIP3    H129415   2.339   1.463  10.152 -0.4604  0.4467 -0.1157
 1740TIP3    H229416   2.295   1.599  10.201  0.6170  0.7109  0.1488
 1741TIP3   OH229417   3.846   3.282  11.394  0.3891  0.2096  0.4167
 1741TIP3    H129418   3.894   3.328  11.325  1.0972 -0.0547  0.7253
 1741TIP3    H229419   3.778   3.234  11.347 -0.7916  2.0531  0.1417
 1742TIP3   OH229420   5.000   4.135  11.052 -0.0500 -0.3688 -0.4444
 1742TIP3    H129421   4.999   4.069  10.983  0.0442 -1.6362  0.7185
 1742TIP3    H229422   5.077   4.114  11.104 -1.2644 -0.7879  1.2732
 1743TIP3   OH229423   4.577   0.481   9.564  0.6103 -0.3814 -1.0296
 1743TIP3    H129424   4.668   0.505   9.580  0.5208  0.3059 -1.5071
 1743TIP3    H229425   4.553   0.531   9.486 -0.1397 -0.6541 -0.9758
 1744TIP3   OH229426   3.930   0.703  10.685  0.2216 -0.0848 -0.8862
 1744TIP3    H129427   4.019   0.687  10.654  0.0635 -0.0122 -1.3961
 1744TIP3    H229428   3.930   0.674  10.776  0.5955 -0.6906 -1.0714
 1745TIP3   OH229429   1.464   1.362  10.615  0.1558 -0.0194 -0.1345
 1745TIP3    H129430   1.393   1.348  10.553 -0.6807 -0.8247  0.9625
 1745TIP3    H229431   1.534   1.303  10.586 -0.8956 -1.7341  0.6744
 1746TIP3   OH229432   1.833   0.392  10.218  0.4306  0.0810 -0.2152
 1746TIP3    H129433   1.816   0.417  10.309  0.8652 -0.3096 -0.0245
 1746TIP3    H229434   1.884   0.464  10.182  1.2125 -0.2629  0.1766
 1747TIP3   OH229435   6.693   4.334  10.305 -0.0172 -0.4361 -0.1540
 1747TIP3    H129436   6.687   4.259  10.364  2.5505  0.6903  1.7686
 1747TIP3    H229437   6.778   4.323  10.261 -0.2716  0.5827 -0.9338
 1748TIP3   OH229438   4.558   7.518   9.121  0.0866  0.3755  0.0029
 1748TIP3    H129439   4.477   7.469   9.140 -0.3832  1.0032 -0.3441
 1748TIP3    H229440   4.533   7.578   9.051  0.7210  0.9543  0.2704
 1749TIP3   OH229441   1.782   0.203   9.765 -0.2632 -1.1029  0.7416
 1749TIP3    H129442   1.810   0.241   9.848 -1.0558  0.1335  0.4704
 1749TIP3    H229443   1.856   0.217   9.706 -1.6897  3.4219 -0.3706
 1750TIP3   OH229444   2.317   4.423  10.395 -0.1510 -0.2969  0.0730
 1750TIP3    H129445   2.310   4.501  10.340  0.1918  0.5104  1.1438
 1750TIP3    H229446   2.261   4.359  10.352  0.1604  0.2738 -1.2539
 1751TIP3   OH229447   1.680   2.681   9.418  0.3721 -0.3025 -0.2013
 1751TIP3    H129448   1.606   2.712   9.471 -0.0969  1.1063 -1.6285
 1751TIP3    H229449   1.745   2.751   9.424  1.1295 -0.9989  0.0489
 1752TIP3   OH229450   0.234   7.018  11.097  0.3197  0.0276  0.2471
 1752TIP3    H129451   0.252   7.109  11.072 -2.2530  0.5546  0.0213
 1752TIP3    H229452   0.319   6.982  11.117  1.5131  2.2921 -0.3493
 1753TIP3   OH229453   1.290   3.801   9.902 -0.4480  0.3783  0.4798
 1753TIP3    H129454   1.270   3.726   9.846  1.1763 -1.2182  1.9118
 1753TIP3    H229455   1.215   3.861   9.890 -1.5151 -1.1840 -1.1456
 1754TIP3   OH229456   1.389   7.435   8.899 -0.5224 -0.9525 -0.2473
 1754TIP3    H129457   1.462   7.373   8.903  1.8628  1.0509 -4.6304
 1754TIP3    H229458   1.338   7.407   8.823 -0.7856  0.9847 -0.8427
 1755TIP3   OH229459   1.696   0.899  10.539 -0.3207 -0.7978  0.6200
 1755TIP3    H129460   1.647   0.924  10.618 -0.1784  0.9704  0.1906
 1755TIP3    H229461   1.772   0.851  10.572 -0.3911 -0.2975  1.5479
 1756TIP3   OH229462   7.581   3.578  11.134 -0.2299 -0.3004  0.3736
 1756TIP3    H129463   7.515   3.563  11.066 -1.5769  0.4793  1.4624
 1756TIP3    H229464   7.530   3.599  11.212  1.3428  1.9224  0.8716
 1757TIP3   OH229465   4.956   1.907   9.336 -0.1375  0.3944  0.0334
 1757TIP3    H129466   4.876   1.894   9.285  0.2120  0.1601 -0.4654
 1757TIP3    H229467   5.027   1.883   9.276  0.4873  3.1601 -0.4738
 1758TIP3   OH229468   0.166   5.245   9.609 -0.4649 -0.3548  0.2855
 1758TIP3    H129469   0.223   5.224   9.535  0.1457 -0.7707  0.8674
 1758TIP3    H229470   0.226   5.255   9.683 -0.6397  3.5216  0.0903
 1759TIP3   OH229471   0.352   5.660   9.708  0.2920 -0.3802 -0.0823
 1759TIP3    H129472   0.349   5.672   9.613  3.1296  1.9879  0.0178
 1759TIP3    H229473   0.361   5.748   9.744  0.7951 -1.3194  2.3194
 1760TIP3   OH229474   4.720   5.169   9.817  0.7887 -0.3543  0.1058
 1760TIP3    H129475   4.733   5.159   9.723 -1.6645 -0.5353 -0.3035
 1760TIP3    H229476   4.657   5.241   9.825 -0.7523 -1.7544  1.4024
 1761TIP3   OH229477   2.543   6.518   9.815  0.1784 -0.1539 -0.2417
 1761TIP3    H129478   2.627   6.478   9.792  0.2434 -0.2313  0.1230
 1761TIP3    H229479   2.566   6.601   9.855  0.0966 -0.3379  0.1882
 1762TIP3   OH229480   0.673   4.811   9.804  0.1914 -0.3986  0.1695
 1762TIP3    H129481   0.729   4.757   9.749  1.2907  0.3342  0.5395
 1762TIP3    H229482   0.585   4.776   9.790  0.6532 -1.2088 -0.8563
 1763TIP3   OH229483   0.608   5.738   9.532  0.4454  0.0910  0.3580
 1763TIP3    H129484   0.567   5.812   9.576 -0.4220 -0.8674  1.1973
 1763TIP3    H229485   0.561   5.661   9.564  1.7667 -0.8979  0.0168
 1764TIP3   OH229486   4.811   4.767  10.298  0.7929 -0.3732  0.3308
 1764TIP3    H129487   4.807   4.856  10.333 -0.0027 -0.4002  0.3175
 1764TIP3    H229488   4.721   4.735  10.304  0.8727 -0.8046 -0.6373
 1765TIP3   OH229489   7.644   1.458  10.403  0.5603  0.2640  0.4845
 1765TIP3    H129490   7.653   1.484  10.494  1.1019  0.1628  0.4667
 1765TIP3    H229491   7.558   1.490  10.376  0.5276  0.5613  0.9407
 1766TIP3   OH229492   3.221   1.408   9.262  0.5684  0.1286 -0.1177
 1766TIP3    H129493   3.302   1.454   9.284  0.7199 -0.3383  0.3355
 1766TIP3    H229494   3.238   1.370   9.176  0.6419  0.4672 -0.2513
 1767TIP3   OH229495   5.495   3.956   9.494 -0.5058  0.1467 -0.6477
 1767TIP3    H129496   5.570   4.001   9.533 -1.2996 -0.9451  2.4313
 1767TIP3    H229497   5.475   3.885   9.555 -2.3487 -1.3304 -2.7920
 1768TIP3   OH229498   6.297   0.006   9.798  0.2549  0.6326 -0.3093
 1768TIP3    H129499   6.385   0.041   9.790  0.3648  0.0254 -2.2431
 1768TIP3    H229500   6.250   0.042   9.723 -0.2996 -1.3479 -0.9605
 1769TIP3   OH229501   2.347   2.794  10.010  0.1674 -0.3480  0.1190
 1769TIP3    H129502   2.334   2.773   9.918  1.2724 -3.4141  0.5485
 1769TIP3    H229503   2.309   2.881  10.020 -3.0937 -1.2657 -2.4814
 1770TIP3   OH229504   6.818   0.521  11.013 -0.6127 -0.5851  0.1863
 1770TIP3    H129505   6.861   0.504  11.097 -0.9720  0.3034  0.5631
 1770TIP3    H229506   6.805   0.435  10.975 -2.3219 -1.1773  1.9780
 1771TIP3   OH229507   5.651   2.859   9.259 -0.4923  0.1520 -0.6738
 1771TIP3    H129508   5.736   2.893   9.230 -1.5232  3.7672  0.0450
 1771TIP3    H229509   5.598   2.858   9.179 -0.5723  0.6928 -0.6319
 1772TIP3   OH229510   5.888   4.172   9.414 -0.1401 -0.0382 -0.3220
 1772TIP3    H129511   5.835   4.250   9.430 -1.1433 -0.7272 -0.1609
 1772TIP3    H229512   5.862   4.143   9.326  0.0850 -0.3002 -0.3045
 1773TIP3   OH229513   5.345   3.938  10.200 -0.0379  0.0170 -0.7320
 1773TIP3    H129514   5.414   3.987  10.246 -1.9270  1.1579  1.0713
 1773TIP3    H229515   5.327   3.989  10.122 -0.1341  0.7798 -0.2229
 1774TIP3   OH229516   1.470   0.452   9.823 -0.6888  0.1544  0.3473
 1774TIP3    H129517   1.478   0.422   9.732 -0.4586  1.1387  0.0200
 1774TIP3    H229518   1.545   0.415   9.868 -1.1205 -0.8300  0.2924
 1775TIP3   OH229519   4.407   7.297   9.013  0.3851 -0.2737  0.3030
 1775TIP3    H129520   4.497   7.301   8.980  0.3281  0.1700  0.1975
 1775TIP3    H229521   4.373   7.213   8.982  0.8628 -0.5827  0.5994
 1776TIP3   OH229522   4.825   2.563   9.913  0.0264  0.4441  0.2176
 1776TIP3    H129523   4.768   2.526   9.980 -1.0775  2.8066  0.7063
 1776TIP3    H229524   4.903   2.508   9.914  0.4040  0.7828  4.0219
 1777TIP3   OH229525   1.979   1.394   8.195 -0.5786 -0.1786 -0.2754
 1777TIP3    H129526   1.962   1.321   8.255  0.1347 -1.6872 -1.8165
 1777TIP3    H229527   2.074   1.405   8.197 -0.6826  0.7682 -0.0239
 1778TIP3   OH229528   2.117   7.247  10.126  0.5848  0.2537 -0.3212
 1778TIP3    H129529   2.044   7.200  10.085 -1.9178  1.9337  1.8254
 1778TIP3    H229530   2.170   7.179  10.166 -1.5005 -0.9691  0.5511
 1779TIP3   OH229531   0.660   4.546  10.999 -0.0270 -0.2479 -0.1218
 1779TIP3    H129532   0.665   4.637  11.027 -0.5573 -0.1177 -0.4301
 1779TIP3    H229533   0.608   4.548  10.918  0.0128 -0.8127 -0.1706
 1780TIP3   OH229534   7.435   7.037  10.598 -0.0414  0.3815 -0.2252
 1780TIP3    H129535   7.349   7.079  10.600  0.5822  1.6561  0.8741
 1780TIP3    H229536   7.425   6.962  10.657 -1.4542 -1.7766 -2.9545
 1781TIP3   OH229537   0.105   3.070  10.350  0.7715 -0.0086  0.0146
 1781TIP3    H129538   0.074   3.115  10.429 -1.6254  0.2359 -0.9927
 1781TIP3    H229539   0.134   3.141  10.292  1.3882 -0.1141  0.1796
 1782TIP3   OH229540   0.398   3.767   9.218 -0.0250 -0.5758 -0.5973
 1782TIP3    H129541   0.400   3.701   9.287 -0.5998  0.1127  0.1085
 1782TIP3    H229542   0.428   3.722   9.140  0.5533 -1.3984  0.0894
 1783TIP3   OH229543   4.877   7.363  10.376 -0.1667 -0.2996  0.7088
 1783TIP3    H129544   4.782   7.377  10.375 -0.0986  0.4854  2.5077
 1783TIP3    H229545   4.899   7.346  10.284 -1.4250  3.6628 -0.5246
 1784TIP3   OH229546   7.039   2.923  10.104  0.1357 -0.0536 -0.0311
 1784TIP3    H129547   7.100   2.971  10.047  0.8067 -0.7470  0.0798
 1784TIP3    H229548   6.965   2.983  10.116 -0.9554 -0.5926 -3.1715
 1785TIP3   OH229549   4.416   0.840  10.787 -0.5954  0.3978 -0.1972
 1785TIP3    H129550   4.504   0.831  10.823 -0.6094  1.3877  0.1180
 1785TIP3    H229551   4.418   0.789  10.706  0.0074 -0.2788  0.2239
 1786TIP3   OH229552   1.408   5.056   9.994 -0.5979 -0.2483  0.0699
 1786TIP3    H129553   1.444   5.001   9.925 -0.4934 -0.8990  0.6327
 1786TIP3    H229554   1.313   5.055   9.978 -0.6714 -1.2061  0.5062
 1787TIP3   OH229555   2.586   4.744  11.078 -0.3314 -0.4440  0.1424
 1787TIP3    H129556   2.568   4.819  11.136 -1.0168  0.4856 -1.2244
 1787TIP3    H229557   2.571   4.778  10.990 -0.0276 -2.0345 -0.5487
 1788TIP3   OH229558   6.153   2.410  10.570  0.4079 -0.9074  0.2194
 1788TIP3    H129559   6.161   2.505  10.561 -0.7124 -0.9534 -2.0416
 1788TIP3    H229560   6.243   2.378  10.567  0.8037  0.0654  1.1048
 1789TIP3   OH229561   4.130   6.566  10.729  0.2821  0.0629 -0.1200
 1789TIP3    H129562   4.161   6.621  10.801 -0.2815  0.4163 -0.1420
 1789TIP3    H229563   4.189   6.586  10.656  0.7348 -0.1534  0.1872
 1790TIP3   OH229564   1.283   1.048   9.932 -0.4170  0.0102 -0.1794
 1790TIP3    H129565   1.378   1.063   9.924 -0.1557 -1.1259  0.5390
 1790TIP3    H229566   1.275   0.991  10.008 -1.7400  0.5308  0.0874
 1791TIP3   OH229567   7.376   7.501  11.210 -0.4285 -0.4135 -0.2348
 1791TIP3    H129568   7.424   7.480  11.289 -0.5879 -1.4022 -0.3862
 1791TIP3    H229569   7.376   7.419  11.159 -2.4173 -0.5155 -0.1456
 1792TIP3   OH229570   3.064   7.543   8.830  0.4961  0.1255 -0.0954
 1792TIP3    H129571   3.083   7.468   8.774  0.2428 -0.5538  0.7124
 1792TIP3    H229572   2.984   7.580   8.793  1.0416  0.4729 -0.9607
 1793TIP3   OH229573   5.242   6.230   9.743  0.0633  0.1379  0.1945
 1793TIP3    H129574   5.308   6.188   9.689  2.1859  0.2353  2.5420
 1793TIP3    H229575   5.261   6.324   9.736 -0.9466  0.3138 -0.4330
 1794TIP3   OH229576   0.972   0.582   9.371  0.0771  0.2919  0.0252
 1794TIP3    H129577   0.972   0.677   9.360  1.9498  0.1995 -1.1545
 1794TIP3    H229578   1.062   0.555   9.353  0.0654 -1.5322  2.1751
 1795TIP3   OH229579   0.000   2.212  10.840  0.0400 -0.0557 -0.5957
 1795TIP3    H129580   0.034   2.233  10.927  1.6855  3.0155 -1.8121
 1795TIP3    H229581  -0.092   2.236  10.843  0.1460  0.2785  0.2484
 1796TIP3   OH229582   1.609   5.182   9.699  0.5004 -0.0489 -0.2161
 1796TIP3    H129583   1.590   5.092   9.724  1.0415  0.2395  1.3524
 1796TIP3    H229584   1.701   5.182   9.674  0.5532  0.0877 -0.0307
 1797TIP3   OH229585   0.440   3.135   8.142  0.0434 -0.1480  0.4702
 1797TIP3    H129586   0.376   3.124   8.213  0.1254 -1.9493  0.3159
 1797TIP3    H229587   0.425   3.059   8.085  1.0359  0.4415 -0.6058
 1798TIP3   OH229588   1.076   1.511  10.096  0.7212  0.3149  0.8743
 1798TIP3    H129589   1.088   1.453  10.022  0.1464 -0.7643  1.5978
 1798TIP3    H229590   0.990   1.550  10.082 -0.0708 -1.0407  1.6945
 1799TIP3   OH229591   5.411   1.840   9.350  0.3556  0.4605  0.5285
 1799TIP3    H129592   5.347   1.861   9.282  0.9609  0.4344 -0.0663
 1799TIP3    H229593   5.359   1.812   9.425 -0.2886 -2.3820 -0.8413
 1800TIP3   OH229594   6.960   2.970  10.797  0.5805 -0.2662 -0.5387
 1800TIP3    H129595   6.866   2.975  10.778  0.4583 -0.1505  0.0855
 1800TIP3    H229596   6.984   3.058  10.824  1.1607  0.0364 -1.9698
 1801TIP3   OH229597   6.731   7.369  10.194 -0.0111  0.6191 -0.3284
 1801TIP3    H129598   6.640   7.340  10.187 -0.1506  0.7957  0.5408
 1801TIP3    H229599   6.728   7.461  10.168  0.0222  0.4756 -0.8469
 1802TIP3   OH229600   3.750   7.483   9.514 -0.5852  0.5833 -0.3036
 1802TIP3    H129601   3.710   7.558   9.558 -2.2482  0.1971 -1.0794
 1802TIP3    H229602   3.722   7.407   9.565 -1.1434  0.2745 -1.0470
 1803TIP3   OH229603   5.900   0.885  11.272  0.4575  0.5477  0.6063
 1803TIP3    H129604   5.908   0.843  11.186  0.9876 -0.3924  1.1062
 1803TIP3    H229605   5.815   0.929  11.268 -0.5424 -1.2948  0.3567
 1804TIP3   OH229606   0.061   3.748   8.555  0.2430 -0.3831 -0.2762
 1804TIP3    H129607   0.147   3.784   8.533 -0.4122  0.2688 -1.8981
 1804TIP3    H229608   0.028   3.711   8.473 -1.4357  0.2424  0.0660
 1805TIP3   OH229609   7.132   7.214   9.021 -0.4252  0.2274  0.4445
 1805TIP3    H129610   7.063   7.151   9.043  1.5408 -1.7570  1.3486
 1805TIP3    H229611   7.209   7.160   9.001  0.8501  2.3241 -0.6785
 1806TIP3   OH229612   2.320   5.491  10.486 -0.0520  0.1688  0.0517
 1806TIP3    H129613   2.329   5.436  10.564  0.7397  1.8122  1.1823
 1806TIP3    H229614   2.408   5.496  10.449 -0.4108 -0.5441 -0.9262
 1807TIP3   OH229615   2.462   6.455  10.832 -0.5507 -0.0794 -0.4222
 1807TIP3    H129616   2.372   6.475  10.804 -1.0500  0.9902  1.7628
 1807TIP3    H229617   2.512   6.454  10.751 -2.0024  2.2945 -1.4578
 1808TIP3   OH229618   1.887   1.770   9.162 -0.0433  0.2146 -0.7575
 1808TIP3    H129619   1.803   1.814   9.158  0.2572  1.0304  1.0159
 1808TIP3    H229620   1.865   1.677   9.168 -0.8960  0.4909  0.9359
 1809TIP3   OH229621   1.699   1.475   9.297  0.0353 -0.0130 -0.1652
 1809TIP3    H129622   1.677   1.471   9.204 -0.7403  0.8390 -0.0269
 1809TIP3    H229623   1.622   1.439   9.342  0.7036 -1.1310  0.1243
 1810TIP3   OH229624   3.819   1.378   9.429 -0.2590 -0.3400 -0.0863
 1810TIP3    H129625   3.783   1.319   9.496 -1.3393 -0.5414 -0.8204
 1810TIP3    H229626   3.803   1.466   9.464  1.4326 -0.4365  1.0538
 1811TIP3   OH229627   6.084   3.456   9.315 -0.1620 -0.0813  0.5421
 1811TIP3    H129628   6.116   3.421   9.231 -1.4736  2.4497 -1.1449
 1811TIP3    H229629   6.155   3.514   9.344 -0.4029  0.3385  0.2975
 1812TIP3   OH229630   0.255   6.693  10.206  0.1940  0.3065  0.3893
 1812TIP3    H129631   0.239   6.723  10.296  0.2977 -0.4733  0.6734
 1812TIP3    H229632   0.246   6.598  10.211  0.7610  0.2161 -0.3164
 1813TIP3   OH229633   3.020   6.627   9.501  0.1608  0.0409  0.2098
 1813TIP3    H129634   2.971   6.546   9.513 -0.8373  0.5594 -0.1984
 1813TIP3    H229635   3.007   6.675   9.583 -0.0446  0.1924  0.0895
 1814TIP3   OH229636   4.087   2.350  10.040 -0.1463  0.0827 -0.8987
 1814TIP3    H129637   4.086   2.364   9.945 -0.3331 -0.9364 -1.0549
 1814TIP3    H229638   4.008   2.299  10.058  1.2125 -2.0492 -0.5856
 1815TIP3   OH229639   2.239   6.887  10.840 -0.3930 -0.4181  0.0194
 1815TIP3    H129640   2.313   6.943  10.865 -1.1553  0.9449 -0.6354
 1815TIP3    H229641   2.222   6.834  10.917  1.0058 -0.4716  0.3245
 1816TIP3   OH229642   2.653   2.852   8.588  0.4326 -0.0315 -0.3359
 1816TIP3    H129643   2.665   2.946   8.605  0.5890  0.2186 -1.7415
 1816TIP3    H229644   2.598   2.822   8.660 -1.9418  1.7376 -1.2723
 1817TIP3   OH229645   3.645   6.086  10.889  0.1128 -0.5184  0.0463
 1817TIP3    H129646   3.627   6.177  10.866  0.6058  0.1962  2.1861
 1817TIP3    H229647   3.694   6.051  10.815  0.9385  1.3228 -0.3387
 1818TIP3   OH229648   6.333   7.086   9.815 -0.7082  0.4048 -0.0147
 1818TIP3    H129649   6.276   7.083   9.738 -2.5630  1.3501  1.2544
 1818TIP3    H229650   6.369   7.175   9.815  0.7235 -0.1314 -0.7101
 1819TIP3   OH229651   1.041   3.624   8.257  0.2217  0.0245  0.2097
 1819TIP3    H129652   0.983   3.549   8.251  1.5111 -0.9560 -0.7702
 1819TIP3    H229653   0.984   3.698   8.274 -1.3506 -0.8326 -1.1172
 1820TIP3   OH229654   2.683   7.188  11.057 -0.2449  0.0249 -0.1125
 1820TIP3    H129655   2.721   7.276  11.051  2.5749 -1.1034 -0.4656
 1820TIP3    H229656   2.671   7.161  10.966 -0.4441 -0.2039 -0.0182
 1821TIP3   OH229657   5.677   7.374   9.617 -0.3178  0.1068  0.3729
 1821TIP3    H129658   5.642   7.462   9.606  2.4522  1.1525 -1.1513
 1821TIP3    H229659   5.646   7.347   9.704 -0.3761  3.0419  1.3853
 1822TIP3   OH229660   2.068   4.260   8.680 -0.2463 -0.5502  0.4302
 1822TIP3    H129661   1.979   4.234   8.658 -0.4731  1.1691 -0.8576
 1822TIP3    H229662   2.120   4.181   8.665 -1.1090 -0.7660 -1.8508
 1823TIP3   OH229663   1.156   0.960  10.274  0.1700 -0.3742 -0.2310
 1823TIP3    H129664   1.130   0.900  10.344 -2.4704  1.5950  0.6284
 1823TIP3    H229665   1.245   0.934  10.252  1.3705 -0.7880  4.2117
 1824TIP3   OH229666   3.286   3.604   9.794  0.0944 -0.3400 -0.4095
 1824TIP3    H129667   3.208   3.551   9.777 -0.0117 -0.0643 -0.7843
 1824TIP3    H229668   3.341   3.548   9.849 -0.9927 -0.0272  1.0758
 1825TIP3   OH229669   1.038   6.862   9.838 -0.0960  0.2582  0.1892
 1825TIP3    H129670   0.971   6.808   9.798 -0.6056 -0.6821  2.1954
 1825TIP3    H229671   1.037   6.837   9.931  0.0771  3.2448  1.1032
 1826TIP3   OH229672   2.284   5.566   9.882 -0.1492 -0.0997 -0.2570
 1826TIP3    H129673   2.361   5.621   9.897 -0.4985  0.9229 -1.8572
 1826TIP3    H229674   2.210   5.626   9.893 -0.5167 -0.0321 -2.5558
 1827TIP3   OH229675   0.908   0.362  10.956 -0.0403 -0.0376  0.6847
 1827TIP3    H129676   0.981   0.332  11.011  1.7763  1.4535 -0.7468
 1827TIP3    H229677   0.914   0.308  10.877 -0.3816  0.1783  0.5083
 1828TIP3   OH229678   2.022   2.961  10.489  0.8081 -0.3935  0.0431
 1828TIP3    H129679   2.076   2.882  10.486  0.4520 -0.8247  2.6708
 1828TIP3    H229680   2.066   3.018  10.552 -0.1697  0.5294 -0.0810
 1829TIP3   OH229681   3.357   0.268  10.316  0.3791  0.1737 -0.1113
 1829TIP3    H129682   3.413   0.256  10.393 -0.4220 -0.6114  0.3671
 1829TIP3    H229683   3.292   0.332  10.344  1.6886  2.0015 -1.0492
 1830TIP3   OH229684   4.400   2.449  10.087 -0.5930 -0.0584 -0.5268
 1830TIP3    H129685   4.359   2.390  10.151  0.3423 -0.9791 -0.7449
 1830TIP3    H229686   4.351   2.435  10.006 -1.4505  0.7267 -0.1542
 1831TIP3   OH229687   0.647   2.182   8.943 -0.6384  0.7390 -0.3885
 1831TIP3    H129688   0.735   2.170   8.906 -0.3716  1.0242  0.1410
 1831TIP3    H229689   0.649   2.270   8.981 -1.2294  0.8323 -0.5759
 1832TIP3   OH229690   7.142   7.052  10.035  0.3035  0.2091 -0.4986
 1832TIP3    H129691   7.236   7.066  10.028  0.3727 -0.3218 -0.7277
 1832TIP3    H229692   7.103   7.138  10.023  0.7011  0.2411 -1.6258
 1833TIP3   OH229693   3.236   4.469   9.664  0.0625 -0.3457  0.3064
 1833TIP3    H129694   3.154   4.504   9.700 -0.1791 -0.0954 -0.4624
 1833TIP3    H229695   3.305   4.518   9.708 -0.2522  0.5500 -0.1578
 1834TIP3   OH229696   1.856   3.787  10.458 -0.2100 -0.1809 -0.4190
 1834TIP3    H129697   1.831   3.720  10.521  0.7536  0.6515  0.9112
 1834TIP3    H229698   1.794   3.858  10.472 -0.5728 -0.3579 -1.0844
 1835TIP3   OH229699   0.753   6.090   9.127 -0.4370 -0.4209  0.4385
 1835TIP3    H129700   0.807   6.036   9.185 -1.6015 -1.6739  0.4181
 1835TIP3    H229701   0.816   6.142   9.077  0.7124 -1.3237  0.9055
 1836TIP3   OH229702   1.022   2.866   9.594 -0.2072 -0.5446 -0.4388
 1836TIP3    H129703   1.093   2.914   9.636 -1.4271  0.1989  0.8699
 1836TIP3    H229704   1.066   2.804   9.536  1.4795  0.2549 -0.0802
 1837TIP3   OH229705   4.559   6.767  10.779 -0.0474  0.7284 -0.1385
 1837TIP3    H129706   4.464   6.781  10.770 -0.1978  1.1032  1.7643
 1837TIP3    H229707   4.587   6.742  10.691 -1.7594  1.4857 -0.9527
 1838TIP3   OH229708   7.398   0.024   9.996  0.4073  0.4167 -0.2440
 1838TIP3    H129709   7.416   0.091   9.929 -1.9589 -0.1193 -1.5395
 1838TIP3    H229710   7.355  -0.046   9.948 -1.1402 -0.1223  1.8181
 1839TIP3   OH229711   1.672   5.905   8.404  0.4131  0.6289  0.2345
 1839TIP3    H129712   1.745   5.919   8.343  0.2495 -1.1523 -0.4359
 1839TIP3    H229713   1.663   5.810   8.408 -1.3128  0.7974  0.9891
 1840TIP3   OH229714   5.844   0.490  11.299 -0.5223  0.4275  0.6180
 1840TIP3    H129715   5.784   0.564  11.305 -0.1453  0.7805  0.1805
 1840TIP3    H229716   5.922   0.519  11.346 -0.5105  0.1721  0.7530
 1841TIP3   OH229717   3.882   2.389   9.258 -0.7162 -0.1674  0.4897
 1841TIP3    H129718   3.852   2.465   9.307  0.3449 -0.5014  1.7331
 1841TIP3    H229719   3.879   2.317   9.322 -0.4112 -0.8677 -0.2660
 1842TIP3   OH229720   5.098   4.242  10.511  0.3116 -0.3600  0.2216
 1842TIP3    H129721   5.113   4.148  10.501  2.4790 -0.0468  0.0034
 1842TIP3    H229722   5.181   4.275  10.546 -0.9931  1.2324  1.9675
 1843TIP3   OH229723   5.987   1.332   8.811 -0.3611  0.4808  0.0084
 1843TIP3    H129724   5.898   1.368   8.804  0.0078  1.2705 -0.6410
 1843TIP3    H229725   6.001   1.287   8.727  0.0175  0.7295 -0.0604
 1844TIP3   OH229726   4.679   7.332   8.551  0.6420 -0.3253 -0.5551
 1844TIP3    H129727   4.663   7.388   8.476  0.6876 -2.1855 -2.0200
 1844TIP3    H229728   4.771   7.347   8.574  0.8121 -0.2362 -1.2920
 1845TIP3   OH229729   6.099   2.548   8.983 -0.4515  0.0268  0.0723
 1845TIP3    H129730   6.087   2.628   8.931  1.2120 -0.9913 -2.0479
 1845TIP3    H229731   6.094   2.477   8.919  0.2972 -1.4089  1.5377
 1846TIP3   OH229732   6.474   1.439  10.421 -0.4011 -0.3334  0.4760
 1846TIP3    H129733   6.563   1.420  10.394 -0.8616 -0.9415 -0.6659
 1846TIP3    H229734   6.454   1.373  10.488  0.0616 -0.0678  0.8810
 1847TIP3   OH229735   1.241   0.526  10.489  0.0404  0.1499 -0.5812
 1847TIP3    H129736   1.229   0.620  10.472  1.9864  0.1898 -2.1470
 1847TIP3    H229737   1.234   0.485  10.403  1.7476 -0.7820 -0.3172
 1848TIP3   OH229738   5.893   3.173  10.778  0.1791 -0.1619 -0.7302
 1848TIP3    H129739   5.973   3.152  10.826 -0.5896  0.7033  1.0346
 1848TIP3    H229740   5.923   3.218  10.699  1.4189  1.3731  0.5448
 1849TIP3   OH229741   4.345   5.897   8.929 -0.0979  0.7550 -0.0323
 1849TIP3    H129742   4.334   5.835   8.857 -0.7956 -0.9961  1.5096
 1849TIP3    H229743   4.271   5.880   8.988  0.0567  2.6116  0.7854
 1850TIP3   OH229744   3.750   0.740   8.866 -0.1213  0.5343  0.0318
 1850TIP3    H129745   3.801   0.805   8.818  0.6865  0.3124  0.5660
 1850TIP3    H229746   3.802   0.660   8.862 -0.6924  0.1484  0.1178
 1851TIP3   OH229747   5.687   2.861   9.976 -0.1423 -0.6278 -0.0787
 1851TIP3    H129748   5.630   2.787   9.957 -2.2179  1.2513 -1.8242
 1851TIP3    H229749   5.628   2.928  10.010  2.0281 -0.4616  3.9026
 1852TIP3   OH229750   1.953   1.055   9.834 -0.5433  0.2123 -0.0612
 1852TIP3    H129751   2.021   1.018   9.777 -2.9815  0.1558 -3.1749
 1852TIP3    H229752   1.971   1.149   9.835  1.0976 -0.0613  1.4473
 1853TIP3   OH229753   7.641   0.807   9.942  0.4868  0.2829 -0.1045
 1853TIP3    H129754   7.596   0.724   9.957 -0.2885  0.7499  0.2025
 1853TIP3    H229755   7.598   0.869  10.001  0.3630  1.1518 -1.0760
 1854TIP3   OH229756   1.323   0.645   8.575 -0.4143  0.1558 -0.2609
 1854TIP3    H129757   1.403   0.594   8.567  0.2443  1.0518  0.4169
 1854TIP3    H229758   1.285   0.618   8.659 -0.4610  0.2221 -0.2601
 1855TIP3   OH229759   0.261   3.389   9.489  0.3436 -0.2063 -0.1046
 1855TIP3    H129760   0.168   3.382   9.466  0.4676 -0.1198 -0.6396
 1855TIP3    H229761   0.262   3.434   9.574 -0.0182  1.5478 -0.9806
 1856TIP3   OH229762   2.863   1.052   8.430 -0.2497 -0.1906 -0.3728
 1856TIP3    H129763   2.821   0.966   8.419 -0.5782  0.0315 -0.8866
 1856TIP3    H229764   2.815   1.110   8.371  0.0454  0.3255 -0.1148
 1857TIP3   OH229765   6.917   6.651   8.608  0.3221  0.4277 -0.1605
 1857TIP3    H129766   6.837   6.618   8.566  0.3107 -0.1967  0.3284
 1857TIP3    H229767   6.988   6.611   8.558  0.3287  0.9731 -0.5877
 1858TIP3   OH229768   1.458   6.744  10.358 -0.2602 -0.3419 -0.6875
 1858TIP3    H129769   1.409   6.744  10.276  0.8765 -0.9648 -1.4051
 1858TIP3    H229770   1.460   6.835  10.385  1.3790  0.2995 -2.6619
 1859TIP3   OH229771   5.875   6.210  10.418 -0.3916 -0.0661 -0.2329
 1859TIP3    H129772   5.970   6.216  10.410 -0.4363 -1.2242 -2.5828
 1859TIP3    H229773   5.858   6.117  10.437 -1.0374  0.2458  0.7723
 1860TIP3   OH229774   7.147   1.197   9.079  0.2622 -0.1723 -0.2110
 1860TIP3    H129775   7.213   1.238   9.023  0.4493 -0.0108  0.1231
 1860TIP3    H229776   7.087   1.268   9.103  0.1400 -0.2556 -0.2663
 1861TIP3   OH229777   3.393   3.598  11.209 -0.1423 -0.7439 -0.0176
 1861TIP3    H129778   3.481   3.619  11.241 -0.9344  0.6350  1.3841
 1861TIP3    H229779   3.373   3.513  11.249 -0.5332  0.2740  2.0970
 1862TIP3   OH229780   6.146   0.182  10.942 -0.5053  0.5562 -0.2866
 1862TIP3    H129781   6.221   0.202  10.998 -0.9569 -0.0841  0.5629
 1862TIP3    H229782   6.078   0.243  10.969 -0.5663  0.5661 -0.4632
 1863TIP3   OH229783   5.221   3.602   8.996 -0.2395  0.2769  0.4136
 1863TIP3    H129784   5.159   3.576   9.064 -0.9904 -0.5091 -0.5290
 1863TIP3    H229785   5.298   3.547   9.011 -0.0168  0.7946  1.1994
 1864TIP3   OH229786   4.253   1.538   9.248 -0.3707  0.1011  0.0652
 1864TIP3    H129787   4.180   1.513   9.191 -0.0826 -1.4663  0.3398
 1864TIP3    H229788   4.212   1.551   9.334 -0.6773  1.6723 -0.2819
 1865TIP3   OH229789   2.332   4.020  10.462  0.0555  0.2847 -0.2426
 1865TIP3    H129790   2.316   4.063  10.546 -0.4171 -0.0296 -0.1669
 1865TIP3    H229791   2.419   3.981  10.470 -0.2525 -0.2852  0.3326
 1866TIP3   OH229792   5.904   0.353  10.973  0.2664  0.1961 -0.2525
 1866TIP3    H129793   5.948   0.437  10.981 -0.2227  0.3393  1.3227
 1866TIP3    H229794   5.814   0.369  11.002 -0.6791 -0.2577 -2.6885
 1867TIP3   OH229795   2.786   6.308   8.941  0.3638  0.3308 -0.2103
 1867TIP3    H129796   2.693   6.310   8.962  0.3667  2.6953 -0.1488
 1867TIP3    H229797   2.828   6.276   9.021 -0.3001  0.7416  0.3187
 1868TIP3   OH229798   2.328   4.755   9.559 -0.6786 -0.2669  0.0105
 1868TIP3    H129799   2.390   4.745   9.631 -1.8501  0.6219  1.1759
 1868TIP3    H229800   2.380   4.793   9.488  0.6325 -1.7367  0.1433
 1869TIP3   OH229801   0.697   2.064  10.368  0.1076  0.1230  0.1530
 1869TIP3    H129802   0.646   1.985  10.387 -0.2845  0.2497 -0.3449
 1869TIP3    H229803   0.645   2.135  10.406 -0.2450  0.2830 -0.5979
 1870TIP3   OH229804   5.466   6.081   9.907 -0.3608  0.2155 -0.3596
 1870TIP3    H129805   5.409   6.041   9.842  0.3214  0.8529 -1.3761
 1870TIP3    H229806   5.535   6.123   9.856  0.0248  0.9917  0.7619
 1871TIP3   OH229807   7.062   5.371   9.040  0.8832  0.7170  0.3650
 1871TIP3    H129808   7.124   5.376   8.968 -0.6485 -0.3820 -1.0972
 1871TIP3    H229809   7.116   5.370   9.119  2.6224  1.3808 -0.7800
 1872TIP3   OH229810   3.633   1.745  10.463  0.1681 -0.1116  0.4674
 1872TIP3    H129811   3.584   1.699  10.394 -0.4947  2.4547 -0.8964
 1872TIP3    H229812   3.636   1.682  10.536 -1.0371 -2.1120 -1.0910
 1873TIP3   OH229813   3.381   7.270  11.147 -0.8238  0.5145  0.1358
 1873TIP3    H129814   3.343   7.352  11.114 -2.0856 -0.0082  0.2608
 1873TIP3    H229815   3.401   7.288  11.238 -0.3008  0.9498 -0.0577
 1874TIP3   OH229816   6.579   2.053   9.875  0.3378 -0.0546  0.0605
 1874TIP3    H129817   6.637   2.056   9.951 -0.5649  0.8461  0.7269
 1874TIP3    H229818   6.492   2.070   9.910  0.0490  1.5495 -1.2975
 1875TIP3   OH229819   4.160   4.976   9.047 -0.1146 -0.1169  0.2928
 1875TIP3    H129820   4.178   5.064   9.078 -0.2590 -0.4860  1.4449
 1875TIP3    H229821   4.123   4.989   8.959  0.9220  0.8932 -0.0259
 1876TIP3   OH229822   3.294   6.326   9.263  0.6738  0.1372  0.0306
 1876TIP3    H129823   3.279   6.383   9.338  2.1130  1.8448 -0.8998
 1876TIP3    H229824   3.214   6.332   9.212 -0.1209 -0.6394  1.1420
 1877TIP3   OH229825   1.124   6.334   8.832  0.0079 -0.5781  0.5490
 1877TIP3    H129826   1.121   6.423   8.867 -0.7169 -0.3608 -0.0240
 1877TIP3    H229827   1.167   6.343   8.747 -2.1191 -0.3586 -0.5766
 1878TIP3   OH229828   6.078   2.084   9.955  0.4287  0.2917 -0.1714
 1878TIP3    H129829   6.027   2.008   9.983 -1.9676  1.8310 -0.0391
 1878TIP3    H229830   6.118   2.057   9.872 -1.0754 -0.8597 -0.5566
 1879TIP3   OH229831   1.933   0.592  10.935 -0.0644 -0.2540 -0.0733
 1879TIP3    H129832   1.997   0.547  10.879 -0.2384 -0.4693 -0.0983
 1879TIP3    H229833   1.893   0.522  10.986 -0.3362 -0.1247 -0.1126
 1880TIP3   OH229834   6.070   1.670   9.453  0.8540  0.2035  0.4319
 1880TIP3    H129835   5.982   1.662   9.490  0.3033 -0.3121 -0.9538
 1880TIP3    H229836   6.108   1.583   9.462  1.1259  0.3521  0.7606
 1881TIP3   OH229837   1.039   3.224  10.219  0.0727  0.0542 -0.6263
 1881TIP3    H129838   0.987   3.147  10.240 -0.0796  0.0861 -0.8848
 1881TIP3    H229839   1.004   3.256  10.135  1.3281 -0.6605 -1.4640
 1882TIP3   OH229840   6.663   3.692   9.484  0.4145 -0.0527 -0.0954
 1882TIP3    H129841   6.646   3.778   9.448  0.0848  0.2784  0.8106
 1882TIP3    H229842   6.577   3.652   9.494  0.4781 -0.0795  0.4247
 1883TIP3   OH229843   0.493   3.227  10.634 -0.6832 -0.0384  0.3393
 1883TIP3    H129844   0.476   3.310  10.677 -1.6133  0.5580 -1.1120
 1883TIP3    H229845   0.460   3.161  10.695 -1.6672  0.7549  0.6825
 1884TIP3   OH229846   3.733   4.943  10.925  0.2196 -0.0084  0.3308
 1884TIP3    H129847   3.642   4.912  10.928  0.3592 -0.4781 -0.0910
 1884TIP3    H229848   3.774   4.889  10.857  0.0455  2.2121 -1.6879
 1885TIP3   OH229849   1.421   0.557  10.755 -0.7022 -0.5460  0.2379
 1885TIP3    H129850   1.334   0.521  10.768 -0.3020 -0.7639  2.8149
 1885TIP3    H229851   1.478   0.505  10.812  0.8319  0.6157 -0.1485
 1886TIP3   OH229852   3.542   3.389  10.569 -0.2902 -0.2456 -0.1320
 1886TIP3    H129853   3.518   3.451  10.638  1.1320 -0.9468  1.0417
 1886TIP3    H229854   3.460   3.372  10.523 -0.8650  1.9326 -0.0372
 1887TIP3   OH229855   6.155   6.242  10.464  0.1606  0.9107  0.0600
 1887TIP3    H129856   6.203   6.179  10.410 -0.8491 -0.2565  0.4626
 1887TIP3    H229857   6.174   6.217  10.554 -0.9053  0.6130  0.2267
 1888TIP3   OH229858   0.574   3.163   9.701  0.0866  0.0374 -0.5677
 1888TIP3    H129859   0.514   3.130   9.635 -0.2828  0.4139 -0.4315
 1888TIP3    H229860   0.583   3.257   9.681  0.1625  0.1052 -0.2316
 1889TIP3   OH229861   4.774   0.653   8.484 -0.9999 -0.4076  0.2731
 1889TIP3    H129862   4.853   0.621   8.527  0.1410  1.3367 -0.4521
 1889TIP3    H229863   4.776   0.612   8.397  0.9153  2.0810 -0.9780
 1890TIP3   OH229864   4.603   0.664  11.173 -0.1486  0.2215 -0.3342
 1890TIP3    H129865   4.539   0.602  11.207  0.7110 -1.9657 -2.3327
 1890TIP3    H229866   4.687   0.619  11.184  0.9100  2.3575  0.8454
 1891TIP3   OH229867   1.644   7.068   9.327  0.1273  0.0911  0.3631
 1891TIP3    H129868   1.731   7.056   9.291  0.3385  1.6816  0.2956
 1891TIP3    H229869   1.648   7.150   9.376 -1.2096 -0.0158  0.7104
 1892TIP3   OH229870   4.118   5.188  10.530  0.5193  0.6819  0.0307
 1892TIP3    H129871   4.201   5.146  10.553  0.5051  0.5811 -0.1018
 1892TIP3    H229872   4.140   5.246  10.457  0.5175  0.8233  0.1422
 1893TIP3   OH229873   0.463   0.658   9.279 -0.6116 -0.0607 -0.6138
 1893TIP3    H129874   0.488   0.672   9.371  2.9049  0.4209 -1.4865
 1893TIP3    H229875   0.428   0.742   9.250 -2.1126 -0.3275  0.3464
 1894TIP3   OH229876   3.134   0.587   9.144 -0.0101  0.9169  0.2150
 1894TIP3    H129877   3.212   0.546   9.180 -0.5643 -1.5187 -1.1015
 1894TIP3    H229878   3.128   0.671   9.188  1.4777 -0.2263  2.8198
 1895TIP3   OH229879   6.811   5.502   8.364 -0.1696 -0.5151  0.6612
 1895TIP3    H129880   6.897   5.544   8.370  0.2773 -1.6012  2.5302
 1895TIP3    H229881   6.827   5.422   8.314 -0.6210  0.4501 -1.1132
 1896TIP3   OH229882   7.047   1.897   8.575  0.2887 -0.3092  0.1412
 1896TIP3    H129883   7.043   1.992   8.577 -1.2013 -0.3598  0.2938
 1896TIP3    H229884   7.090   1.873   8.657 -1.1459  0.1692  1.0594
 1897TIP3   OH229885   4.606   6.424   9.668 -0.0471 -0.2277  0.0712
 1897TIP3    H129886   4.626   6.440   9.576 -1.2432  1.4599  0.0459
 1897TIP3    H229887   4.654   6.344   9.690  0.2732 -0.6629 -2.0010
 1898TIP3   OH229888   4.445   3.380  10.313  1.2272  0.5809 -0.5102
 1898TIP3    H129889   4.441   3.316  10.384  0.6069 -0.4355 -1.4191
 1898TIP3    H229890   4.530   3.423  10.323  1.6017 -0.2992  0.1870
 1899TIP3   OH229891   4.832   3.355  10.817 -0.4581  0.7297  0.0286
 1899TIP3    H129892   4.789   3.331  10.899  0.8368  0.3095  0.6223
 1899TIP3    H229893   4.867   3.442  10.834 -1.6128  1.3560 -0.6856
 1900TIP3   OH229894   7.615   6.042  10.300  0.1326 -0.2075  0.5215
 1900TIP3    H129895   7.587   6.041  10.208 -0.1332  2.8291  0.4834
 1900TIP3    H229896   7.710   6.048  10.296  0.1286 -0.1794  0.4690
 1901TIP3   OH229897   3.624   3.773   8.966  0.3352 -0.1428  0.3733
 1901TIP3    H129898   3.584   3.764   8.880 -0.0430 -0.8036  0.6121
 1901TIP3    H229899   3.553   3.806   9.022  0.6449  0.5260  0.3878
 1902TIP3   OH229900   4.309   2.030   9.122  0.1810 -0.2550  0.1046
 1902TIP3    H129901   4.298   2.112   9.074 -1.9245  0.1815  1.2166
 1902TIP3    H229902   4.341   2.057   9.208 -1.8637 -0.3692  0.9703
 1903TIP3   OH229903   1.707   4.072   8.889 -0.0552  0.6531  0.5172
 1903TIP3    H129904   1.629   4.095   8.839  0.0350  0.5262  0.3204
 1903TIP3    H229905   1.757   4.015   8.831 -0.4095 -0.2844  1.1047
 1904TIP3   OH229906   6.895   1.281  10.757  0.0571 -0.8382 -0.0208
 1904TIP3    H129907   6.855   1.223  10.822  0.3928 -0.5538  0.4458
 1904TIP3    H229908   6.835   1.355  10.751  0.8896  0.0001  1.3085
 1905TIP3   OH229909   4.401   0.814   9.569  0.3567  0.2345  0.1658
 1905TIP3    H129910   4.431   0.776   9.651  1.5412 -0.3793 -0.5336
 1905TIP3    H229911   4.480   0.847   9.527 -0.0350 -0.5720 -1.2850
 1906TIP3   OH229912   5.241   0.771  10.274  0.0653 -0.2676  0.6917
 1906TIP3    H129913   5.188   0.742  10.201 -0.6081 -1.3057  1.5557
 1906TIP3    H229914   5.331   0.773  10.240 -0.3947  0.5937 -0.5117
 1907TIP3   OH229915   7.077   4.299  10.525 -0.0284 -0.4667  0.2874
 1907TIP3    H129916   7.162   4.340  10.542  0.6730 -1.1408 -1.4029
 1907TIP3    H229917   7.013   4.369  10.538  0.6654 -0.1494  2.4063
 1908TIP3   OH229918   3.222   5.405  10.960 -0.3286 -0.0142  0.1543
 1908TIP3    H129919   3.318   5.410  10.954 -0.3001 -0.1402  0.4891
 1908TIP3    H229920   3.195   5.492  10.987 -0.4316  0.4600 -1.3958
 1909TIP3   OH229921   4.173   0.164  10.250 -0.3629 -0.1992 -0.4733
 1909TIP3    H129922   4.256   0.166  10.204 -0.8055 -1.8372 -1.4425
 1909TIP3    H229923   4.129   0.086  10.216 -2.1507  0.4371  0.2587
 1910TIP3   OH229924   6.292   4.068  10.420  0.0421  0.2828 -0.7192
 1910TIP3    H129925   6.358   4.054  10.351  0.5279 -2.9805  0.2338
 1910TIP3    H229926   6.343   4.068  10.501 -0.9645 -1.5299 -0.0227
 1911TIP3   OH229927   1.478   4.137   9.691  0.7532  0.2171 -0.0435
 1911TIP3    H129928   1.428   4.208   9.650 -0.3494 -0.3799  0.2076
 1911TIP3    H229929   1.505   4.171   9.776 -1.8076 -0.3914  1.1129
 1912TIP3   OH229930   7.343   2.336   8.443 -0.5551 -0.4139  0.0268
 1912TIP3    H129931   7.260   2.317   8.400 -1.3387 -1.6191  1.9473
 1912TIP3    H229932   7.391   2.253   8.442  0.2146  0.0199 -0.1745
 1913TIP3   OH229933   6.699   6.966   9.384  0.7068  0.0706 -0.0115
 1913TIP3    H129934   6.778   6.914   9.371  0.5345 -1.0539  2.7568
 1913TIP3    H229935   6.639   6.937   9.315  1.6432 -1.2500 -0.3047
 1914TIP3   OH229936   2.314   7.590   9.383 -0.4210  0.1423  0.0175
 1914TIP3    H129937   2.313   7.662   9.319  1.1667 -0.4434 -0.7104
 1914TIP3    H229938   2.222   7.568   9.394 -0.8241  1.1388 -1.0745
 1915TIP3   OH229939   2.019   5.186   9.401 -0.5242  0.7451 -0.0706
 1915TIP3    H129940   1.996   5.093   9.399  0.3738  0.4694  1.1721
 1915TIP3    H229941   2.089   5.194   9.335 -1.2449  0.7503 -0.8550
 1916TIP3   OH229942   5.963   2.888   9.981 -0.3476 -0.4828  0.6708
 1916TIP3    H129943   6.000   2.959   9.928  0.0411 -2.0773 -1.3202
 1916TIP3    H229944   5.869   2.905   9.981 -0.1266  0.8937  1.5916
 1917TIP3   OH229945   2.191   0.422   9.217 -0.3214  0.0147  0.0564
 1917TIP3    H129946   2.237   0.503   9.238 -1.7681  1.3965 -1.7293
 1917TIP3    H229947   2.111   0.426   9.268 -0.2025 -0.5181  0.2892
 1918TIP3   OH229948   1.057   3.086   8.543 -0.3120  0.1495 -0.0167
 1918TIP3    H129949   0.968   3.107   8.517 -0.3923  1.0769  0.9394
 1918TIP3    H229950   1.097   3.170   8.564  0.6997 -0.2788 -0.1264
 1919TIP3   OH229951   2.428   0.496  10.646 -0.2871 -0.0731  0.2078
 1919TIP3    H129952   2.451   0.485  10.738 -0.4002  0.7315  0.3418
 1919TIP3    H229953   2.434   0.408  10.608  0.9874 -0.2089  0.6926
 1920TIP3   OH229954   0.753   6.351   8.379 -0.2265  0.7713 -0.6373
 1920TIP3    H129955   0.833   6.374   8.332 -0.5341  3.3423 -0.0539
 1920TIP3    H229956   0.782   6.335   8.469 -0.4068  2.6716 -0.1943
 1921TIP3   OH229957   4.103   5.848   9.051 -0.0331  0.1091  0.1460
 1921TIP3    H129958   4.093   5.761   9.014  0.6965 -0.0981  0.4219
 1921TIP3    H229959   4.023   5.894   9.026  1.0142  0.4569 -2.9191
 1922TIP3   OH229960   2.552   2.999  10.433 -0.6747  0.1140  0.3463
 1922TIP3    H129961   2.494   2.927  10.458  0.9066 -0.6268  2.1626
 1922TIP3    H229962   2.638   2.958  10.425 -0.1226  1.4361 -0.8072
 1923TIP3   OH229963   5.992   0.664  10.758  0.0975 -0.0325  0.0051
 1923TIP3    H129964   6.030   0.642  10.674 -0.9632 -1.0965 -0.2142
 1923TIP3    H229965   6.040   0.742  10.786 -0.0606  0.8245 -1.9346
 1924TIP3   OH229966   0.637   0.366   8.655  0.1586 -0.4899 -0.3172
 1924TIP3    H129967   0.634   0.448   8.606 -2.1695 -0.3226  0.0363
 1924TIP3    H229968   0.667   0.302   8.590  0.8690  0.3996 -0.9040
 1925TIP3   OH229969   6.377   2.206  10.565 -0.0776  0.1609  0.1503
 1925TIP3    H129970   6.390   2.227  10.657  1.2519  1.2489 -0.2574
 1925TIP3    H229971   6.417   2.120  10.554  1.1610  0.7022  0.2804
 1926TIP3   OH229972   3.487   2.354  10.945  0.0034  0.6044  0.1253
 1926TIP3    H129973   3.461   2.267  10.916 -1.3314  1.1580 -0.4271
 1926TIP3    H229974   3.574   2.342  10.983  0.6951 -0.6400 -1.7082
 1927TIP3   OH229975   6.223   7.514   9.184  0.4560  0.2477  0.0654
 1927TIP3    H129976   6.218   7.493   9.277  1.6232 -2.1356 -0.3451
 1927TIP3    H229977   6.317   7.529   9.168  0.0972  2.3577 -0.4497
 1928TIP3   OH229978   5.875   1.614  11.094 -0.4417  0.4849  0.2337
 1928TIP3    H129979   5.851   1.572  11.011 -3.1475  2.3387 -0.0562
 1928TIP3    H229980   5.820   1.571  11.159  1.5214 -0.8167  1.1381
 1929TIP3   OH229981   0.057   7.181  10.860 -0.5165  0.0009 -0.1255
 1929TIP3    H129982   0.050   7.233  10.779  0.2302 -0.9997 -0.8627
 1929TIP3    H229983   0.056   7.090  10.830 -1.8080 -0.4381  1.1357
 1930TIP3   OH229984   7.392   6.796  10.739  0.4004 -0.2766  0.4034
 1930TIP3    H129985   7.330   6.790  10.812 -1.0503  0.7416 -0.6870
 1930TIP3    H229986   7.348   6.754  10.666  0.2248  1.9296 -0.8469
 1931TIP3   OH229987   5.416   1.135   8.964  0.2976  0.0636  0.2825
 1931TIP3    H129988   5.419   1.072   8.893  1.6132  0.3090  0.0876
 1931TIP3    H229989   5.464   1.211   8.930  1.4892 -0.0515  1.6356
 1932TIP3   OH229990   5.518   2.150  10.695  0.2286 -0.4981 -0.0700
 1932TIP3    H129991   5.531   2.083  10.762 -0.0111  0.6945  1.2267
 1932TIP3    H229992   5.461   2.214  10.738  0.5521  0.5878 -1.2279
 1933TIP3   OH229993   3.962   7.217  10.721 -0.0021  0.2528 -0.1279
 1933TIP3    H129994   3.900   7.173  10.663 -1.6551 -0.7774  2.2732
 1933TIP3    H229995   4.048   7.190  10.690 -0.9036 -2.8088 -0.2226
 1934TIP3   OH229996   4.576   1.316  10.413 -0.3421 -0.0592 -0.2910
 1934TIP3    H129997   4.617   1.247  10.465 -0.2699  0.7517  0.7549
 1934TIP3    H229998   4.524   1.366  10.477  1.1651  2.0694 -0.6137
 1935TIP3   OH229999   2.033   5.312  10.868 -0.4125  0.2528 -0.6364
 1935TIP3    H130000   1.938   5.324  10.876 -0.7232 -2.6303  1.8970
 1935TIP3    H230001   2.044   5.261  10.788 -0.7420  1.9652 -1.8361
 1936TIP3   OH230002   0.721   5.609  10.087 -0.3018 -0.2635 -0.2534
 1936TIP3    H130003   0.658   5.548  10.124  0.6600 -1.1357 -0.0022
 1936TIP3    H230004   0.737   5.576   9.998 -1.5270  0.9941 -0.9824
 1937TIP3   OH230005   3.865   6.718   9.686  0.2949  0.3072 -0.1355
 1937TIP3    H130006   3.933   6.654   9.709 -0.5100 -0.2854  0.6384
 1937TIP3    H230007   3.907   6.775   9.622  1.7038  0.2674  0.7106
 1938TIP3   OH230008   6.324   1.840  10.119 -0.6444  0.4582  0.4017
 1938TIP3    H130009   6.373   1.779  10.063  0.4655  0.5283  1.2574
 1938TIP3    H230010   6.275   1.783  10.179  0.7396  0.3690  1.4938
 1939TIP3   OH230011   3.674   7.484  11.418  0.3978 -0.0053  0.0733
 1939TIP3    H130012   3.641   7.574  11.418 -0.4118 -0.2122  2.8893
 1939TIP3    H230013   3.766   7.492  11.443  0.7089  0.0904 -1.0365
 1940TIP3   OH230014   2.449   3.594  10.834  0.1128 -0.0006  0.0238
 1940TIP3    H130015   2.486   3.614  10.749  0.2131  2.1587  0.5363
 1940TIP3    H230016   2.395   3.669  10.856 -1.4834 -1.3582  1.0351
 1941TIP3   OH230017   3.425   3.458  10.033  0.4730 -0.1792 -0.0869
 1941TIP3    H130018   3.427   3.520  10.106  1.7874 -1.7548  1.3052
 1941TIP3    H230019   3.333   3.437  10.022 -0.0056  1.9141 -0.5492
 1942TIP3   OH230020   2.446   4.999  10.579  0.4559 -0.0613 -0.7896
 1942TIP3    H130021   2.355   4.980  10.601 -0.0804  0.0988 -2.6924
 1942TIP3    H230022   2.457   4.966  10.490  1.8236  1.2374 -1.1560
 1943TIP3   OH230023   6.870   6.969   8.861 -0.1249 -0.3471 -0.2192
 1943TIP3    H130024   6.910   7.048   8.823 -1.4526  1.7425  2.4156
 1943TIP3    H230025   6.781   6.968   8.826  0.2361 -1.4541 -1.1906
 1944TIP3   OH230026   3.879   6.734   9.222  0.0957  0.2099 -0.3368
 1944TIP3    H130027   3.857   6.786   9.145 -0.0792 -1.3299 -1.3952
 1944TIP3    H230028   3.844   6.647   9.202 -1.3543  0.1141  2.1728
 1945TIP3   OH230029   5.735   2.512   9.348 -0.3477 -0.5254  0.3682
 1945TIP3    H130030   5.797   2.547   9.284 -0.4484 -1.8087 -0.4727
 1945TIP3    H230031   5.789   2.460   9.408 -0.6086 -1.9610 -0.5902
 1946TIP3   OH230032   3.808   1.939   9.272  0.5911  0.5584  0.1478
 1946TIP3    H130033   3.886   1.930   9.218  0.2190  1.5255 -0.5861
 1946TIP3    H230034   3.819   2.024   9.315 -0.0986  0.7514 -0.0503
 1947TIP3   OH230035   7.649   6.767   8.643  0.3542 -0.4586  0.0846
 1947TIP3    H130036   7.639   6.860   8.663 -1.5591 -0.9637  1.8493
 1947TIP3    H230037   7.742   6.756   8.624  0.9762  1.4885  1.7178
 1948TIP3   OH230038   2.594   1.538  10.760 -0.1126 -0.4055  0.2724
 1948TIP3    H130039   2.536   1.614  10.755  0.9244  0.4600  0.9192
 1948TIP3    H230040   2.672   1.565  10.711 -0.2279 -1.5400 -0.5695
 1949TIP3   OH230041   6.770   2.692   9.476  0.3415 -0.0224  0.3025
 1949TIP3    H130042   6.714   2.626   9.435  1.6272 -1.2137  0.3946
 1949TIP3    H230043   6.721   2.720   9.554 -1.1308  0.6654 -0.8271
 1950TIP3   OH230044   7.432   7.642  10.486 -0.2615 -0.6741 -0.9680
 1950TIP3    H130045   7.498   7.578  10.458 -0.9555 -1.7102 -0.3335
 1950TIP3    H230046   7.387   7.666  10.405  0.2613 -0.6879 -1.2692
 1951TIP3   OH230047   4.489   6.303  10.619 -0.1070  0.3288  0.5499
 1951TIP3    H130048   4.475   6.357  10.541 -1.4142  0.6811  0.9922
 1951TIP3    H230049   4.496   6.366  10.691  2.4785  0.0824  0.5953
 1952TIP3   OH230050   7.234   4.651   9.408  0.4931  0.2566  0.5169
 1952TIP3    H130051   7.168   4.597   9.451 -1.3705  1.1475 -1.0811
 1952TIP3    H230052   7.212   4.647   9.315  0.4557  3.4062  0.2768
 1953TIP3   OH230053   4.172   0.475   9.995  0.1822  0.0845  0.2250
 1953TIP3    H130054   4.091   0.446  10.036 -0.7325  0.8573 -0.9756
 1953TIP3    H230055   4.157   0.567   9.976  1.3995  0.2655  0.0974
 1954TIP3   OH230056   6.870   1.676   9.119  0.4800  1.0697 -0.0145
 1954TIP3    H130057   6.847   1.768   9.113  0.3203  0.9519 -1.4503
 1954TIP3    H230058   6.903   1.665   9.208  0.3158  2.4589  0.2285
 1955TIP3   OH230059   0.557   7.586   8.661  0.0557  0.2305 -0.1631
 1955TIP3    H130060   0.648   7.610   8.647 -0.5456  1.5683 -2.2698
 1955TIP3    H230061   0.549   7.499   8.623  0.2385  0.5440 -0.9374
 1956TIP3   OH230062   7.517   4.605  10.483 -0.3612  0.2208 -0.6457
 1956TIP3    H130063   7.577   4.609  10.558  0.6233  0.4878 -1.4188
 1956TIP3    H230064   7.564   4.651  10.413 -2.4884  2.6786 -0.6165
 1957TIP3   OH230065   5.492   0.329   8.951  0.0604 -0.0993  0.0623
 1957TIP3    H130066   5.432   0.399   8.926  0.5975  0.1397 -0.5948
 1957TIP3    H230067   5.455   0.250   8.911  1.3449  0.3997 -2.3522
 1958TIP3   OH230068   6.354   1.538   8.942  0.0943  0.1123 -0.2914
 1958TIP3    H130069   6.426   1.600   8.944  0.3771 -0.2337  1.2097
 1958TIP3    H230070   6.357   1.493   9.026 -1.1978 -0.6917 -0.6266
 1959TIP3   OH230071   6.806   4.061   9.735 -0.5530 -0.1084  0.1666
 1959TIP3    H130072   6.732   4.073   9.795 -1.7949 -3.2588 -0.5394
 1959TIP3    H230073   6.875   4.024   9.790 -0.4720  0.2392  0.3009
 1960TIP3   OH230074   2.066   4.113   9.387  0.2778 -0.0472 -0.4889
 1960TIP3    H130075   2.148   4.066   9.378  0.3833  0.2830 -1.3490
 1960TIP3    H230076   2.070   4.153   9.474  1.3246  0.5156 -0.7840
 1961TIP3   OH230077   2.907   3.007   9.458  0.0679  0.8210  0.0376
 1961TIP3    H130078   2.962   3.060   9.400  2.2728 -1.4979 -0.1422
 1961TIP3    H230079   2.915   2.918   9.425 -1.3402 -0.0679  1.9145
 1962TIP3   OH230080   3.651   2.952   8.741  0.5696 -0.1387  0.5385
 1962TIP3    H130081   3.659   2.883   8.676  0.7905 -0.2008  0.6329
 1962TIP3    H230082   3.706   3.023   8.708 -0.8045  0.5688 -0.3120
 1963TIP3   OH230083   5.315   5.734   9.381 -0.4165  0.2885  0.9120
 1963TIP3    H130084   5.385   5.680   9.345  0.4044  1.7965  0.1317
 1963TIP3    H230085   5.360   5.802   9.431 -1.3309  0.9849  0.8292
 1964TIP3   OH230086   0.838   5.350   9.135 -0.0905 -0.4348 -0.1263
 1964TIP3    H130087   0.780   5.331   9.209 -1.7437 -0.1288 -1.3053
 1964TIP3    H230088   0.850   5.266   9.091  0.3206 -0.4811  0.0647
 1965TIP3   OH230089   3.737   2.069  10.386 -0.1117 -0.4319  0.0011
 1965TIP3    H130090   3.683   2.128  10.440 -0.9969 -0.5025 -0.7779
 1965TIP3    H230091   3.796   2.027  10.448  2.0155  2.7450  0.3758
 1966TIP3   OH230092   0.212   6.444   8.671  0.2769  0.1370  0.6705
 1966TIP3    H130093   0.146   6.446   8.603  0.0310  0.4028  0.9157
 1966TIP3    H230094   0.239   6.352   8.676  0.9884  0.2687 -0.4347
 1967TIP3   OH230095   2.930   2.823  10.218  0.1897 -0.0184  0.4569
 1967TIP3    H130096   3.009   2.811  10.272 -0.0655  0.4522  0.9438
 1967TIP3    H230097   2.957   2.794  10.130 -0.0376 -2.9880  1.2554
 1968TIP3   OH230098   2.760   0.165   8.197  0.9347 -0.3362 -0.1968
 1968TIP3    H130099   2.683   0.110   8.182 -1.3133  2.8330 -1.3793
 1968TIP3    H230100   2.770   0.167   8.292  0.9845 -2.4763 -0.0980
 1969TIP3   OH230101   3.627   4.840   9.823  0.4004  0.3805  0.4605
 1969TIP3    H130102   3.679   4.915   9.795  0.3782  0.4244  0.5385
 1969TIP3    H230103   3.675   4.764   9.790 -0.9294  0.4933 -1.9796
 1970TIP3   OH230104   3.850   6.273   8.835 -0.0394  0.2465  0.1351
 1970TIP3    H130105   3.930   6.279   8.887 -0.9230  0.0299  1.6136
 1970TIP3    H230106   3.876   6.297   8.746  1.7492 -0.3453  0.4663
 1971TIP3   OH230107   3.463   6.072   9.007  0.3093  0.3578 -0.3378
 1971TIP3    H130108   3.387   6.017   9.024  1.2078 -0.5699  0.8846
 1971TIP3    H230109   3.496   6.094   9.094  2.9084 -1.3784 -0.7652
 1972TIP3   OH230110   1.498   5.396   9.841 -0.0275 -0.2887 -0.0192
 1972TIP3    H130111   1.566   5.353   9.789 -1.8678 -2.2478 -0.9725
 1972TIP3    H230112   1.462   5.463   9.783  0.2320 -0.1203  0.0145
 1973TIP3   OH230113   3.981   6.395  10.180  0.2888 -0.2198  0.1250
 1973TIP3    H130114   4.012   6.471  10.130  0.0218 -0.6405 -0.6978
 1973TIP3    H230115   3.886   6.407  10.184  0.2528 -0.4805  0.0442
 1974TIP3   OH230116   0.449   0.409  10.916 -0.5391  0.0966  0.1416
 1974TIP3    H130117   0.415   0.420  11.005  0.8994  1.3169  0.5835
 1974TIP3    H230118   0.376   0.370  10.867 -1.6626  0.2322  1.6325
 1975TIP3   OH230119   5.566   6.144  10.726 -0.3359 -0.0989  0.1329
 1975TIP3    H130120   5.528   6.218  10.773 -0.0966  1.0403 -1.3839
 1975TIP3    H230121   5.525   6.147  10.640  3.4574  1.6460 -1.9002
 1976TIP3   OH230122   0.656   1.359   9.987 -0.1107  0.3665 -0.4277
 1976TIP3    H130123   0.626   1.275  10.020  1.2218  0.9240  2.4751
 1976TIP3    H230124   0.702   1.338   9.906 -1.3904 -1.3994 -0.7649
 1977TIP3   OH230125   6.641   1.873   9.678  0.6560  0.1868 -0.2705
 1977TIP3    H130126   6.615   1.908   9.593  0.1008 -0.3881 -0.3415
 1977TIP3    H230127   6.619   1.942   9.741 -0.7458 -0.1453 -0.3653
 1978TIP3   OH230128   6.670   1.810  10.285  0.2141 -0.8815 -0.4912
 1978TIP3    H130129   6.632   1.731  10.245 -0.0536 -1.3835  0.7183
 1978TIP3    H230130   6.743   1.833  10.227  0.1377 -1.8635 -1.0056
 1979TIP3   OH230131   5.936   4.706  10.210 -0.2744  0.0948  0.2883
 1979TIP3    H130132   5.989   4.748  10.278  1.1773 -0.1116 -0.6856
 1979TIP3    H230133   5.903   4.626  10.252  2.6517 -1.3467  0.0739
 1980TIP3   OH230134   2.182   3.312   9.754  0.4151  0.1978  0.0934
 1980TIP3    H130135   2.218   3.339   9.670 -1.3851  0.0946 -0.7588
 1980TIP3    H230136   2.241   3.243   9.785  0.7950 -0.1480 -1.3509
 1981TIP3   OH230137   0.928   2.292   9.581 -0.0937  0.6616  0.2604
 1981TIP3    H130138   0.853   2.325   9.630 -0.3287  0.7878 -0.1838
 1981TIP3    H230139   0.978   2.241   9.645  0.2071  1.7593  0.9336
 1982TIP3   OH230140   4.045   3.453  10.179  0.0391 -0.7198  0.7828
 1982TIP3    H130141   4.029   3.429  10.270 -0.7816 -1.1123  0.5393
 1982TIP3    H230142   4.136   3.427  10.163  0.4703  0.1080  1.7223
 1983TIP3   OH230143   2.565   5.547  10.408  0.2251  0.8634 -0.0894
 1983TIP3    H130144   2.623   5.623  10.410 -0.2111  1.2051  1.5242
 1983TIP3    H230145   2.619   5.474  10.440 -0.2652  1.2621  1.8016
 1984TIP3   OH230146   3.459   6.445  10.593  0.2576 -0.4763 -0.0650
 1984TIP3    H130147   3.446   6.501  10.516 -1.1987 -1.7491 -0.7817
 1984TIP3    H230148   3.427   6.498  10.667 -0.0421  0.0670 -0.5772
 1985TIP3   OH230149   2.878   4.068   8.506  0.1204  0.6159  0.1855
 1985TIP3    H130150   2.905   4.114   8.427  0.8555 -1.3970 -0.7863
 1985TIP3    H230151   2.892   4.132   8.576  1.6351  1.6796 -1.0123
 1986TIP3   OH230152   5.505   6.392   9.453 -0.2473  0.1335 -0.2225
 1986TIP3    H130153   5.488   6.352   9.368 -0.9684 -1.9773  0.8266
 1986TIP3    H230154   5.434   6.455   9.465 -0.3420  0.1900 -1.0474
 1987TIP3   OH230155   7.369   0.371  10.816  0.3778  0.6417 -0.4399
 1987TIP3    H130156   7.283   0.407  10.796  0.7089  0.8009 -1.6982
 1987TIP3    H230157   7.395   0.325  10.736  1.6903  1.0692 -0.2882
 1988TIP3   OH230158   4.823   5.648  10.774 -0.5202 -0.2664 -0.1582
 1988TIP3    H130159   4.809   5.637  10.680  0.4963 -2.4239 -0.1217
 1988TIP3    H230160   4.819   5.559  10.810  2.3401  0.0946  1.3398
 1989TIP3   OH230161   4.024   0.329  10.632  0.1491  0.0238 -0.6233
 1989TIP3    H130162   3.942   0.338  10.681  0.4081  0.3370 -0.2364
 1989TIP3    H230163   4.054   0.419  10.619  1.3778 -0.1211  0.8742
 1990TIP3   OH230164   5.861   6.632  11.070 -0.3508 -0.7279  0.4733
 1990TIP3    H130165   5.773   6.616  11.036 -0.1890 -1.9186  0.5801
 1990TIP3    H230166   5.876   6.725  11.055 -0.2307 -1.1644 -2.9439
 1991TIP3   OH230167   5.860   6.234   9.700  0.0541 -0.2886 -0.1543
 1991TIP3    H130168   5.794   6.303   9.710  0.0560 -0.1920 -0.7846
 1991TIP3    H230169   5.854   6.183   9.781 -3.2577 -2.4491 -1.6004
 1992TIP3   OH230170   6.653   0.263   9.556 -0.6902 -0.1058 -0.0196
 1992TIP3    H130171   6.649   0.328   9.486  3.3474 -0.3881 -0.7230
 1992TIP3    H230172   6.632   0.180   9.512  0.4413 -0.0859 -0.6350
 1993TIP3   OH230173   7.018   6.745   9.028  1.1103 -0.4423  0.2132
 1993TIP3    H130174   6.948   6.710   8.973  0.3791  0.5842  0.4739
 1993TIP3    H230175   7.083   6.776   8.965 -0.0422  1.3833 -0.1439
 1994TIP3   OH230176   4.568   1.773  10.357 -0.0440  0.0073 -0.3442
 1994TIP3    H130177   4.660   1.758  10.377 -0.4131 -0.8749  0.7968
 1994TIP3    H230178   4.526   1.783  10.443 -0.9782  0.6113 -0.8519
 1995TIP3   OH230179   4.106   6.343   8.683 -0.0139  0.2355 -0.5085
 1995TIP3    H130180   4.135   6.251   8.686 -2.8888 -0.8135 -1.1523
 1995TIP3    H230181   4.186   6.394   8.679  1.8759 -2.0559  2.9961
 1996TIP3   OH230182   1.333   0.027   8.634  0.3767 -0.2329 -0.5154
 1996TIP3    H130183   1.243  -0.004   8.626 -0.3451  0.9385  2.1052
 1996TIP3    H230184   1.387  -0.048   8.608 -1.3225 -0.9559 -2.1235
 1997TIP3   OH230185   1.935   3.917   9.793  0.2710  0.4394 -0.6100
 1997TIP3    H130186   1.858   3.923   9.851 -1.5889 -2.9009 -2.4594
 1997TIP3    H230187   1.969   3.828   9.807  1.3092  0.4321 -2.7908
 1998TIP3   OH230188   2.277   2.774   8.993 -0.3573  0.2781  0.4889
 1998TIP3    H130189   2.231   2.709   8.941 -0.6437 -0.0825  1.1747
 1998TIP3    H230190   2.263   2.856   8.947 -1.2370  0.0864  0.3859
 1999TIP3   OH230191   5.624   0.364  10.017  0.4832 -0.2188  0.3755
 1999TIP3    H130192   5.629   0.330   9.927 -1.9428  0.2918 -0.0056
 1999TIP3    H230193   5.701   0.421  10.025  1.5045 -1.3430 -0.8788
 2000TIP3   OH230194   6.580   3.441   8.543  0.0428 -0.3348  0.3268
 2000TIP3    H130195   6.633   3.519   8.559 -0.6983 -0.1341  1.9927
 2000TIP3    H230196   6.502   3.473   8.497  0.1744 -0.2489  0.1608
 2001TIP3   OH230197   5.907   5.357   9.882  0.0703  0.2731  0.3722
 2001TIP3    H130198   5.883   5.271   9.846  2.0883 -0.6110  1.0297
 2001TIP3    H230199   5.864   5.360   9.967 -0.5734  0.2228  0.0552
 2002TIP3   OH230200   6.775   7.474   9.647 -0.0074 -0.4761  0.4011
 2002TIP3    H130201   6.707   7.407   9.657 -1.6476  0.9974 -0.3403
 2002TIP3    H230202   6.752   7.519   9.566  2.8191 -0.9291 -0.7469
 2003TIP3   OH230203   0.321   5.366   9.798 -0.2062 -0.2840 -0.0408
 2003TIP3    H130204   0.273   5.362   9.880 -1.1400 -0.3279 -0.5839
 2003TIP3    H230205   0.320   5.459   9.774  2.0000  0.1271  1.0927
 2004TIP3   OH230206   2.928   6.830   9.089 -0.2710  0.2768  1.1137
 2004TIP3    H130207   2.969   6.834   9.176 -0.0608 -0.1668  1.0365
 2004TIP3    H230208   2.862   6.900   9.091 -2.2266 -1.4657  2.6518
 2005TIP3   OH230209   3.660   6.868  10.996 -0.0156 -0.1075  0.0364
 2005TIP3    H130210   3.598   6.860  10.924 -0.6610 -0.8314  0.6441
 2005TIP3    H230211   3.727   6.802  10.977  0.3546  0.3908 -0.4088
 2006TIP3   OH230212   5.197   5.924  10.030 -0.2876  0.5998  0.6256
 2006TIP3    H130213   5.103   5.918  10.049 -0.4571  0.0995 -0.2853
 2006TIP3    H230214   5.207   6.010   9.988 -0.5310  0.2421 -0.1970
 2007TIP3   OH230215   0.210   6.928   9.160  0.0529 -0.3098 -0.6353
 2007TIP3    H130216   0.228   6.961   9.072 -0.2848  3.4060  0.5087
 2007TIP3    H230217   0.122   6.962   9.180 -0.1534 -1.6517  0.9095
 2008TIP3   OH230218   4.094   4.081  10.310 -0.0161  0.6620 -0.7571
 2008TIP3    H130219   4.069   4.090  10.218 -0.0958 -0.0360 -0.8116
 2008TIP3    H230220   4.111   4.171  10.339 -0.2751  0.9182 -1.3697
 2009TIP3   OH230221   2.677   3.297  10.693  0.1493 -0.1485 -0.0219
 2009TIP3    H130222   2.771   3.289  10.674  0.1817  0.7032 -0.3037
 2009TIP3    H230223   2.657   3.225  10.752  0.7319 -1.0390 -0.8953
 2010TIP3   OH230224   3.244   3.977  10.980  0.2260 -0.0746  0.4553
 2010TIP3    H130225   3.222   4.046  11.042  2.6148 -1.1274  2.6634
 2010TIP3    H230226   3.319   4.011  10.932 -0.0406 -0.2692 -0.1171
 2011TIP3   OH230227   0.274   0.457   9.258  0.0340 -0.0214  0.4432
 2011TIP3    H130228   0.324   0.537   9.273  1.1726 -0.4718 -0.7611
 2011TIP3    H230229   0.218   0.449   9.336 -0.4260  2.1336  0.3937
 2012TIP3   OH230230   0.625   3.757  10.251  0.5930  0.6659  0.0671
 2012TIP3    H130231   0.581   3.690  10.304 -0.7432  1.9662  0.6628
 2012TIP3    H230232   0.627   3.719  10.163 -0.1093 -0.1885  0.4026
 2013TIP3   OH230233   0.945   0.170  10.765  0.5469 -0.4760  0.5784
 2013TIP3    H130234   0.977   0.090  10.723  0.7307  1.0155 -2.3635
 2013TIP3    H230235   0.967   0.240  10.704  1.7041  2.0962  3.6740
 2014TIP3   OH230236   2.843   1.638   8.486 -0.0453  0.6249 -0.5136
 2014TIP3    H130237   2.809   1.653   8.398 -0.3933 -0.3261 -0.5594
 2014TIP3    H230238   2.932   1.605   8.472 -0.2416  0.0868 -0.5415
 2015TIP3   OH230239   2.621   0.251  10.011  0.1439  0.3579 -0.5779
 2015TIP3    H130240   2.612   0.160  10.038  1.2712  0.3984 -0.0218
 2015TIP3    H230241   2.567   0.300  10.074  1.3169  0.2757  0.5347
 2016TIP3   OH230242   4.447   3.844  10.502 -0.9125 -0.1339  0.7317
 2016TIP3    H130243   4.501   3.805  10.570 -0.6768  2.9055  2.4664
 2016TIP3    H230244   4.487   3.815  10.420  0.0863 -2.1775  1.8590
 2017TIP3   OH230245   0.417   7.238  10.992  0.4423 -1.0326 -0.2253
 2017TIP3    H130246   0.476   7.312  10.979  0.9332 -1.3683  0.0602
 2017TIP3    H230247   0.474   7.161  10.992  0.1461 -1.2837  1.0627
 2018TIP3   OH230248   1.171   7.604   9.227 -0.0342 -0.1828 -0.2739
 2018TIP3    H130249   1.217   7.557   9.297 -0.3266 -0.3744 -0.2100
 2018TIP3    H230250   1.227   7.590   9.150  1.4637  1.9044  0.3695
 2019TIP3   OH230251   6.130   5.891   8.256 -0.0020  0.6189 -0.0288
 2019TIP3    H130252   6.183   5.963   8.289  0.9829 -0.4407  0.7760
 2019TIP3    H230253   6.054   5.934   8.216  0.4462  2.0790  0.6066
 2020TIP3   OH230254   1.261   7.354   9.798 -0.1431  0.0397 -0.5090
 2020TIP3    H130255   1.222   7.268   9.814 -0.9978  0.2944 -1.1541
 2020TIP3    H230256   1.249   7.369   9.705  2.7620 -0.4497 -1.0618
 2021TIP3   OH230257   2.502   2.316  10.167  0.3328  0.4007  0.5460
 2021TIP3    H130258   2.513   2.409  10.189 -2.0199  1.1243 -0.9380
 2021TIP3    H230259   2.522   2.311  10.073 -0.7525 -0.3204  0.3297
 2022TIP3   OH230260   2.203   2.421  10.862  0.1028 -0.6290  0.1292
 2022TIP3    H130261   2.265   2.472  10.915  0.6187  0.1156 -1.1418
 2022TIP3    H230262   2.138   2.484  10.833 -0.3810 -1.1026  0.1637
 2023TIP3   OH230263   0.097   3.688  10.962 -0.1518  0.0142 -0.1328
 2023TIP3    H130264   0.173   3.637  10.991 -0.1690  0.2021  0.2511
 2023TIP3    H230265   0.023   3.649  11.007 -0.3634 -0.4925 -0.8984
 2024TIP3   OH230266   4.179   5.443   9.485 -0.4773 -0.3564 -0.3095
 2024TIP3    H130267   4.241   5.407   9.547 -1.7767 -2.0672  0.0748
 2024TIP3    H230268   4.182   5.538   9.499  2.1035 -0.3718 -0.4359
 2025TIP3   OH230269   5.435   5.923  10.317 -0.7638 -0.4140 -0.1119
 2025TIP3    H130270   5.523   5.907  10.284 -0.5205  1.1058 -0.2242
 2025TIP3    H230271   5.415   5.845  10.370  0.5681 -0.8360 -0.2049
 2026TIP3   OH230272   5.070   5.717  10.758  0.2647  0.0742  0.2933
 2026TIP3    H130273   4.978   5.691  10.761  0.7047 -1.7232 -0.3752
 2026TIP3    H230274   5.105   5.673  10.681  1.6891  0.7186  0.5411
 2027TIP3   OH230275   7.399   0.853  10.096 -0.4106 -0.6610 -0.2065
 2027TIP3    H130276   7.338   0.792  10.137 -0.3878 -0.2320  0.4723
 2027TIP3    H230277   7.480   0.842  10.144 -0.2466 -0.4843 -0.4378
 2028TIP3   OH230278   4.350   3.919   9.437  1.0120  0.3638 -0.4974
 2028TIP3    H130279   4.322   4.010   9.451  0.2333  0.2306 -1.0961
 2028TIP3    H230280   4.374   3.888   9.524 -2.0329  0.0946  0.3689
 2029TIP3   OH230281   1.893   7.180   9.150  0.1478 -0.4628 -0.2755
 2029TIP3    H130282   1.953   7.227   9.208 -0.7393  0.8242 -0.3567
 2029TIP3    H230283   1.919   7.088   9.158  0.0073 -0.3599  2.2340
 2030TIP3   OH230284   3.046   0.717  10.717 -0.4049 -0.2833  0.8963
 2030TIP3    H130285   3.073   0.783  10.654  0.2201 -0.2913  1.1481
 2030TIP3    H230286   3.125   0.698  10.768 -0.3355 -1.8083  0.2986
 2031TIP3   OH230287   3.370   6.384   8.671  0.1691  0.1350 -0.1461
 2031TIP3    H130288   3.302   6.317   8.670 -1.5190  1.7844 -0.1722
 2031TIP3    H230289   3.434   6.352   8.734 -0.8712 -1.2293  0.2618
 2032TIP3   OH230290   5.550   1.867  11.043 -0.4688  0.0521 -0.6560
 2032TIP3    H130291   5.460   1.840  11.059 -0.0833 -0.6723  0.3719
 2032TIP3    H230292   5.550   1.962  11.056 -1.0008  0.0051 -0.2842
 2033TIP3   OH230293   0.877   3.860   8.490  0.4839  0.1372 -0.3004
 2033TIP3    H130294   0.868   3.935   8.432 -0.4507  1.1829  1.1227
 2033TIP3    H230295   0.813   3.797   8.456 -2.2178  1.8771  1.1925
 2034TIP3   OH230296   2.295   0.295   9.019 -0.0893 -0.4263  0.4336
 2034TIP3    H130297   2.255   0.364   9.071 -1.7452  0.2028 -1.5580
 2034TIP3    H230298   2.225   0.232   9.004  0.7194 -1.2833  0.1334
 2035TIP3   OH230299   6.900   3.544   8.833  0.3054  0.3915  0.6766
 2035TIP3    H130300   6.968   3.572   8.894  2.0534  0.4364 -1.1945
 2035TIP3    H230301   6.925   3.454   8.808  0.4295  0.8361 -0.9470
 2036TIP3   OH230302   3.594   4.432   8.968 -0.3517  0.5860 -0.2015
 2036TIP3    H130303   3.601   4.352   8.916 -1.4154  0.4588 -0.1776
 2036TIP3    H230304   3.593   4.402   9.059  0.6495  0.7420 -0.1328
 2037TIP3   OH230305   4.473   4.492   9.296  0.0993 -0.4627 -0.0491
 2037TIP3    H130306   4.523   4.454   9.224 -0.4793 -0.3501 -0.5075
 2037TIP3    H230307   4.536   4.549   9.341  1.1461 -2.2886  0.9539
 2038TIP3   OH230308   0.911   0.831   9.224 -0.0987  0.0625  0.4224
 2038TIP3    H130309   0.838   0.841   9.163 -0.3620 -2.5877  0.1893
 2038TIP3    H230310   0.946   0.920   9.235 -1.5302  0.9597 -1.7007
 2039TIP3   OH230311   1.952   5.741  10.156 -1.1570  0.3837  0.2648
 2039TIP3    H130312   1.924   5.705  10.240 -1.4719 -2.0554 -0.8063
 2039TIP3    H230313   1.948   5.836  10.168  0.7723  0.1835  3.6323
 2040TIP3   OH230314   6.525   0.917  10.762  0.2158  0.3964  0.1112
 2040TIP3    H130315   6.537   0.886  10.672  0.6353  0.9561 -0.0328
 2040TIP3    H230316   6.546   0.841  10.817  0.8488  0.3080 -0.2457
 2041TIP3   OH230317   1.857   5.025  10.727  0.6245  0.9527  0.8124
 2041TIP3    H130318   1.849   5.113  10.689 -0.9710  0.4717 -0.0509
 2041TIP3    H230319   1.936   4.989  10.687 -1.1861  0.3056 -2.6069
 2042TIP3   OH230320   5.997   2.096  10.758  0.2978 -0.1730 -0.8753
 2042TIP3    H130321   6.039   2.083  10.672  0.8921 -4.3270 -0.1840
 2042TIP3    H230322   6.069   2.088  10.821 -0.5515 -0.1923  0.1195
 2043TIP3   OH230323   3.158   6.871  10.014  0.4051 -0.1662 -0.1784
 2043TIP3    H130324   3.085   6.808  10.010 -0.5641  0.9379 -0.5246
 2043TIP3    H230325   3.235   6.819   9.993 -0.2990 -1.3380 -0.0080
 2044TIP3   OH230326   0.252   3.957  10.043  0.3446 -0.2966  0.2012
 2044TIP3    H130327   0.254   3.937   9.949 -1.2704  0.1210  0.0510
 2044TIP3    H230328   0.259   3.872  10.086 -0.4321 -0.6416 -0.3292
 2045TIP3   OH230329   4.009   4.260  10.034  0.4395 -0.6400 -0.1376
 2045TIP3    H130330   4.015   4.164  10.030 -0.5895 -0.6683 -1.3640
 2045TIP3    H230331   4.089   4.291   9.992  0.0988 -0.9771 -1.0592
 2046TIP3   OH230332   3.851   4.595  10.044 -0.1374  0.6978 -0.1837
 2046TIP3    H130333   3.758   4.574  10.050  0.2212 -0.5678  2.1895
 2046TIP3    H230334   3.885   4.536   9.977 -0.5431 -1.0148  1.0548
 2047TIP3   OH230335   4.702   6.907   9.685 -0.5383 -0.7875  0.3398
 2047TIP3    H130336   4.658   6.974   9.632 -0.1553 -0.5137  0.3545
 2047TIP3    H230337   4.769   6.956   9.732 -0.7076 -1.0764  0.8806
 2048TIP3   OH230338   5.083   0.431  11.219 -0.3215 -0.1036  0.0083
 2048TIP3    H130339   5.030   0.484  11.160  0.8597  0.7732 -0.2932
 2048TIP3    H230340   5.169   0.472  11.219 -0.2365 -0.1171  2.2631
 2049TIP3   OH230341   3.635   6.358   9.936  0.0816 -0.1345  0.2374
 2049TIP3    H130342   3.592   6.273   9.925 -1.1884  0.7337 -2.2443
 2049TIP3    H230343   3.565   6.418   9.962  0.2421  0.8158 -1.4193
 2050TIP3   OH230344   5.499   7.145   9.439  0.2453  0.0357 -0.0132
 2050TIP3    H130345   5.481   7.112   9.351  1.1981  1.2148 -0.6807
 2050TIP3    H230346   5.484   7.239   9.434  0.0394  0.0885  1.1687
 2051TIP3   OH230347   3.374   0.697  10.447  0.4510  0.2984 -0.0998
 2051TIP3    H130348   3.321   0.721  10.523 -1.9542  0.2599 -1.6572
 2051TIP3    H230349   3.330   0.619  10.411  1.0732  0.7465 -1.9263
 2052TIP3   OH230350   5.669   1.656  10.215  0.1760 -0.4274 -0.3871
 2052TIP3    H130351   5.711   1.708  10.147 -1.2139  0.8255 -0.3516
 2052TIP3    H230352   5.735   1.592  10.242  1.7527  0.9417 -0.8481
 2053TIP3   OH230353   4.363   6.912   9.082 -0.0933  0.0706 -0.2058
 2053TIP3    H130354   4.299   6.841   9.080  1.0584 -1.0012 -0.7520
 2053TIP3    H230355   4.343   6.965   9.005 -1.7604  1.1136  0.8930
 2054TIP3   OH230356   3.834   7.553  10.359 -0.1451 -0.2296 -0.0003
 2054TIP3    H130357   3.852   7.627  10.416 -1.2559 -0.8361  1.2027
 2054TIP3    H230358   3.855   7.584  10.271 -1.3853  1.8024  0.3600
 2055TIP3   OH230359   4.333   0.593   8.568 -0.1326  0.3801 -0.1181
 2055TIP3    H130360   4.415   0.547   8.550 -0.8072 -1.4700  1.2249
 2055TIP3    H230361   4.266   0.542   8.522 -0.7152  0.9535  0.0789
 2056TIP3   OH230362   3.344   1.011   9.997 -0.1044 -0.1788 -0.2329
 2056TIP3    H130363   3.344   1.099   9.961  1.1100 -0.0701 -0.0165
 2056TIP3    H230364   3.363   1.022  10.090  1.4548 -0.7214 -0.4501
 2057TIP3   OH230365   2.745   1.570   9.285 -0.1399 -0.0155 -0.6291
 2057TIP3    H130366   2.729   1.647   9.231 -0.5646 -0.1226 -0.6613
 2057TIP3    H230367   2.730   1.496   9.226  0.4762 -0.1202 -0.6554
 2058TIP3   OH230368   5.342   6.488   9.758 -0.1748 -0.7790 -0.3113
 2058TIP3    H130369   5.341   6.518   9.849 -0.2411  0.2299 -0.6321
 2058TIP3    H230370   5.279   6.545   9.714  0.8433 -0.3537 -1.2593
 2059TIP3   OH230371   4.783   0.924   8.561  0.3993 -0.0149 -0.9164
 2059TIP3    H130372   4.779   0.830   8.542 -1.6079 -0.0632 -0.4984
 2059TIP3    H230373   4.876   0.945   8.562  0.8396 -1.5907 -2.9937
 2060TIP3   OH230374   6.815   1.982   8.886 -0.7271 -1.2337  0.1073
 2060TIP3    H130375   6.881   2.013   8.948 -1.6164  0.2316  0.3801
 2060TIP3    H230376   6.838   2.025   8.804 -1.9263  0.1977  0.4688
 2061TIP3   OH230377   3.000   3.162  11.322 -0.2589 -0.2782 -0.1828
 2061TIP3    H130378   3.008   3.067  11.334  0.4299 -0.2641 -0.4904
 2061TIP3    H230379   3.044   3.200  11.398 -2.7431 -0.1858  1.2933
 2062TIP3   OH230380   1.802   6.502   9.405  0.1194 -0.0013  0.0749
 2062TIP3    H130381   1.781   6.481   9.496  1.6796  0.2287  0.5135
 2062TIP3    H230382   1.793   6.597   9.399 -0.2757 -0.0477 -0.0934
 2063TIP3   OH230383   6.109   7.639  10.746  0.1197 -0.4573  0.2600
 2063TIP3    H130384   6.109   7.708  10.812  0.6138 -0.9268  0.7605
 2063TIP3    H230385   6.053   7.672  10.677  1.1688  0.9144  0.0154
 2064TIP3   OH230386   2.943   1.547  10.706 -0.0749  0.4746 -0.4794
 2064TIP3    H130387   2.917   1.619  10.763 -1.0515  1.1047 -1.6861
 2064TIP3    H230388   3.039   1.554  10.700  0.1405 -0.0180  1.5814
 2065TIP3   OH230389   3.549   4.799  10.097  0.4594  0.0718 -0.0785
 2065TIP3    H130390   3.565   4.707  10.080  1.2828  0.3443 -0.8179
 2065TIP3    H230391   3.581   4.845  10.019  0.5062  1.0214  0.4780
 2066TIP3   OH230392   3.784   6.079  11.138  0.3203  0.1214  0.1798
 2066TIP3    H130393   3.738   6.108  11.060  0.6829 -0.3145 -0.2000
 2066TIP3    H230394   3.747   6.132  11.209  0.3472  0.8795 -0.3596
 2067TIP3   OH230395   1.256   4.660  10.781 -0.2753  0.0963 -0.3261
 2067TIP3    H130396   1.292   4.649  10.693 -1.1841  1.8143 -0.9660
 2067TIP3    H230397   1.303   4.597  10.834  2.0957  0.7200 -1.5427
 2068TIP3   OH230398   3.170   2.443   8.673  0.2409  0.0765  0.2516
 2068TIP3    H130399   3.200   2.531   8.650 -0.7397  0.3485 -0.0419
 2068TIP3    H230400   3.075   2.446   8.660  0.4121 -1.7176 -2.2167
 2069TIP3   OH230401   6.472   6.623   8.699 -0.3128 -0.5222 -0.2319
 2069TIP3    H130402   6.481   6.671   8.781 -0.3934 -0.1059 -0.4637
 2069TIP3    H230403   6.561   6.620   8.663 -0.2144 -1.0218  0.0423
 2070TIP3   OH230404   0.335   0.863   9.011  0.5075  0.0217  0.4443
 2070TIP3    H130405   0.377   0.937   9.056 -0.1781  2.3721 -2.4392
 2070TIP3    H230406   0.385   0.853   8.930 -0.3723 -1.7142  0.0799
 2071TIP3   OH230407   6.816   2.241   9.794 -0.3581 -0.3460  0.3604
 2071TIP3    H130408   6.753   2.169   9.795 -0.7117 -0.0457  0.1834
 2071TIP3    H230409   6.763   2.319   9.812  0.0097 -0.1223  0.4952
 2072TIP3   OH230410   7.285   3.795   9.156  0.3858 -0.2069  0.5877
 2072TIP3    H130411   7.252   3.882   9.181  0.6716 -0.4539  1.9193
 2072TIP3    H230412   7.218   3.734   9.190  0.0599 -0.5076 -0.5568
 2073TIP3   OH230413   2.891   1.138   9.558 -0.4069 -0.2556 -0.1886
 2073TIP3    H130414   2.954   1.147   9.629 -1.2502 -0.2382  0.5705
 2073TIP3    H230415   2.807   1.162   9.596 -0.7287  0.7532 -1.4597
 2074TIP3   OH230416   4.823   5.276  10.548  0.3930 -0.7200 -0.1214
 2074TIP3    H130417   4.822   5.309  10.638  0.1534 -3.7659  1.1247
 2074TIP3    H230418   4.736   5.238  10.536 -0.3135  1.3558 -2.4493
 2075TIP3   OH230419   4.624   1.858  10.069 -0.1702 -0.0066 -0.1570
 2075TIP3    H130420   4.705   1.904  10.088 -0.8224  0.5654  1.4243
 2075TIP3    H230421   4.585   1.842  10.155 -1.3854 -0.9056 -0.8434
 2076TIP3   OH230422   4.585   0.517  10.742  0.5080  0.2655  0.3199
 2076TIP3    H130423   4.647   0.587  10.765  0.6632  0.2691 -0.1049
 2076TIP3    H230424   4.538   0.499  10.824 -1.5141  2.8122 -0.1499
 2077TIP3   OH230425   4.418   6.849   9.830 -0.0069 -0.9197 -0.4456
 2077TIP3    H130426   4.398   6.859   9.737 -0.1322 -1.1283 -0.4399
 2077TIP3    H230427   4.502   6.802   9.832 -0.2168 -1.2920 -0.4451
 2078TIP3   OH230428   5.878   4.344   8.413 -0.0655 -0.0453  0.7383
 2078TIP3    H130429   5.961   4.307   8.443  0.2109  0.2837  0.3877
 2078TIP3    H230430   5.897   4.437   8.399 -0.4439 -0.0056  0.4753
 2079TIP3   OH230431   4.090   3.090  10.794  0.1992  0.6070 -0.0316
 2079TIP3    H130432   4.180   3.099  10.826  0.1570  0.4498  0.1341
 2079TIP3    H230433   4.098   3.037  10.715  0.0459 -1.1693  1.0890
 2080TIP3   OH230434   1.404   6.819  11.084 -1.0895 -0.4204 -0.5285
 2080TIP3    H130435   1.465   6.842  11.014  1.1615 -1.3857  1.0073
 2080TIP3    H230436   1.402   6.723  11.083 -2.5147 -0.4234 -0.4251
 2081TIP3   OH230437   5.436   4.268  10.324  0.2366 -0.4139  0.2684
 2081TIP3    H130438   5.374   4.318  10.378 -0.1006 -1.3394  0.7704
 2081TIP3    H230439   5.521   4.280  10.368  0.6374  1.5598 -0.8997
 2082TIP3   OH230440   0.699   1.130   9.179  0.2831 -0.0365 -0.5129
 2082TIP3    H130441   0.667   1.147   9.268 -2.1694 -2.4295 -0.7753
 2082TIP3    H230442   0.791   1.108   9.191 -0.0470 -0.6057  1.5357
 2083TIP3   OH230443   3.782   6.471   9.153 -0.0228 -0.2057  0.0371
 2083TIP3    H130444   3.798   6.378   9.140  0.1853 -0.0178 -1.1185
 2083TIP3    H230445   3.687   6.479   9.154 -0.0504 -0.2654 -1.1947
 2084TIP3   OH230446   4.158   0.839   8.776  0.2058 -0.1611  0.4640
 2084TIP3    H130447   4.244   0.853   8.815  0.7255 -0.0928 -0.6632
 2084TIP3    H230448   4.161   0.750   8.742 -0.0268 -0.0175  0.0612
 2085TIP3   OH230449   2.001   5.102   8.786  0.1095 -0.7998 -0.1476
 2085TIP3    H130450   1.947   5.039   8.738  0.3366  0.5193 -2.2335
 2085TIP3    H230451   2.091   5.082   8.758  0.4193 -0.9107  0.8598
 2086TIP3   OH230452   0.557   1.188  10.221 -0.4336  0.2121  0.1672
 2086TIP3    H130453   0.624   1.130  10.257  1.4824  2.2578  0.1289
 2086TIP3    H230454   0.529   1.242  10.296 -1.1410  0.2309 -0.0985
 2087TIP3   OH230455   2.266   2.041  10.382  0.1408  0.1786 -0.0237
 2087TIP3    H130456   2.236   2.130  10.363  0.4455  0.3390  0.2533
 2087TIP3    H230457   2.333   2.023  10.317  0.1653  0.1951 -0.0033
 2088TIP3   OH230458   4.251   2.623  10.464 -0.4879  0.5461  0.6182
 2088TIP3    H130459   4.178   2.571  10.430 -0.1872 -0.4229  1.4127
 2088TIP3    H230460   4.272   2.684  10.393 -0.6203 -0.6535 -0.4863
 2089TIP3   OH230461   1.621   4.574  10.086 -0.5622  0.1944  0.4682
 2089TIP3    H130462   1.706   4.618  10.089 -0.1594 -0.6495  2.3080
 2089TIP3    H230463   1.586   4.582  10.175 -1.7264 -0.8026  0.1317
 2090TIP3   OH230464   4.393   0.033  10.741  0.2434  0.2490 -0.4232
 2090TIP3    H130465   4.477   0.023  10.696 -0.2445 -0.0381 -1.3033
 2090TIP3    H230466   4.366   0.123  10.722  0.9414  0.7756  0.9421
 2091TIP3   OH230467   2.837   0.589  10.048  0.6009  0.7180 -0.1995
 2091TIP3    H130468   2.895   0.662  10.029  0.6516  0.5454 -0.7157
 2091TIP3    H230469   2.880   0.513  10.009  0.4071  0.4571  0.0847
 2092TIP3   OH230470   5.858   4.185   8.682  0.3666 -0.2683  0.4619
 2092TIP3    H130471   5.862   4.119   8.751 -0.5035  0.2595  1.0282
 2092TIP3    H230472   5.940   4.234   8.692  0.5305 -0.5871  0.7168
 2093TIP3   OH230473   6.685   2.161  10.878 -0.1991  0.3012 -0.2841
 2093TIP3    H130474   6.687   2.240  10.931 -0.8017 -0.3658  0.7715
 2093TIP3    H230475   6.661   2.191  10.790 -2.2795  1.0991  0.4993
 2094TIP3   OH230476   5.677   5.940   8.584  0.3181  0.6381 -0.4339
 2094TIP3    H130477   5.764   5.974   8.568  1.0943 -0.3362  1.3729
 2094TIP3    H230478   5.619   6.015   8.571  1.3363  1.1626 -2.1950
 2095TIP3   OH230479   0.166   3.751  10.703 -0.2368 -0.3483  0.0875
 2095TIP3    H130480   0.117   3.731  10.783 -0.2336  2.8360  1.0438
 2095TIP3    H230481   0.241   3.802  10.734  0.1176  0.4186 -1.9025
 2096TIP3   OH230482   6.176   5.368   9.976  0.3710 -0.0027  0.5040
 2096TIP3    H130483   6.201   5.456  10.004  1.4397 -0.2192  0.2583
 2096TIP3    H230484   6.085   5.377   9.947  0.9627  1.3952 -1.0868
 2097TIP3   OH230485   1.826   4.009   9.299 -0.0438 -0.9218  0.6174
 2097TIP3    H130486   1.747   4.061   9.318 -0.0304 -0.7679  0.2518
 2097TIP3    H230487   1.889   4.036   9.366  0.7398  1.1984 -0.8933
 2098TIP3   OH230488   0.746   5.273  10.060 -0.0372  0.2697 -0.3604
 2098TIP3    H130489   0.719   5.323   9.983 -0.5462  0.0056 -0.3617
 2098TIP3    H230490   0.841   5.265  10.052 -0.2360 -1.1298 -1.8279
 2099TIP3   OH230491   4.464   4.373  10.555 -0.1656  0.1957  0.3081
 2099TIP3    H130492   4.463   4.409  10.467  1.1068 -2.0623 -0.7118
 2099TIP3    H230493   4.477   4.279  10.543 -0.3849 -0.2463  2.8896
 2100TIP3   OH230494   2.929   7.238   9.018 -0.3507 -0.7063 -0.0421
 2100TIP3    H130495   2.891   7.324   9.000 -1.0220 -0.7745  0.9798
 2100TIP3    H230496   2.947   7.201   8.932 -0.0828  0.4390 -0.4998
 2101TIP3   OH230497   0.753   0.932   8.481 -0.1473 -0.3108 -0.3255
 2101TIP3    H130498   0.679   0.880   8.450  0.3049 -1.5449  0.5751
 2101TIP3    H230499   0.822   0.868   8.495  0.7645  0.6926 -0.1713
 2102TIP3   OH230500   3.047   1.152   8.850 -0.6292  0.1044 -0.2674
 2102TIP3    H130501   3.075   1.115   8.767  1.6128  1.3643 -0.1333
 2102TIP3    H230502   2.962   1.110   8.867 -0.5395 -1.1474 -2.5137
 2103TIP3   OH230503   0.748   6.201   9.991 -0.6383  0.8243 -0.0559
 2103TIP3    H130504   0.779   6.152   9.914 -1.0755  1.0920 -0.4096
 2103TIP3    H230505   0.815   6.186  10.057 -1.2990 -1.1641  0.2158
 2104TIP3   OH230506   6.466   0.106  11.304 -0.2166  0.0624 -0.1889
 2104TIP3    H130507   6.523   0.182  11.292 -2.4673  1.6375 -1.6567
 2104TIP3    H230508   6.469   0.060  11.220 -1.3178  0.3447 -0.3963
 2105TIP3   OH230509   4.212   0.384   9.703  0.1022  0.0794  0.0730
 2105TIP3    H130510   4.222   0.389   9.798  2.4266  2.2005 -0.1952
 2105TIP3    H230511   4.159   0.460   9.679 -0.6237 -0.5360 -0.3661
 2106TIP3   OH230512   6.574   5.241   9.521 -0.0331 -0.1618 -0.7352
 2106TIP3    H130513   6.549   5.156   9.486  1.2453 -0.5265 -0.8033
 2106TIP3    H230514   6.599   5.293   9.444  1.8171 -0.6435 -0.5187
 2107TIP3   OH230515   4.577   3.105   9.316 -0.0257 -0.1414 -0.1458
 2107TIP3    H130516   4.534   3.074   9.395 -0.5860 -1.3630 -0.9127
 2107TIP3    H230517   4.667   3.074   9.324 -0.0949 -0.3068 -0.0230
 2108TIP3   OH230518   6.173   3.814  10.386 -0.2314 -0.8313  0.6503
 2108TIP3    H130519   6.203   3.905  10.384 -1.9564 -0.2397  0.2024
 2108TIP3    H230520   6.202   3.778  10.302 -1.4974  0.0013 -0.1842
 2109TIP3   OH230521   3.242   1.379  10.472 -0.2146  0.6879 -0.6044
 2109TIP3    H130522   3.153   1.393  10.441  0.1027  0.9576 -1.4107
 2109TIP3    H230523   3.252   1.438  10.546 -1.0935 -0.2060  0.2605
 2110TIP3   OH230524   2.130   6.727  11.089 -0.0765  0.3257 -0.2679
 2110TIP3    H130525   2.182   6.648  11.103  0.1569 -0.0805 -2.8744
 2110TIP3    H230526   2.152   6.784  11.163  1.3746 -1.2161  0.5463
 2111TIP3   OH230527   1.232   4.701  10.157  0.7240 -0.7065  0.2570
 2111TIP3    H130528   1.231   4.611  10.189  2.3833 -0.6699  0.5236
 2111TIP3    H230529   1.262   4.753  10.232 -0.7253  0.1723  0.2787
 2112TIP3   OH230530   1.611   0.122  10.037 -0.3546 -0.3700  0.1670
 2112TIP3    H130531   1.523   0.139  10.005  0.0010 -1.1103 -1.3078
 2112TIP3    H230532   1.660   0.201  10.014 -0.4554 -0.2754  0.2778
 2113TIP3   OH230533   2.070   4.917   9.848 -0.4492  0.5237  0.4188
 2113TIP3    H130534   2.156   4.947   9.818 -0.4798  1.0606  0.8415
 2113TIP3    H230535   2.044   4.982   9.914 -0.7223 -0.1942  1.0365
 2114TIP3   OH230536   6.963   7.577  10.662 -0.4465  0.7963 -0.5609
 2114TIP3    H130537   6.946   7.647  10.725 -0.1670  0.9667 -0.6754
 2114TIP3    H230538   7.056   7.585  10.641 -0.1081 -0.3772  0.3751
 2115TIP3   OH230539   5.955   4.936  10.363 -0.8098  0.3364 -0.3043
 2115TIP3    H130540   5.981   4.880  10.436 -1.1214 -0.4274 -0.7694
 2115TIP3    H230541   5.869   4.969  10.387 -0.5245  0.8192  0.0775
 2116TIP3   OH230542   5.753   4.922  10.761 -0.4536  0.0888  0.2941
 2116TIP3    H130543   5.739   4.828  10.774 -1.7566 -0.1595 -2.3302
 2116TIP3    H230544   5.666   4.957  10.746  0.3308  0.6461 -4.4355
 2117TIP3   OH230545   3.938   3.707   9.562 -0.6394  0.2601  0.0580
 2117TIP3    H130546   3.887   3.710   9.643 -1.3139  0.0105 -0.3475
 2117TIP3    H230547   3.948   3.614   9.544 -4.4722  0.1545 -2.5541
 2118TIP3   OH230548   6.143   1.743   8.879  0.0119  0.1621  0.0503
 2118TIP3    H130549   6.104   1.724   8.965  1.1846  1.0487  0.8044
 2118TIP3    H230550   6.189   1.663   8.856  0.1039  0.0877  0.4831
 2119TIP3   OH230551   2.923   6.450  11.024  0.6668  0.6610  0.3333
 2119TIP3    H130552   2.895   6.542  11.030 -0.2768  0.4383 -0.4323
 2119TIP3    H230553   2.995   6.443  11.086 -0.8200  1.3241  2.2461
 2120TIP3   OH230554   3.899   0.681   9.347 -0.5639  0.0781  0.3178
 2120TIP3    H130555   3.870   0.592   9.367 -0.7947 -0.1364 -0.9102
 2120TIP3    H230556   3.993   0.681   9.366 -0.5014 -0.5266  0.0185
 2121TIP3   OH230557   5.019   1.743  10.935 -0.0557  0.5693 -0.2885
 2121TIP3    H130558   5.065   1.711  10.857  1.0275  1.0399  0.1368
 2121TIP3    H230559   4.941   1.786  10.901  0.1414  0.3120 -1.0809
 2122TIP3   OH230560   4.997   1.654   9.152 -0.2072  0.1820 -0.1528
 2122TIP3    H130561   4.916   1.704   9.163 -1.5557 -1.8547 -0.2198
 2122TIP3    H230562   5.024   1.672   9.062 -0.2603  1.3277  0.0509
 2123TIP3   OH230563   2.119   5.166  10.654  0.3765 -0.1773 -0.4273
 2123TIP3    H130564   2.107   5.072  10.638 -0.8349 -0.2225  0.5980
 2123TIP3    H230565   2.109   5.206  10.568  1.9226 -1.0549 -1.0545
 2124TIP3   OH230566   3.826   5.127  10.434 -0.5260 -0.3035  0.3384
 2124TIP3    H130567   3.895   5.127  10.367 -1.5024  0.0192 -0.6943
 2124TIP3    H230568   3.806   5.034  10.448  1.6235 -0.5469  2.2842
 2125TIP3   OH230569   1.075   2.377  10.248 -0.0950 -0.4284 -0.1062
 2125TIP3    H130570   1.066   2.441  10.318 -3.4231  0.2330 -0.9766
 2125TIP3    H230571   1.060   2.426  10.168 -1.1938 -1.9807 -0.9020
 2126TIP3   OH230572   0.649   2.238   8.271 -0.3877 -0.0289 -0.0390
 2126TIP3    H130573   0.724   2.180   8.261 -0.5690 -0.6974  1.9995
 2126TIP3    H230574   0.687   2.324   8.292 -0.1706  0.1878 -1.2402
 2127TIP3   OH230575   1.143   3.373  10.773  0.4506 -0.5064  0.1328
 2127TIP3    H130576   1.233   3.392  10.748 -0.1492  2.1944 -0.2174
 2127TIP3    H230577   1.124   3.435  10.843 -1.7780  0.4634 -1.2315
 2128TIP3   OH230578   2.284   1.151  10.419 -0.1239 -0.1341 -0.4384
 2128TIP3    H130579   2.347   1.211  10.460 -2.1097  0.7817  1.5048
 2128TIP3    H230580   2.338   1.087  10.373  2.1960  0.8500  0.7473
 2129TIP3   OH230581   0.622   0.390   8.332  0.6552  0.2882 -0.3181
 2129TIP3    H130582   0.576   0.410   8.251 -0.8650  1.4353  0.7574
 2129TIP3    H230583   0.649   0.299   8.323 -0.6913 -0.0205 -1.5703
 2130TIP3   OH230584   4.576   4.439   8.451 -0.5883  0.6640  0.0607
 2130TIP3    H130585   4.541   4.508   8.507  2.5971  1.0853  1.7842
 2130TIP3    H230586   4.602   4.370   8.511  1.0599  0.2392 -1.0656
 2131TIP3   OH230587   0.794   1.512   9.445  0.0454 -0.3138 -0.0494
 2131TIP3    H130588   0.770   1.544   9.358 -0.6223  1.9298  0.8913
 2131TIP3    H230589   0.749   1.571   9.506 -0.0216 -2.2063  1.8435
 2132TIP3   OH230590   5.849   7.117  10.791 -0.1083  0.0960  0.4834
 2132TIP3    H130591   5.854   7.167  10.872 -0.4904  1.2917 -0.2051
 2132TIP3    H230592   5.920   7.053  10.797  0.8807  1.2245  1.0634
 2133TIP3   OH230593   0.241   1.594  10.659  0.0119 -0.1753 -0.6010
 2133TIP3    H130594   0.210   1.684  10.657 -0.2950 -0.2652 -2.8736
 2133TIP3    H230595   0.216   1.562  10.746 -3.0707  0.8767 -0.9682
 2134TIP3   OH230596   6.283   4.482   9.610  0.2132  0.5590  0.8954
 2134TIP3    H130597   6.344   4.420   9.570 -0.5171 -1.0553  2.1398
 2134TIP3    H230598   6.199   4.436   9.609 -0.8569  2.4295 -0.0906
 2135TIP3   OH230599   7.191   6.520  11.004 -0.0521 -0.0384  0.2277
 2135TIP3    H130600   7.275   6.529  11.048 -1.0277  0.6233  2.0710
 2135TIP3    H230601   7.180   6.425  10.992  0.7031 -0.1587  0.4456
 2136TIP3   OH230602   3.653   5.800  10.328  0.2290  0.0426  0.1512
 2136TIP3    H130603   3.693   5.726  10.282 -0.0403 -0.8684  1.3184
 2136TIP3    H230604   3.641   5.867  10.261 -2.7745 -2.2131 -1.8366
 2137TIP3   OH230605   1.864   5.214   9.760 -0.3745 -0.4654  0.2019
 2137TIP3    H130606   1.873   5.169   9.844  0.6443 -0.7130 -0.0240
 2137TIP3    H230607   1.878   5.306   9.781  0.4402 -0.5862  0.2322
 2138TIP3   OH230608   1.140   1.619  10.467  0.3200  0.3830 -0.0005
 2138TIP3    H130609   1.161   1.657  10.382  0.7376  0.8748  0.3149
 2138TIP3    H230610   1.045   1.625  10.474  0.2487  0.0036 -0.5851
 2139TIP3   OH230611   3.611   2.337  10.444  0.0326  0.2779  0.6266
 2139TIP3    H130612   3.518   2.317  10.452 -0.3972  2.1540  0.7191
 2139TIP3    H230613   3.619   2.384  10.362  1.7076 -3.7653 -1.8246
 2140TIP3   OH230614   3.665   2.511  10.209 -0.5571  0.1316 -0.4968
 2140TIP3    H130615   3.708   2.596  10.220 -0.7147  0.2080 -0.4728
 2140TIP3    H230616   3.735   2.453  10.179 -0.8434  0.7219 -2.4525
 2141TIP3   OH230617   2.234   0.761   8.934 -0.3027  0.5835 -0.2836
 2141TIP3    H130618   2.250   0.712   9.014  1.1319  0.4768 -0.6062
 2141TIP3    H230619   2.140   0.750   8.917  0.0934 -2.9245 -0.9093
 2142TIP3   OH230620   2.459   4.989  11.159 -0.7785  0.2375  0.4466
 2142TIP3    H130621   2.459   5.080  11.190 -0.2499  1.1649 -2.0009
 2142TIP3    H230622   2.388   4.986  11.095 -1.0816 -1.2341  0.8167
 2143TIP3   OH230623   0.927   6.429   9.285 -0.0589  0.3649 -0.5526
 2143TIP3    H130624   0.997   6.493   9.269  1.2926 -0.9337 -0.0981
 2143TIP3    H230625   0.874   6.430   9.206  2.1173 -0.5757 -2.1158
 2144TIP3   OH230626   0.097   2.733   8.838  0.1995  0.1717 -0.1249
 2144TIP3    H130627   0.127   2.703   8.752  2.3072  2.5754 -0.3594
 2144TIP3    H230628   0.151   2.684   8.900  2.0663  1.7258 -0.4215
 2145TIP3   OH230629   7.006   3.225  10.890  0.0560  0.0521  0.2954
 2145TIP3    H130630   7.080   3.282  10.910 -0.5703  1.2680 -0.7289
 2145TIP3    H230631   6.940   3.283  10.852 -0.7479 -1.2902 -0.4463
 2146TIP3   OH230632   0.609   6.463   9.384 -0.5799 -0.1595  0.3980
 2146TIP3    H130633   0.656   6.437   9.304  0.3396  2.3778  0.0378
 2146TIP3    H230634   0.556   6.538   9.358  0.0009  0.9358  2.2406
 2147TIP3   OH230635   3.191   2.716  10.256  0.3071  0.1263 -0.0020
 2147TIP3    H130636   3.282   2.743  10.241  0.9864 -2.1669 -0.4630
 2147TIP3    H230637   3.173   2.654  10.185 -2.0801  1.4170 -0.6556
 2148TIP3   OH230638   7.289   2.801   8.648 -0.3308  0.0759  0.3687
 2148TIP3    H130639   7.366   2.788   8.704 -0.3945 -0.2264  0.3899
 2148TIP3    H230640   7.294   2.729   8.585 -2.2675 -1.8266  2.2395
 2149TIP3   OH230641   4.196   7.594  11.214  0.2051  0.0115 -0.5756
 2149TIP3    H130642   4.270   7.648  11.189  0.6000 -1.2389 -2.2991
 2149TIP3    H230643   4.122   7.655  11.219  1.0950  1.0748 -0.0087
 2150TIP3   OH230644   3.425   0.858  11.057  0.3545  0.5236  0.0952
 2150TIP3    H130645   3.330   0.865  11.058  0.3105  0.1216 -0.6004
 2150TIP3    H230646   3.456   0.945  11.031  0.1133  0.3022 -0.9980
 2151TIP3   OH230647   2.497   0.685  10.451  0.1522 -0.0665  0.0031
 2151TIP3    H130648   2.591   0.676  10.470  0.1574 -1.9064 -0.7207
 2151TIP3    H230649   2.456   0.616  10.504 -0.7821  0.5468  0.0965
 2152TIP3   OH230650   0.498   1.387   9.183 -0.7430 -0.0538 -0.5668
 2152TIP3    H130651   0.569   1.433   9.226  0.3986 -0.6033 -1.7895
 2152TIP3    H230652   0.419   1.416   9.229  0.4284 -1.5816  2.7317
 2153TIP3   OH230653   1.147   1.489   8.081 -0.0673  0.1451  0.1996
 2153TIP3    H130654   1.152   1.578   8.046  0.5311  0.1724  0.3319
 2153TIP3    H230655   1.233   1.451   8.061  0.1957  0.0787  1.3854
 2154TIP3   OH230656   3.415   5.345   9.391 -0.1944 -0.5126 -0.8170
 2154TIP3    H130657   3.482   5.292   9.434 -0.9260 -1.2175 -0.5249
 2154TIP3    H230658   3.460   5.426   9.368  0.3817 -0.3602  0.7245
 2155TIP3   OH230659   1.079   4.727   9.946  0.3745  0.2645  0.5002
 2155TIP3    H130660   1.089   4.820   9.928  1.4083  0.0684  0.0239
 2155TIP3    H230661   1.145   4.708  10.012 -0.8691  0.1741  1.7844
 2156TIP3   OH230662   2.144   4.743  10.779  0.4076  0.2749  0.3787
 2156TIP3    H130663   2.067   4.717  10.830  0.0960  2.8871  1.3906
 2156TIP3    H230664   2.107   4.782  10.700  0.7495  0.2924  0.2287
 2157TIP3   OH230665   5.348   5.178  10.454  0.1199 -0.1318 -1.0600
 2157TIP3    H130666   5.280   5.189  10.522 -0.8883 -2.4079 -1.6030
 2157TIP3    H230667   5.357   5.265  10.415  0.5056  1.1944  1.7215
 2158TIP3   OH230668   2.619   3.849   9.515 -0.0279 -0.1603  0.0229
 2158TIP3    H130669   2.610   3.856   9.609 -1.0372  0.3345 -0.1018
 2158TIP3    H230670   2.536   3.879   9.480  0.3673 -0.2369 -1.0325
 2159TIP3   OH230671   2.477   4.238   8.684 -0.3906 -0.3918 -0.0206
 2159TIP3    H130672   2.546   4.298   8.710  1.1264 -0.9107 -2.5194
 2159TIP3    H230673   2.402   4.294   8.662 -0.2328  0.2908  1.1412
 2160TIP3   OH230674   2.748   0.569   9.685  0.3727  0.2408 -0.9029
 2160TIP3    H130675   2.718   0.658   9.701 -0.1948 -0.0979 -0.0135
 2160TIP3    H230676   2.828   0.561   9.737  1.3954  0.7772 -2.3641
 2161TIP3   OH230677   3.404   3.879   9.375  0.3697 -0.3373 -0.2592
 2161TIP3    H130678   3.352   3.862   9.454 -1.0466  1.2546 -0.7789
 2161TIP3    H230679   3.445   3.964   9.392 -0.1665  0.1570 -1.2908
 2162TIP3   OH230680   0.544   3.907  10.461  0.3254 -0.1347 -0.5521
 2162TIP3    H130681   0.587   3.831  10.422 -1.0724 -0.6284 -1.1950
 2162TIP3    H230682   0.613   3.972  10.469  0.9285 -0.4173 -2.8086
 2163TIP3   OH230683   4.413   2.090   9.368 -0.1870 -0.0091  0.3570
 2163TIP3    H130684   4.387   2.018   9.425  0.6440 -0.3300  0.3381
 2163TIP3    H230685   4.401   2.168   9.422  0.2260 -0.2776  0.8499
 2164TIP3   OH230686   3.036   1.532   8.094 -0.1805 -0.4331  0.2107
 2164TIP3    H130687   3.026   1.437   8.102  2.5145 -0.8197 -0.1090
 2164TIP3    H230688   3.117   1.551   8.141 -0.7992  1.7734  0.4758
 2165TIP3   OH230689   2.724   5.603  10.727 -0.2360 -1.1392 -0.2506
 2165TIP3    H130690   2.723   5.688  10.682 -3.5878 -1.5115 -1.1244
 2165TIP3    H230691   2.815   5.592  10.754  0.5806  2.1642 -1.1404
 2166TIP3   OH230692   3.899   6.277  10.867 -0.0336  0.3853 -0.7168
 2166TIP3    H130693   3.896   6.207  10.801 -1.2075 -0.3270  0.0582
 2166TIP3    H230694   3.809   6.306  10.875  0.1569  0.7423  0.2866
 2167TIP3   OH230695   5.272   5.457   9.146  0.1563  0.9270 -0.1315
 2167TIP3    H130696   5.292   5.380   9.199 -0.1577  0.0229 -1.2719
 2167TIP3    H230697   5.343   5.518   9.164  2.3519 -0.9700 -1.7084
 2168TIP3   OH230698   7.370   5.448   9.458 -0.3189 -0.3319  0.4658
 2168TIP3    H130699   7.368   5.538   9.424 -0.0667  0.4948  2.4819
 2168TIP3    H230700   7.287   5.438   9.503  0.4437 -0.3756  1.9279
 2169TIP3   OH230701   4.903   5.197   8.457  0.2746  0.3466 -0.2692
 2169TIP3    H130702   4.925   5.113   8.417  0.3353  0.7630 -1.1417
 2169TIP3    H230703   4.925   5.186   8.550  0.1900 -0.6259 -0.3528
 2170TIP3   OH230704   5.595   7.652   9.155  0.9414 -0.2089 -0.2513
 2170TIP3    H130705   5.504   7.642   9.125  0.9189  1.1419 -0.7225
 2170TIP3    H230706   5.641   7.576   9.120  0.4343  0.1991 -1.8647
 2171TIP3   OH230707   5.220   6.271  10.604 -0.6696 -0.3235  0.0691
 2171TIP3    H130708   5.245   6.260  10.513 -1.4320 -0.1028 -0.1791
 2171TIP3    H230709   5.294   6.314  10.645 -0.5971  0.2128 -0.6102
 2172TIP3   OH230710   0.709   4.153  10.333  0.1692 -0.8745  0.1757
 2172TIP3    H130711   0.617   4.148  10.308  0.5946 -0.3875 -1.5718
 2172TIP3    H230712   0.713   4.228  10.392 -0.4082 -0.3190 -0.4725
 2173TIP3   OH230713   1.365   1.532   8.587 -0.8220 -0.2065  0.1830
 2173TIP3    H130714   1.278   1.536   8.626 -0.2987  1.7003  1.2420
 2173TIP3    H230715   1.395   1.623   8.584  0.3493 -0.5792 -2.0260
 2174TIP3   OH230716   4.636   0.049  10.600 -0.1355  0.0131 -0.3468
 2174TIP3    H130717   4.684  -0.034  10.599 -0.8886 -0.4579  0.5899
 2174TIP3    H230718   4.705   0.116  10.604  0.4825 -0.5496 -1.2944
 2175TIP3   OH230719   3.710   2.073   8.979  0.4587 -0.0665  0.0363
 2175TIP3    H130720   3.771   2.129   8.931 -0.3399  0.2647 -0.6112
 2175TIP3    H230721   3.684   2.125   9.055  0.5710  0.0002  0.0290
 2176TIP3   OH230722   1.105   2.763  10.767  0.5102  0.4455  0.2571
 2176TIP3    H130723   1.190   2.779  10.726  0.1022 -1.8152 -1.7640
 2176TIP3    H230724   1.045   2.824  10.723  0.3832 -0.8454 -1.4696
 2177TIP3   OH230725   7.583   1.152  11.150  0.5684  0.0486  0.4443
 2177TIP3    H130726   7.588   1.173  11.244  1.5599  1.0827  0.1851
 2177TIP3    H230727   7.671   1.121  11.128  0.1888 -0.7195 -0.0414
 2178TIP3   OH230728   4.282   4.046  10.995  0.6990 -0.3672 -0.3637
 2178TIP3    H130729   4.254   4.127  10.952 -0.6760 -0.4100  0.4097
 2178TIP3    H230730   4.203   4.012  11.038  1.7988 -0.8080  1.4285
 2179TIP3   OH230731   3.624   3.830  10.220 -0.2280  0.0718  0.0503
 2179TIP3    H130732   3.644   3.917  10.255 -0.3030 -0.3255  1.1224
 2179TIP3    H230733   3.697   3.809  10.162  0.1930  0.5171  0.4171
 2180TIP3   OH230734   2.725   7.159   9.975  0.0767  1.0738  0.5888
 2180TIP3    H130735   2.716   7.136  10.067 -1.6611 -2.6030 -0.2751
 2180TIP3    H230736   2.640   7.137   9.936  0.9862  1.7547 -2.0205
 2181TIP3   OH230737   7.663   2.816   9.823  0.0292  0.5889 -0.3673
 2181TIP3    H130738   7.724   2.814   9.750 -0.4315 -0.1827 -0.7527
 2181TIP3    H230739   7.628   2.726   9.827  0.6146  0.3950  1.2851
 2182TIP3   OH230740   0.266   0.866   9.977 -0.2845 -0.3498  0.3100
 2182TIP3    H130741   0.178   0.890   9.947 -0.1977 -0.3283  0.0724
 2182TIP3    H230742   0.291   0.936  10.037 -1.3905 -1.5455  2.2736
 2183TIP3   OH230743   1.060   1.333  10.643  0.1911  0.3274 -0.2239
 2183TIP3    H130744   1.064   1.382  10.725  1.3976 -1.7653  1.0394
 2183TIP3    H230745   1.148   1.339  10.607  0.4582 -1.1735  0.1351
 2184TIP3   OH230746   4.341   7.346   9.701 -0.2697 -0.2981 -0.1522
 2184TIP3    H130747   4.411   7.287   9.728 -1.0816 -0.6438  1.3538
 2184TIP3    H230748   4.271   7.289   9.670  0.6583  0.1042 -3.2216
 2185TIP3   OH230749   5.254   4.046  11.099 -0.2335 -0.0640  0.4618
 2185TIP3    H130750   5.285   3.973  11.045 -1.5607  0.1649 -0.6882
 2185TIP3    H230751   5.299   4.035  11.183  1.2373 -0.9478 -0.3899
 2186TIP3   OH230752   0.144   4.553  10.123 -0.4214 -0.2637  0.0529
 2186TIP3    H130753   0.151   4.459  10.107 -0.8541 -0.3508  0.3653
 2186TIP3    H230754   0.079   4.583  10.060  0.9737  0.1461 -1.2647
 2187TIP3   OH230755   2.142   2.568   9.483 -0.8434 -0.3060  0.3624
 2187TIP3    H130756   2.146   2.536   9.393  0.1944 -0.3870  0.4262
 2187TIP3    H230757   2.086   2.645   9.480  0.3685  0.5639 -0.6248
 2188TIP3   OH230758   4.730   7.066  10.915 -0.1962 -0.3425 -0.1751
 2188TIP3    H130759   4.659   7.023  10.868 -1.8447  0.8033  1.1647
 2188TIP3    H230760   4.737   7.018  10.997  0.0007  0.0936  0.0631
 2189TIP3   OH230761   3.652   1.631  10.754  0.4982  0.0348  0.6320
 2189TIP3    H130762   3.741   1.606  10.779  0.5423 -0.4892 -0.0470
 2189TIP3    H230763   3.643   1.721  10.786  1.3985  0.2192  0.3971
 2190TIP3   OH230764   3.424   0.009   9.567  0.2630  0.3730 -0.2739
 2190TIP3    H130765   3.420   0.069   9.641 -0.3224  1.8221 -1.4202
 2190TIP3    H230766   3.398  -0.075   9.603 -0.5880  1.1653  1.0482
 2191TIP3   OH230767   1.348   0.587  10.069 -0.1489  0.2076  0.0639
 2191TIP3    H130768   1.376   0.544   9.989  0.4690  1.2651 -0.3022
 2191TIP3    H230769   1.411   0.558  10.135  0.3982  0.7084 -0.2314
 2192TIP3   OH230770   0.895   3.238   9.001 -0.4802  0.0962  0.2824
 2192TIP3    H130771   0.984   3.203   8.990 -0.4569  0.0308  0.6662
 2192TIP3    H230772   0.849   3.211   8.921 -0.1795  0.0557  0.1207
 2193TIP3   OH230773   3.454   2.755  10.222  0.4168  0.7129 -0.2831
 2193TIP3    H130774   3.497   2.691  10.279 -1.4775 -1.9307 -1.6032
 2193TIP3    H230775   3.507   2.757  10.142  0.6341  1.0303 -0.1331
 2194TIP3   OH230776   2.500   6.925  10.993 -0.4730 -0.0221 -0.0442
 2194TIP3    H130777   2.542   6.853  10.947  0.0774  0.7476 -0.7885
 2194TIP3    H230778   2.488   6.893  11.082  1.4967 -0.3847  0.1469
 2195TIP3   OH230779   0.059   2.727  10.954  0.6587 -0.3449  0.2247
 2195TIP3    H130780  -0.021   2.737  10.902  0.6524  1.2893  0.4799
 2195TIP3    H230781   0.036   2.666  11.024 -0.4852  0.3796  0.5037
 2196TIP3   OH230782   4.902   4.734  11.193 -0.1296 -0.5441  0.1813
 2196TIP3    H130783   4.957   4.671  11.146  1.5009 -0.1185  1.4394
 2196TIP3    H230784   4.911   4.710  11.285 -2.0664 -0.4362  0.4380
 2197TIP3   OH230785   7.024   1.521   9.619 -0.3778 -0.1084  0.2005
 2197TIP3    H130786   7.091   1.473   9.668 -1.0111 -1.6979 -0.4278
 2197TIP3    H230787   6.952   1.459   9.610 -1.2394  0.9799 -0.6473
 2198TIP3   OH230788   0.870   4.626  10.063 -0.2624  0.1286  0.4264
 2198TIP3    H130789   0.896   4.657  10.150 -1.6002 -0.3868  1.0435
 2198TIP3    H230790   0.942   4.651  10.006  0.5072  0.7568  1.6298
 2199TIP3   OH230791   1.603   6.008  10.708 -0.1277  0.2801 -0.5597
 2199TIP3    H130792   1.656   5.930  10.723 -1.5371 -0.7210 -0.6329
 2199TIP3    H230793   1.664   6.081  10.721  1.1449 -0.8094 -0.1935
 2200TIP3   OH230794   3.781   6.534  11.276 -0.4768  0.0482 -0.0863
 2200TIP3    H130795   3.852   6.596  11.262 -1.5684  1.7441  1.3264
 2200TIP3    H230796   3.813   6.451  11.240  2.6416  0.4505  1.4263
 2201TIP3   OH230797   4.216   2.152   8.741 -0.3760 -0.2873  0.4724
 2201TIP3    H130798   4.121   2.164   8.744 -0.1390  1.8150  1.0005
 2201TIP3    H230799   4.229   2.061   8.765 -2.3777 -1.4056 -2.1082
 2202TIP3   OH230800   2.316   3.412   9.512 -0.7165  0.4545 -0.4317
 2202TIP3    H130801   2.328   3.498   9.471  0.8283 -0.8260 -2.8382
 2202TIP3    H230802   2.404   3.387   9.540 -1.1815 -0.3099  0.3949
 2203TIP3   OH230803   5.814   2.001  11.056 -0.0946 -0.2628  0.3130
 2203TIP3    H130804   5.869   1.972  11.129 -0.7321 -0.1031  0.8612
 2203TIP3    H230805   5.753   1.929  11.041 -1.3019  0.5076  1.2958
 2204TIP3   OH230806   6.814   6.252  10.428  0.0432 -0.0108 -0.2509
 2204TIP3    H130807   6.859   6.189  10.484  1.0558  0.1456 -0.8616
 2204TIP3    H230808   6.883   6.308  10.394 -0.7285  0.8300 -0.4875
 2205TIP3   OH230809   1.714   6.035  10.415  0.1721 -0.2821 -0.4827
 2205TIP3    H130810   1.767   5.956  10.420  0.6060  0.0258 -0.1219
 2205TIP3    H230811   1.773   6.105  10.440  0.3907  0.4528 -2.8382
 2206TIP3   OH230812   1.497   1.362   9.417  1.0252 -0.5922  0.3026
 2206TIP3    H130813   1.445   1.339   9.340  1.0592  0.1111  0.0628
 2206TIP3    H230814   1.445   1.331   9.491 -0.1901  0.8866  0.1205
 2207TIP3   OH230815   1.706   2.941   9.507 -0.0001 -0.4056  0.5028
 2207TIP3    H130816   1.788   2.965   9.549 -0.3362 -0.0520  0.9697
 2207TIP3    H230817   1.647   2.919   9.579 -0.1578 -1.1947  0.1465
 2208TIP3   OH230818   1.501   6.315  10.628 -0.0618  0.2516 -0.1444
 2208TIP3    H130819   1.486   6.408  10.612 -1.6370  0.0676  0.0881
 2208TIP3    H230820   1.581   6.312  10.680  0.6236  1.3893 -1.0927
 2209TIP3   OH230821   6.527   2.526  10.515 -0.5618  0.1607  0.0345
 2209TIP3    H130822   6.593   2.562  10.456 -1.7294  2.1941 -0.1418
 2209TIP3    H230823   6.514   2.595  10.581 -1.9122 -0.5262  0.5271
 2210TIP3   OH230824   3.185   7.606  10.328 -0.3977  0.0659 -0.4568
 2210TIP3    H130825   3.103   7.570  10.363 -0.7854  1.2184 -0.1185
 2210TIP3    H230826   3.253   7.555  10.371 -0.9290 -1.0579 -0.9049
 2211TIP3   OH230827   2.982   6.815  10.757  0.2853  0.7384 -0.3690
 2211TIP3    H130828   3.013   6.747  10.697  0.0444 -2.4084  2.7501
 2211TIP3    H230829   2.974   6.893  10.702  1.8609 -1.3431 -3.9438
 2212TIP3   OH230830   6.613   6.137  10.273 -0.3638  0.4222 -0.4943
 2212TIP3    H130831   6.642   6.165  10.187  0.5522 -1.1641 -0.7415
 2212TIP3    H230832   6.675   6.178  10.334 -2.0168  2.9753 -0.3421
 2213TIP3   OH230833   4.396   5.284   8.850  0.0222 -0.3269  0.0989
 2213TIP3    H130834   4.304   5.309   8.854 -0.2685 -1.4602  1.5763
 2213TIP3    H230835   4.444   5.362   8.878 -0.5564 -0.0415  0.3019
 2214TIP3   OH230836   7.078   3.373   9.047  0.8084  0.0342  0.9732
 2214TIP3    H130837   7.168   3.339   9.048  0.9625  0.3699  0.0218
 2214TIP3    H230838   7.089   3.468   9.051  0.5279  0.1025  0.2320
 2215TIP3   OH230839   2.482   1.604   9.660 -0.1544 -0.0383 -0.2184
 2215TIP3    H130840   2.387   1.589   9.660 -0.0371 -1.0211 -1.4313
 2215TIP3    H230841   2.511   1.578   9.747 -1.0784  1.0034  0.4293
 2216TIP3   OH230842   6.218   4.754   9.104 -0.9307  0.4678  0.2632
 2216TIP3    H130843   6.160   4.822   9.067 -1.6591 -0.1231  0.2956
 2216TIP3    H230844   6.267   4.721   9.029 -0.5650  1.0265  0.2485
 2217TIP3   OH230845   4.734   7.345   9.473  0.1530  0.0875 -0.1982
 2217TIP3    H130846   4.768   7.383   9.392  0.2726  0.8654  0.2064
 2217TIP3    H230847   4.699   7.420   9.522  1.0277 -0.2076  0.9281
 2218TIP3   OH230848   7.160   3.047   9.660 -0.4962  0.1653  0.0584
 2218TIP3    H130849   7.242   3.074   9.700 -0.7291 -0.2513  0.8369
 2218TIP3    H230850   7.173   2.956   9.635 -0.3520  0.4214 -0.8422
 2219TIP3   OH230851   6.505   5.462   9.293  0.0053 -0.1150 -0.3660
 2219TIP3    H130852   6.500   5.488   9.386 -0.4804  1.0977 -0.7046
 2219TIP3    H230853   6.511   5.545   9.246  0.1549 -0.7182 -1.4335
 2220TIP3   OH230854   7.579   1.255   9.700 -0.3206 -0.1748  0.6469
 2220TIP3    H130855   7.601   1.163   9.691  0.2873 -0.0518  0.8402
 2220TIP3    H230856   7.543   1.263   9.788  0.3072 -0.0971  0.8995
 2221TIP3   OH230857   6.704   4.541   9.554  0.1370  0.0736 -0.6234
 2221TIP3    H130858   6.710   4.579   9.466  1.9825 -0.1322 -0.6441
 2221TIP3    H230859   6.731   4.449   9.543  1.9152  0.4245  0.3358
 2222TIP3   OH230860   5.197   4.700  10.805  0.0233 -0.0230  0.0843
 2222TIP3    H130861   5.128   4.766  10.807  1.3275  1.4259  2.7573
 2222TIP3    H230862   5.244   4.716  10.723 -0.4892  1.5350  0.0622
 2223TIP3   OH230863   2.543   6.321  10.472  0.3810  0.2349 -0.1731
 2223TIP3    H130864   2.538   6.271  10.554 -1.4173 -0.4748 -0.6496
 2223TIP3    H230865   2.456   6.311  10.434  0.7980  1.6099 -1.5690
 2224TIP3   OH230866   6.327   6.858  10.449  0.0585 -0.1144  0.2974
 2224TIP3    H130867   6.420   6.875  10.437 -0.0358 -0.7816 -1.7995
 2224TIP3    H230868   6.323   6.780  10.504  0.6953  0.4674  1.1888
 2225TIP3   OH230869   6.145   0.107  11.349 -0.2107  0.1385 -0.2146
 2225TIP3    H130870   6.217   0.089  11.409 -0.3014  1.4285  0.3050
 2225TIP3    H230871   6.181   0.168  11.284 -0.7709  0.6373 -0.0681
 2226TIP3   OH230872   0.792   7.362   8.811  0.3482  0.2985 -0.0663
 2226TIP3    H130873   0.717   7.353   8.753 -0.5424  0.5785  1.0099
 2226TIP3    H230874   0.862   7.395   8.755  0.7271 -3.1136 -1.8710
 2227TIP3   OH230875   7.274   5.014   9.624 -0.6439 -0.3624  0.0925
 2227TIP3    H130876   7.333   5.017   9.700 -0.4788 -1.4243  0.0343
 2227TIP3    H230877   7.234   4.927   9.629 -0.8640 -0.3270 -0.8631
 2228TIP3   OH230878   3.466   4.050  10.802 -0.1633  0.2675  0.2638
 2228TIP3    H130879   3.537   3.999  10.763  0.8304  2.2177 -0.5671
 2228TIP3    H230880   3.450   4.120  10.740 -2.6675  0.0489  0.5592
 2229TIP3   OH230881   6.183   4.498   9.244  0.1798 -0.0156  0.9519
 2229TIP3    H130882   6.090   4.476   9.253  0.6184 -1.8543  1.4523
 2229TIP3    H230883   6.185   4.566   9.177 -1.7993  2.3689  3.0701
 2230TIP3   OH230884   3.121   6.619  10.625  0.1147 -0.0964  0.2753
 2230TIP3    H130885   3.200   6.625  10.679  0.5904  1.2143 -0.5262
 2230TIP3    H230886   3.155   6.608  10.535 -0.6391 -0.8506  0.0729
 2231TIP3   OH230887   7.146   2.988   8.837  0.3659  0.0139  0.0188
 2231TIP3    H130888   7.230   3.029   8.817  1.5494 -1.9581  0.6575
 2231TIP3    H230889   7.138   2.917   8.773 -0.4603 -0.2832  0.4389
 2232TIP3   OH230890   5.170   4.988   9.275  0.6050 -0.3659 -0.2039
 2232TIP3    H130891   5.127   4.924   9.218  0.0679  1.8355 -2.4133
 2232TIP3    H230892   5.098   5.024   9.328 -0.1213  1.9734 -2.5868
 2233TIP3   OH230893   2.389   1.281   9.751  0.0652  0.7826  0.0185
 2233TIP3    H130894   2.364   1.372   9.768  0.2497  0.3625  2.9794
 2233TIP3    H230895   2.328   1.252   9.683 -2.8057  1.9382  1.8986
 2234TIP3   OH230896   0.560   6.646   9.974 -0.4636 -0.2338 -0.4180
 2234TIP3    H130897   0.540   6.560  10.011 -1.5450 -0.2032 -0.8948
 2234TIP3    H230898   0.579   6.629   9.882 -1.4041  0.0966 -0.6927
 2235TIP3   OH230899   5.441   6.167   9.589 -0.5156 -0.0618 -0.2139
 2235TIP3    H130900   5.471   6.105   9.522  0.3572 -0.4657  0.5303
 2235TIP3    H230901   5.467   6.253   9.556 -1.0374 -0.1607 -0.8896
 2236TIP3   OH230902   5.000   4.015  10.268 -0.0878 -0.3415 -0.5327
 2236TIP3    H130903   5.029   3.957  10.197 -0.0505 -0.4644 -0.4169
 2236TIP3    H230904   5.056   3.992  10.342  0.4324  0.3579 -0.6976
 2237TIP3   OH230905   6.658   2.390  10.166  0.2877 -0.7447  0.3863
 2237TIP3    H130906   6.588   2.357  10.222 -2.2087 -1.4387 -2.8133
 2237TIP3    H230907   6.695   2.312  10.126 -0.3086 -0.1762 -1.3751
 2238TIP3   OH230908   0.753   1.558   9.738  0.0248 -0.2444 -0.3052
 2238TIP3    H130909   0.820   1.626   9.751  0.1749 -0.3988 -0.2749
 2238TIP3    H230910   0.801   1.476   9.743  0.0970 -0.3266 -1.8954
 2239TIP3   OH230911   3.858   1.521  10.022  0.1673  0.3530 -0.4332
 2239TIP3    H130912   3.803   1.596  10.046 -0.6832  0.0506 -1.3926
 2239TIP3    H230913   3.875   1.476  10.105 -0.4175  0.8605 -0.0285
 2240TIP3   OH230914   3.293   5.813   9.788  0.7844  0.5185  0.5718
 2240TIP3    H130915   3.358   5.744   9.772 -0.6721 -0.8500  0.3282
 2240TIP3    H230916   3.290   5.862   9.706  1.5033  0.6043  0.5897
 2241TIP3   OH230917   6.680   4.076  10.436  0.3900  0.1349  0.5907
 2241TIP3    H130918   6.619   4.022  10.486 -0.4258 -0.7578 -1.2488
 2241TIP3    H230919   6.763   4.069  10.484 -0.1697 -1.2438  1.4293
 2242TIP3   OH230920   4.894   1.330  10.085  0.4021 -0.4606  0.1219
 2242TIP3    H130921   4.910   1.294   9.998  1.1044 -1.5420  0.6697
 2242TIP3    H230922   4.898   1.254  10.143  0.0229  0.2500  1.1114
 2243TIP3   OH230923   3.319   4.188   9.228 -0.5681 -0.1349 -0.4826
 2243TIP3    H130924   3.293   4.211   9.317 -1.3661 -0.5407 -0.5950
 2243TIP3    H230925   3.236   4.178   9.181 -0.1762 -0.6325 -1.0892
 2244TIP3   OH230926   5.616   3.679  10.325 -0.3213  0.5026  0.0476
 2244TIP3    H130927   5.530   3.638  10.334 -1.1691  1.3425 -2.9809
 2244TIP3    H230928   5.677   3.606  10.334 -1.3861 -0.2999  1.1827
 2245TIP3   OH230929   2.955   1.056  10.752 -0.9220  0.7279  0.3717
 2245TIP3    H130930   2.958   1.001  10.831  0.0127 -0.9532 -0.7945
 2245TIP3    H230931   2.914   1.137  10.782  0.5141  0.6251  2.8856
 2246TIP3   OH230932   6.188   1.656  10.744  0.2101 -0.0321 -0.0223
 2246TIP3    H130933   6.121   1.723  10.729 -0.9530 -1.3494 -0.9885
 2246TIP3    H230934   6.182   1.636  10.837  0.5590  1.1640  0.2719
 2247TIP3   OH230935   2.383   3.855  10.921 -0.1540  0.1511 -0.3077
 2247TIP3    H130936   2.296   3.890  10.941  0.6585  1.8545  0.5033
 2247TIP3    H230937   2.418   3.827  11.005 -0.0151 -0.8104 -0.6739
 2248TIP3   OH230938   4.782   2.497   8.821 -0.2268 -0.4813  0.2268
 2248TIP3    H130939   4.849   2.429   8.809  0.8995  0.5702  0.3056
 2248TIP3    H230940   4.759   2.524   8.732 -0.9549 -1.2168  0.1860
 2249TIP3   OH230941   2.207   7.568   9.031 -0.5869  0.6680  0.4850
 2249TIP3    H130942   2.141   7.516   9.076 -0.6157 -0.8367 -1.2084
 2249TIP3    H230943   2.162   7.650   9.009 -0.7864  1.1380  2.4414
 2250TIP3   OH230944   0.728   0.795  10.271  0.5560  0.1675 -0.4894
 2250TIP3    H130945   0.718   0.701  10.286 -1.1811  0.3131 -0.5124
 2250TIP3    H230946   0.815   0.804  10.231  1.1945 -1.2935  0.4940
 2251TIP3   OH230947   6.621   2.172   8.979 -0.2088 -0.3294  0.4726
 2251TIP3    H130948   6.647   2.206   8.894  0.1228 -1.0536  0.2780
 2251TIP3    H230949   6.668   2.090   8.988 -0.5720 -0.4737  1.1711
 2252TIP3   OH230950   2.464   0.092   8.188 -0.5619  0.0092 -0.4835
 2252TIP3    H130951   2.380   0.050   8.206  0.4444 -1.1644  1.8490
 2252TIP3    H230952   2.500   0.041   8.115 -1.4303 -0.1001 -0.8581
 2253TIP3   OH230953   5.716   4.255   9.921 -0.5159 -0.0851  0.4700
 2253TIP3    H130954   5.775   4.218   9.987 -0.5742 -0.2159  0.4490
 2253TIP3    H230955   5.688   4.180   9.870  0.4126  0.1461 -0.4187
 2254TIP3   OH230956   3.507   3.613   9.600  0.4039  0.5569 -0.1250
 2254TIP3    H130957   3.484   3.696   9.558  0.4100  0.7631  0.2780
 2254TIP3    H230958   3.448   3.607   9.675 -1.4617 -1.0583 -1.6004
 2255TIP3   OH230959   5.892   6.056   8.163 -0.1536  0.0792 -0.1464
 2255TIP3    H130960   5.880   6.144   8.198 -2.2787 -0.2415  0.0632
 2255TIP3    H230961   5.881   6.066   8.068  3.1672  0.5431 -0.6118
 2256TIP3   OH230962   3.503   6.568  11.209 -0.7548  0.1844  0.3202
 2256TIP3    H130963   3.457   6.593  11.289 -1.4269 -2.5002  0.8727
 2256TIP3    H230964   3.596   6.566  11.234 -0.6914  1.6767  0.3151
 2257TIP3   OH230965   1.931   3.427   9.337 -0.2788  0.0430 -0.0573
 2257TIP3    H130966   1.989   3.497   9.308  1.5097 -0.6474  1.6156
 2257TIP3    H230967   1.970   3.397   9.420 -2.0912 -1.6117  0.2547
 2258TIP3   OH230968   6.454   3.317  10.234  0.3108  0.2394 -0.8325
 2258TIP3    H130969   6.466   3.410  10.256 -0.0790 -0.1428  1.1759
 2258TIP3    H230970   6.364   3.312  10.201  0.4229  0.6057 -1.2048
 2259TIP3   OH230971   1.485   1.667   8.915  0.2227 -0.1571  0.3121
 2259TIP3    H130972   1.500   1.693   8.824 -0.9157  0.2398  0.2158
 2259TIP3    H230973   1.471   1.572   8.910  0.2283 -0.1480  0.0757
 2260TIP3   OH230974   2.044   2.229  10.718  0.5099  0.2375 -0.0193
 2260TIP3    H130975   2.025   2.268  10.632  0.2015 -0.3918 -0.2453
 2260TIP3    H230976   2.037   2.302  10.779  1.0381  0.7569 -0.5635
 2261TIP3   OH230977   0.902   2.133   9.288  0.0824 -0.3616  0.2262
 2261TIP3    H130978   0.921   2.168   9.201 -1.2666 -0.8837 -0.3113
 2261TIP3    H230979   0.975   2.162   9.342  0.3210  1.0578 -0.7903
 2262TIP3   OH230980   5.783   5.815   9.959  0.8388 -0.3310  0.2505
 2262TIP3    H130981   5.693   5.831   9.989  0.5475 -0.5024 -0.4889
 2262TIP3    H230982   5.829   5.896   9.979  0.1008  0.3827 -0.8205
 2263TIP3   OH230983   5.072   6.640   9.674  0.0093 -0.0285  0.0082
 2263TIP3    H130984   5.064   6.735   9.665  0.9634  0.1028  0.4134
 2263TIP3    H230985   5.084   6.625   9.767 -2.6272 -0.7929  0.3121
 2264TIP3   OH230986   3.910   6.009   9.376  0.2952 -0.4637  0.4892
 2264TIP3    H130987   3.848   5.954   9.328  0.8823 -0.2743 -0.5279
 2264TIP3    H230988   3.996   5.977   9.349  0.6703  1.4764 -0.8243
 2265TIP3   OH230989   0.060   5.735   9.754  0.3004  0.3693 -0.0291
 2265TIP3    H130990   0.073   5.650   9.796  0.4704  0.3876 -0.0431
 2265TIP3    H230991   0.126   5.792   9.793 -0.6548  0.8453  0.9183
 2266TIP3   OH230992   0.833   6.531   8.878  0.0036 -0.2521  0.4182
 2266TIP3    H130993   0.886   6.545   8.800 -2.2217 -0.3944 -1.2298
 2266TIP3    H230994   0.763   6.596   8.871 -1.6569 -1.9054  0.9343
 2267TIP3   OH230995   0.385   6.841  10.006 -0.6487 -0.3243 -0.3796
 2267TIP3    H130996   0.323   6.813  10.074 -0.6039 -0.5778 -0.4409
 2267TIP3    H230997   0.446   6.767   9.998  0.1271  0.2390  0.2328
 2268TIP3   OH230998   4.324   7.463   9.330 -0.2923  0.7306 -0.8561
 2268TIP3    H130999   4.262   7.534   9.316 -1.0309  0.2632 -0.0903
 2268TIP3    H231000   4.401   7.505   9.368 -0.8973  1.0741  0.0126
 2269TIP3   OH231001   6.457   5.527   9.568  0.0023 -0.3741 -0.1162
 2269TIP3    H131002   6.421   5.439   9.582 -0.3785 -0.1067  0.6163
 2269TIP3    H231003   6.442   5.572   9.651 -0.2320  0.5369 -0.6478
 2270TIP3   OH231004   7.675   6.596  10.450 -0.1363  0.4546 -0.1970
 2270TIP3    H131005   7.588   6.593  10.490 -0.6401 -1.4429 -1.3005
 2270TIP3    H231006   7.687   6.688  10.427 -1.4930  0.8981  0.7300
 2271TIP3   OH231007   0.925   5.432   9.782  0.2541 -0.4352  0.2254
 2271TIP3    H131008   0.986   5.469   9.718 -1.0519  1.1867 -0.1524
 2271TIP3    H231009   0.976   5.421   9.862  0.9321  1.4609  0.0968
 2272TIP3   OH231010   6.537   0.409   8.877 -0.0549 -0.8672  0.3137
 2272TIP3    H131011   6.620   0.362   8.886  1.3065  1.5354  1.2684
 2272TIP3    H231012   6.542   0.449   8.790 -0.4464 -1.1133  0.1767
 2273TIP3   OH231013   0.912   1.018  10.109 -0.2398  0.0742  0.6102
 2273TIP3    H131014   0.948   0.965  10.039 -1.3770  0.3821 -0.2452
 2273TIP3    H231015   0.967   1.000  10.185  1.2029 -0.0476 -0.4291
 2274TIP3   OH231016   3.660   6.307   9.397  0.4877  0.4445 -0.2005
 2274TIP3    H131017   3.633   6.398   9.411 -0.6593 -0.0865  1.3182
 2274TIP3    H231018   3.756   6.311   9.392  0.4645  1.7233 -0.0292
 2275TIP3   OH231019   5.439   3.999   9.217  0.1364  0.2436  0.2854
 2275TIP3    H131020   5.462   3.978   9.307  0.4118 -0.1744  0.1195
 2275TIP3    H231021   5.419   3.915   9.176  1.4175  0.2485 -0.4251
 2276TIP3   OH231022   0.907   1.725  10.348 -0.1232  0.1373 -0.5567
 2276TIP3    H131023   0.903   1.630  10.351  2.0047 -0.0096 -0.9096
 2276TIP3    H231024   0.835   1.754  10.403  0.8163 -1.7009  1.7977
 2277TIP3   OH231025   2.208   5.210   9.166  0.0714  0.2960 -0.3122
 2277TIP3    H131026   2.120   5.179   9.144 -0.3823  0.9064  0.5716
 2277TIP3    H231027   2.259   5.195   9.087 -0.0577 -2.7913  0.0501
 2278TIP3   OH231028   6.782   4.570   8.777 -0.5197  0.0928  0.3185
 2278TIP3    H131029   6.803   4.608   8.692 -0.5527  0.3417  0.4198
 2278TIP3    H231030   6.695   4.604   8.798 -0.9173 -0.7170  0.0260
 2279TIP3   OH231031   2.711   1.704   9.876 -0.3123  0.1524 -0.6159
 2279TIP3    H131032   2.685   1.614   9.896  3.0427 -1.0781 -1.2172
 2279TIP3    H231033   2.749   1.700   9.788  1.9170  1.6173  0.1829
 2280TIP3   OH231034   4.828   0.576   9.136 -0.0382 -0.3105 -0.1505
 2280TIP3    H131035   4.818   0.612   9.224 -1.0132 -0.0393 -0.3554
 2280TIP3    H231036   4.913   0.607   9.106  0.5308 -0.8387  0.8878
 2281TIP3   OH231037   7.333   0.092  11.448  0.0598 -0.2418 -0.0667
 2281TIP3    H131038   7.335   0.122  11.539  0.9504 -0.1254 -0.1160
 2281TIP3    H231039   7.389   0.014  11.448  0.9554  0.3859 -0.7262
 2282TIP3   OH231040   0.914   4.197  10.114 -0.0517 -0.0375 -0.3873
 2282TIP3    H131041   1.008   4.213  10.124 -0.2638  1.0932 -0.0764
 2282TIP3    H231042   0.887   4.163  10.199  0.1919 -1.0904 -0.7067
 2283TIP3   OH231043   6.678   5.704   8.761 -0.3425 -0.0898 -0.3160
 2283TIP3    H131044   6.735   5.704   8.684 -0.8190  0.3767 -0.6679
 2283TIP3    H231045   6.702   5.783   8.808  0.2051 -0.5608  0.2138
 2284TIP3   OH231046   1.468   3.944  10.986 -0.5858 -0.3327 -0.1026
 2284TIP3    H131047   1.380   3.908  10.975 -0.5869 -0.1038 -0.9188
 2284TIP3    H231048   1.488   3.984  10.902 -0.2006  0.7450  0.4908
 2285TIP3   OH231049   2.990   3.996  10.420 -0.0985  0.1029 -0.0698
 2285TIP3    H131050   2.961   3.956  10.502  1.5667  3.1519  2.2023
 2285TIP3    H231051   3.008   4.087  10.442  0.8486  0.9914 -3.7754
 2286TIP3   OH231052   5.246   5.511  10.946  0.0151 -0.5819  0.6051
 2286TIP3    H131053   5.230   5.593  10.992 -0.3925 -1.2385  1.6827
 2286TIP3    H231054   5.165   5.461  10.957  0.2756 -1.1548  0.0191
 2287TIP3   OH231055   6.125   2.696  10.560 -0.1271 -0.3675 -0.2121
 2287TIP3    H131056   6.162   2.697  10.648 -0.4108  1.0909 -0.0835
 2287TIP3    H231057   6.031   2.684  10.573 -0.4768  2.0137 -0.1359
 2288TIP3   OH231058   1.202   0.389  10.808  0.2546 -0.3415  0.3006
 2288TIP3    H131059   1.209   0.381  10.903 -0.7179 -0.7390  0.3522
 2288TIP3    H231060   1.190   0.299  10.777  1.4112 -0.3107 -0.2874
 2289TIP3   OH231061   6.778   0.162   9.957 -0.9979 -0.0549 -0.2883
 2289TIP3    H131062   6.762   0.248   9.996  0.1027 -0.0293  0.1410
 2289TIP3    H231063   6.870   0.142   9.978 -1.2347 -1.3427 -0.3575
 2290TIP3   OH231064   1.212   4.155   9.101  0.3332  0.1040  0.4468
 2290TIP3    H131065   1.202   4.099   9.178 -2.4063 -2.0602 -1.3140
 2290TIP3    H231066   1.269   4.105   9.042  0.5206  0.6761  0.1336
 2291TIP3   OH231067   7.309   7.533   9.804 -0.4593  0.6449 -0.0533
 2291TIP3    H131068   7.229   7.572   9.767  0.8064  0.8208 -2.8502
 2291TIP3    H231069   7.359   7.504   9.727  2.6347  1.4265  1.5274
 2292TIP3   OH231070   0.804   2.087  10.708 -0.2863 -0.2252 -0.3718
 2292TIP3    H131071   0.833   2.148  10.641 -1.0575  1.7299  0.9743
 2292TIP3    H231072   0.790   2.142  10.786  0.8718 -2.4076  1.5128
 2293TIP3   OH231073   3.332   0.116   8.249  0.0702 -0.5619 -0.6825
 2293TIP3    H131074   3.343   0.041   8.309 -1.0637 -0.0520  0.2124
 2293TIP3    H231075   3.409   0.113   8.193  1.0749 -1.2022  0.6663
 2294TIP3   OH231076   1.141   5.841  10.603  0.7254 -0.4958  0.5639
 2294TIP3    H131077   1.209   5.873  10.544  0.2874 -0.7566 -0.0891
 2294TIP3    H231078   1.188   5.819  10.684  1.1252  1.2281  0.8382
 2295TIP3   OH231079   2.874   4.216  11.014 -0.9736  0.7585  0.3883
 2295TIP3    H131080   2.918   4.147  10.965  1.1572  0.6673  2.2701
 2295TIP3    H231081   2.935   4.289  11.013 -1.7117  1.4116  1.2787
 2296TIP3   OH231082   0.297   5.767   9.470  0.1319 -0.0201  0.4400
 2296TIP3    H131083   0.251   5.789   9.389  1.6714 -1.6417 -0.9740
 2296TIP3    H231084   0.361   5.837   9.482  0.3409 -0.1056 -0.1384
 2297TIP3   OH231085   3.053   7.418  11.118  0.4667 -0.2782 -0.0680
 2297TIP3    H131086   3.061   7.512  11.136 -1.4977 -0.2408  0.7798
 2297TIP3    H231087   3.113   7.377  11.181  1.3691  0.3912 -0.4687
 2298TIP3   OH231088   3.761   4.311  10.513  0.0588 -0.4825 -0.4909
 2298TIP3    H131089   3.793   4.401  10.520 -1.1039 -0.1589  1.7843
 2298TIP3    H231090   3.813   4.262  10.577  0.5011 -1.4002 -1.5258
 2299TIP3   OH231091   4.480   0.111   9.778  0.5002  0.1467 -0.0165
 2299TIP3    H131092   4.478   0.184   9.716 -3.5449  0.3295  0.0350
 2299TIP3    H231093   4.540   0.140   9.847 -1.1457  3.6896  0.1874
 2300TIP3   OH231094   5.151   5.227   9.635  0.5562 -0.2238  0.0258
 2300TIP3    H131095   5.141   5.311   9.590 -0.3563  1.2458  2.7329
 2300TIP3    H231096   5.215   5.243   9.704 -0.3350 -1.4412  1.2124
 2301TIP3   OH231097   1.169   4.400  10.630  0.0376  0.0572  0.1996
 2301TIP3    H131098   1.115   4.328  10.598 -0.0257 -0.3023  1.0931
 2301TIP3    H231099   1.259   4.374  10.612  0.0615 -0.5997  1.1827
 2302TIP3   OH231100   7.285   2.676   9.400  0.0326  0.2377 -0.7180
 2302TIP3    H131101   7.371   2.693   9.437 -0.6016  0.4642  0.7386
 2302TIP3    H231102   7.264   2.755   9.350  0.1634  0.6838 -0.0732
 2303TIP3   OH231103   1.076   0.868   8.865  0.0739  0.1524  0.0592
 2303TIP3    H131104   1.021   0.835   8.793 -0.2470 -0.1344  0.4320
 2303TIP3    H231105   1.095   0.958   8.841  1.1996 -0.3691 -1.1284
 2304TIP3   OH231106   6.513   0.144   9.794  0.5601 -0.2634 -0.5447
 2304TIP3    H131107   6.604   0.127   9.820  0.4059  0.4437  0.5310
 2304TIP3    H231108   6.508   0.239   9.786  0.1538 -0.3623 -1.5683
 2305TIP3   OH231109   3.378   3.866   9.072  0.2680  0.3188  0.2029
 2305TIP3    H131110   3.298   3.814   9.073 -0.2003  1.0287  1.2132
 2305TIP3    H231111   3.397   3.883   9.165  0.8744  1.2379 -0.0784
 2306TIP3   OH231112   0.860   0.096   9.850 -0.3753 -0.2693  0.1443
 2306TIP3    H131113   0.775   0.053   9.853 -0.0931 -0.8971 -0.6927
 2306TIP3    H231114   0.851   0.163   9.783 -0.2207 -0.3097  0.0829
 2307TIP3   OH231115   6.886   5.143   9.738 -0.0659  0.2715 -0.0146
 2307TIP3    H131116   6.982   5.142   9.745  0.1074 -1.1638 -1.7098
 2307TIP3    H231117   6.856   5.086   9.809  0.3532  0.4631  0.3200
 2308TIP3   OH231118   3.420   1.480  10.788  0.0658  0.7761 -0.3400
 2308TIP3    H131119   3.506   1.518  10.767 -0.5089  2.4530  0.1664
 2308TIP3    H231120   3.359   1.527  10.731 -0.4080 -1.4518 -1.8186
 2309TIP3   OH231121   7.636   2.453  10.707  0.3091  0.0493  0.1404
 2309TIP3    H131122   7.648   2.387  10.775  0.8016 -0.7932 -0.7415
 2309TIP3    H231123   7.624   2.402  10.626 -1.0458  1.0056 -0.3029
 2310TIP3   OH231124   3.368   3.500  10.775 -0.4493  0.0330 -0.3366
 2310TIP3    H131125   3.440   3.544  10.820 -1.6025 -0.4914  2.1546
 2310TIP3    H231126   3.338   3.564  10.710  1.3355  0.7842 -0.4799
 2311TIP3   OH231127   1.986   2.769   9.386 -0.2762  0.3200  0.4006
 2311TIP3    H131128   2.015   2.813   9.306 -0.4625  0.2537  0.2966
 2311TIP3    H231129   1.975   2.840   9.449  1.7309  0.1958  0.9516
 2312TIP3   OH231130   6.291   0.888   9.621 -0.6288 -0.3807 -0.3132
 2312TIP3    H131131   6.332   0.947   9.685  0.5758 -0.9849 -0.5081
 2312TIP3    H231132   6.209   0.931   9.599 -1.0747 -0.1379  1.6154
 2313TIP3   OH231133   1.839   3.872  11.158 -0.0662 -0.0759 -0.2839
 2313TIP3    H131134   1.827   3.789  11.112 -0.4126 -0.2148  0.0574
 2313TIP3    H231135   1.873   3.848  11.244 -1.4512  0.0376  0.3183
 2314TIP3   OH231136   0.305   6.197   8.702  0.1298  0.1078 -0.1581
 2314TIP3    H131137   0.228   6.156   8.662  0.2576  0.1500 -0.4549
 2314TIP3    H231138   0.379   6.150   8.663  0.2502 -0.0231  0.2305
 2315TIP3   OH231139   4.152   3.117   9.173  0.1813 -0.1296  0.3770
 2315TIP3    H131140   4.171   3.203   9.135 -1.2701  0.2750  0.5112
 2315TIP3    H231141   4.235   3.070   9.167  0.9846  1.2438  0.2251
 2316TIP3   OH231142   7.318   3.799   8.636  0.3215  0.0883  0.3657
 2316TIP3    H131143   7.319   3.708   8.609  0.1714  0.3824 -0.6676
 2316TIP3    H231144   7.232   3.831   8.610  1.7367  1.5947 -3.1019
 2317TIP3   OH231145   0.381   7.044  10.350 -0.3722 -0.0062 -0.1009
 2317TIP3    H131146   0.355   7.129  10.313 -1.4964 -0.2942 -0.0256
 2317TIP3    H231147   0.355   7.049  10.442 -1.5685 -0.8560 -0.3677
 2318TIP3   OH231148   6.899   6.520  10.312 -0.4090 -0.2298  0.4345
 2318TIP3    H131149   6.925   6.562  10.394 -3.2471  0.6645  1.0112
 2318TIP3    H231150   6.963   6.551  10.248 -0.9019  3.1731  1.3435
 2319TIP3   OH231151   5.494   4.563   9.407 -0.3979 -0.4385  0.6032
 2319TIP3    H131152   5.400   4.557   9.427 -0.4019  2.1215  1.7335
 2319TIP3    H231153   5.502   4.642   9.354  1.1496 -0.4866  0.7360
 2320TIP3   OH231154   1.396   0.236  10.206 -0.3405 -0.1685  0.2475
 2320TIP3    H131155   1.406   0.237  10.111 -0.3965 -0.8925  0.2296
 2320TIP3    H231156   1.340   0.311  10.226  0.1035  0.2998 -0.2366
 2321TIP3   OH231157   7.525   5.634   9.627 -0.4438 -0.2880 -0.6884
 2321TIP3    H131158   7.599   5.682   9.663  0.5668 -2.1961 -0.0591
 2321TIP3    H231159   7.478   5.602   9.703 -1.1216 -0.2652 -1.0883
 2322TIP3   OH231160   2.288   4.361   9.297 -0.2463 -0.6830 -0.3810
 2322TIP3    H131161   2.256   4.387   9.383 -1.1308 -0.0509 -0.8889
 2322TIP3    H231162   2.362   4.419   9.280 -0.0917 -0.7854 -0.0633
 2323TIP3   OH231163   5.978   4.428  10.068  0.1012  0.5625  0.3392
 2323TIP3    H131164   6.054   4.485  10.058 -0.9930  1.8666 -1.0943
 2323TIP3    H231165   5.986   4.365   9.996  1.4466 -1.3778  2.0701
 2324TIP3   OH231166   2.689   6.007   9.339 -0.8102 -0.4414 -0.4115
 2324TIP3    H131167   2.620   5.950   9.373  0.2991 -1.4748  0.1595
 2324TIP3    H231168   2.750   6.016   9.412  0.1266 -0.2902 -1.2030
 2325TIP3   OH231169   7.423   5.602  10.327  0.2353  0.8077 -0.5032
 2325TIP3    H131170   7.418   5.513  10.361 -2.0742  0.3949 -1.6879
 2325TIP3    H231171   7.455   5.655  10.400 -1.5608 -0.4773  1.3049
 2326TIP3   OH231172   2.263   6.318  10.345  0.3679 -0.2349  0.1841
 2326TIP3    H131173   2.279   6.239  10.293  1.3189 -0.4168  0.7331
 2326TIP3    H231174   2.172   6.309  10.375  0.9818 -2.0043  1.6875
 2327TIP3   OH231175   5.168   3.967  10.490  0.3948  0.1230  0.0985
 2327TIP3    H131176   5.203   3.995  10.575  0.2921  0.8059 -0.0762
 2327TIP3    H231177   5.242   3.925  10.446  0.6686  0.4802  0.2133
 2328TIP3   OH231178   0.381   5.442  10.624 -0.5632  0.5598  0.2617
 2328TIP3    H131179   0.325   5.520  10.622 -1.5450 -0.1011 -2.4713
 2328TIP3    H231180   0.448   5.459  10.558 -1.5009 -1.3460 -1.2554
 2329TIP3   OH231181   3.263   5.863  11.012  0.5753 -0.4094 -0.3233
 2329TIP3    H131182   3.275   5.858  10.917  0.3134 -0.3606 -0.3608
 2329TIP3    H231183   3.349   5.886  11.046  0.2655  1.4711 -0.7032
 2330TIP3   OH231184   1.558   7.024   9.799 -0.2576  0.0983  0.2873
 2330TIP3    H131185   1.491   6.993   9.860 -1.3876  1.2288 -0.3203
 2330TIP3    H231186   1.566   7.117   9.818  0.5084  0.1451 -0.2398
 2331TIP3   OH231187   2.362   0.038  10.148  0.9694 -0.1159  0.0577
 2331TIP3    H131188   2.311  -0.042  10.144  1.2119 -0.2453 -0.9585
 2331TIP3    H231189   2.394   0.043  10.238  1.2814 -1.3741  0.0315
 2332TIP3   OH231190   5.821   3.481  10.350  0.3355  0.2932 -0.4431
 2332TIP3    H131191   5.800   3.393  10.319  0.4521 -1.0115  2.7670
 2332TIP3    H231192   5.883   3.515  10.286  1.1689 -2.4169 -1.1978
 2333TIP3   OH231193   3.877   3.205   9.760 -0.5380 -0.2819  0.4281
 2333TIP3    H131194   3.898   3.151   9.683 -0.2189  0.7281 -0.2226
 2333TIP3    H231195   3.792   3.243   9.740 -0.4006  0.0760  0.5172
 2334TIP3   OH231196   1.656   4.196   9.153  0.2224 -0.1083  0.0777
 2334TIP3    H131197   1.586   4.251   9.118  1.2572  0.2401 -1.5311
 2334TIP3    H231198   1.687   4.145   9.078  0.1158 -2.0052  1.2793
 2335TIP3   OH231199   4.876   0.826   9.912 -0.4148 -1.0754  0.2214
 2335TIP3    H131200   4.787   0.854   9.894  0.1674  0.9900  0.2780
 2335TIP3    H231201   4.887   0.842  10.006 -0.0792 -1.6325  0.2825
 2336TIP3   OH231202   3.553   4.128   8.108  0.0503  0.2015 -0.2190
 2336TIP3    H131203   3.477   4.070   8.113 -0.0159  0.2703 -0.4246
 2336TIP3    H231204   3.575   4.147   8.200 -0.5268  0.6382 -0.1670
 2337TIP3   OH231205   5.038   4.846   9.094  0.2390  0.1766  0.1555
 2337TIP3    H131206   4.953   4.863   9.053 -0.4026  1.2451  1.7850
 2337TIP3    H231207   5.103   4.866   9.027 -0.7790 -0.8336 -1.1807
 2338TIP3   OH231208   4.003   0.090   8.297  0.2179 -0.1604  0.0764
 2338TIP3    H131209   4.066   0.120   8.363  1.1089  1.0610 -1.2661
 2338TIP3    H231210   3.918   0.097   8.340  0.7606  0.7591  1.0535
 2339TIP3   OH231211   5.643   7.642  10.685 -0.0246  0.0320 -0.3341
 2339TIP3    H131212   5.712   7.695  10.725 -0.6200  0.9362 -0.4549
 2339TIP3    H231213   5.662   7.553  10.713  0.8234  0.3503  0.1576
 2340TIP3   OH231214   6.988   7.165  10.889 -0.3914 -0.0522  0.7161
 2340TIP3    H131215   7.080   7.185  10.905  0.0961 -2.2133  0.9348
 2340TIP3    H231216   6.987   7.130  10.799 -1.3201  1.5743  0.0446
 2341TIP3   OH231217   7.542   2.741   8.336 -0.3084 -0.0621 -0.1381
 2341TIP3    H131218   7.527   2.765   8.244 -1.2190 -2.0009 -0.5498
 2341TIP3    H231219   7.455   2.716   8.368 -0.0054  0.6366  1.2897
 2342TIP3   OH231220   1.826   0.808   9.766 -0.0898 -0.6348 -0.2809
 2342TIP3    H131221   1.735   0.794   9.741  0.0374 -0.2292 -0.9916
 2342TIP3    H231222   1.833   0.903   9.779  0.4880 -0.5270 -1.2818
 2343TIP3   OH231223   3.113   1.497   8.430 -0.2075 -0.1430  0.2011
 2343TIP3    H131224   3.158   1.436   8.489 -2.9610 -1.3903  1.1611
 2343TIP3    H231225   3.168   1.499   8.352  1.9772 -0.7945  1.6179
 2344TIP3   OH231226   2.383   5.939  10.911  0.3718 -0.3503  0.1835
 2344TIP3    H131227   2.453   5.996  10.944  0.8806 -2.4524  3.1463
 2344TIP3    H231228   2.429   5.872  10.861  0.3696 -0.9061  0.9033
 2345TIP3   OH231229   3.832   7.292   8.897  0.1724 -0.3584 -0.2615
 2345TIP3    H131230   3.909   7.265   8.947  0.2692 -0.2206 -0.3374
 2345TIP3    H231231   3.795   7.210   8.864 -1.9841 -0.9210  3.0256
 2346TIP3   OH231232   3.403   0.663   8.960 -0.2151  0.2317 -0.1135
 2346TIP3    H131233   3.449   0.677   8.877 -0.4908  0.5762 -0.2114
 2346TIP3    H231234   3.342   0.591   8.941 -0.5399  0.5583 -0.3176
 2347TIP3   OH231235   4.465   5.743   9.267 -0.7622  0.3400 -0.5384
 2347TIP3    H131236   4.501   5.727   9.179 -0.0128  0.1124 -0.2008
 2347TIP3    H231237   4.479   5.836   9.281  2.2866 -0.1842  0.6627
 2348TIP3   OH231238   7.204   0.488   9.605  0.2367 -0.4512 -0.2078
 2348TIP3    H131239   7.232   0.539   9.529  2.5459 -1.6095 -0.2139
 2348TIP3    H231240   7.145   0.421   9.570  0.3162 -0.2249 -0.7776
 2349TIP3   OH231241   7.571   6.761   9.588  0.5104  0.2039  0.1553
 2349TIP3    H131242   7.531   6.723   9.667  2.7956 -2.4978  0.1734
 2349TIP3    H231243   7.609   6.843   9.618 -0.5287  0.2840  1.3426
 2350TIP3   OH231244   0.475   0.319  10.336  0.2469  0.0528 -0.3900
 2350TIP3    H131245   0.494   0.290  10.426 -0.2647  1.8426  0.3319
 2350TIP3    H231246   0.421   0.248  10.300 -1.6940  0.3833  1.5957
 2351TIP3   OH231247   3.397   2.011   9.757  0.1374  0.1262 -0.2979
 2351TIP3    H131248   3.407   2.106   9.769  1.5531 -0.2393  2.0874
 2351TIP3    H231249   3.328   2.003   9.691 -0.6119  2.8087  0.0152
 2352TIP3   OH231250   1.177   6.918   8.215  0.2617  0.1606  0.1319
 2352TIP3    H131251   1.189   7.011   8.235 -1.4280  0.6811 -0.9812
 2352TIP3    H231252   1.095   6.895   8.259  0.1160 -0.5123 -0.4819
 2353TIP3   OH231253   1.877   2.141   8.720  0.0597 -0.1537  0.3847
 2353TIP3    H131254   1.826   2.093   8.654 -0.4192  1.1186 -0.1960
 2353TIP3    H231255   1.890   2.077   8.790  0.9134 -1.6591 -1.0855
 2354TIP3   OH231256   3.277   1.120  10.471 -0.2293  0.5233  0.0333
 2354TIP3    H131257   3.254   1.207  10.503 -0.1339  0.8551 -0.7914
 2354TIP3    H231258   3.366   1.129  10.437  0.3668 -0.2609  1.3017
 2355TIP3   OH231259   1.202   6.308  10.336 -0.4911  0.0861  0.2698
 2355TIP3    H131260   1.158   6.323  10.420 -0.3852  0.2130  0.3036
 2355TIP3    H231261   1.284   6.265  10.360 -1.2611 -1.5190  0.0914
 2356TIP3   OH231262   6.993   0.920  10.053 -0.0155  0.5865  0.3358
 2356TIP3    H131263   6.994   0.961  10.139 -0.5002 -0.8496  1.0511
 2356TIP3    H231264   6.932   0.847  10.061  0.4139  0.0342 -1.0398
 2357TIP3   OH231265   1.510   1.623   9.756 -0.7175  0.4510 -0.1755
 2357TIP3    H131266   1.516   1.716   9.777 -0.5048  0.3665  0.1344
 2357TIP3    H231267   1.505   1.579   9.841  2.5480 -0.0764 -0.1524
 2358TIP3   OH231268   5.373   1.420   9.734  0.5279 -0.0233  0.1481
 2358TIP3    H131269   5.449   1.365   9.715  1.0426  1.4418 -2.4859
 2358TIP3    H231270   5.408   1.492   9.787  1.0383  0.7377 -1.2001
 2359TIP3   OH231271   3.831   2.186   9.430  0.2037  0.1737  0.3082
 2359TIP3    H131272   3.900   2.147   9.483 -0.1962 -1.0114 -0.0121
 2359TIP3    H231273   3.750   2.159   9.474 -0.0698  1.1046  0.3806
 2360TIP3   OH231274   5.361   0.931   9.358 -0.2095 -0.0604 -0.0636
 2360TIP3    H131275   5.328   1.003   9.304  0.7043  1.9312  1.8649
 2360TIP3    H231276   5.412   0.877   9.298 -0.7446  1.0361 -1.5482
 2361TIP3   OH231277   5.078   6.902   9.625  0.2525 -0.1268 -0.9840
 2361TIP3    H131278   5.015   6.928   9.558  0.5077 -0.5580 -1.3977
 2361TIP3    H231279   5.152   6.962   9.613 -0.6158  1.2815  0.3873
 2362TIP3   OH231280   0.758   4.753  10.785 -0.2278  0.4325 -0.4582
 2362TIP3    H131281   0.840   4.801  10.778 -0.1973  0.5198  0.3799
 2362TIP3    H231282   0.783   4.666  10.815 -0.3608  0.1511 -1.1443
 2363TIP3   OH231283   2.900   1.025   9.895 -0.2119 -0.2198  0.0877
 2363TIP3    H131284   2.921   0.941   9.936 -1.1785 -0.8962 -0.7507
 2363TIP3    H231285   2.962   1.032   9.822 -0.1746 -0.2306  0.1188
 2364TIP3   OH231286   0.729   3.743   8.697 -0.1930 -0.4407  0.3310
 2364TIP3    H131287   0.639   3.721   8.670  0.1042 -0.0060 -1.1388
 2364TIP3    H231288   0.769   3.779   8.617  1.4017 -0.9663  0.8622
 2365TIP3   OH231289   2.483   5.826  10.677  0.1913  0.2532  0.2497
 2365TIP3    H131290   2.459   5.887  10.607 -1.3702 -0.9899 -0.3506
 2365TIP3    H231291   2.481   5.740  10.636  1.0479 -0.3475  1.4032
 2366TIP3   OH231292   1.579   1.832  10.425  0.8052  0.2008 -0.0396
 2366TIP3    H131293   1.593   1.754  10.478 -0.2376 -0.5610 -0.8449
 2366TIP3    H231294   1.488   1.858  10.442 -0.3784 -1.4574 -3.1270
 2367TIP3   OH231295   4.832   1.603   9.934  0.7004 -0.3924 -0.4456
 2367TIP3    H131296   4.773   1.662   9.980  0.9893 -0.1212 -0.4208
 2367TIP3    H231297   4.886   1.563  10.003  2.1146  1.0800 -0.6345
 2368TIP3   OH231298   5.775   3.100   8.713  0.1870  0.1283  0.3104
 2368TIP3    H131299   5.766   3.116   8.619 -1.0885  0.8424  0.5228
 2368TIP3    H231300   5.844   3.159   8.741  3.1608 -2.5732 -0.7149
 2369TIP3   OH231301   5.863   6.293  11.126  0.3039  0.0370  0.6875
 2369TIP3    H131302   5.837   6.378  11.161 -0.2942  0.4182 -0.6117
 2369TIP3    H231303   5.816   6.229  11.178  1.4257  0.4323  2.2568
 2370TIP3   OH231304   1.348   1.490   8.299  0.0788  0.3224  0.4557
 2370TIP3    H131305   1.278   1.546   8.264  0.3800  0.3454 -0.1212
 2370TIP3    H231306   1.343   1.502   8.393 -1.4458 -0.5520  0.5175
 2371TIP3   OH231307   0.378   2.158  11.123 -0.3769  0.0189 -0.2262
 2371TIP3    H131308   0.350   2.199  11.041 -2.7981 -0.0871  0.4618
 2371TIP3    H231309   0.352   2.066  11.114 -1.8004  0.2527  1.0783
 2372TIP3   OH231310   2.594   7.100   9.335  0.4641  0.4960 -0.5269
 2372TIP3    H131311   2.534   7.121   9.406  0.7343 -1.3000  0.3134
 2372TIP3    H231312   2.624   7.184   9.301  1.1930  1.4520  2.2455
 2373TIP3   OH231313   2.686   5.100   8.875 -0.1252  0.4936 -0.0205
 2373TIP3    H131314   2.692   5.173   8.813  0.1178  0.4687 -0.0259
 2373TIP3    H231315   2.592   5.092   8.894 -0.1366  0.9057  0.0974
 2374TIP3   OH231316   4.453   6.188   9.666 -0.4733 -0.1056  0.3866
 2374TIP3    H131317   4.526   6.145   9.711 -0.4083  0.8264  1.1915
 2374TIP3    H231318   4.491   6.268   9.629 -0.9856  0.1556  0.4193
 2375TIP3   OH231319   1.985   0.854   9.527  0.5516 -0.1063  0.1488
 2375TIP3    H131320   1.963   0.936   9.483  0.6280 -0.3108 -0.2787
 2375TIP3    H231321   1.913   0.840   9.588 -0.6996 -0.9000 -1.4187
 2376TIP3   OH231322   2.611   3.957  10.525  0.2583 -0.1881  0.4951
 2376TIP3    H131323   2.617   4.035  10.580  2.5973 -0.8672  1.3094
 2376TIP3    H231324   2.697   3.917  10.531 -0.3919 -1.9867 -1.2046
 2377TIP3   OH231325   3.586   6.581  10.959  0.1001  0.2924  0.6492
 2377TIP3    H131326   3.534   6.575  11.040  0.2713  0.7714  0.7987
 2377TIP3    H231327   3.676   6.593  10.989  0.4361 -1.4005  0.3967
 2378TIP3   OH231328   4.858   7.061  11.149 -0.4069 -0.0579  0.4393
 2378TIP3    H131329   4.845   7.155  11.135 -0.5793 -0.0043  0.9303
 2378TIP3    H231330   4.933   7.039  11.094 -1.3576  0.0207 -0.9348
 2379TIP3   OH231331   5.745   0.556  10.725  0.3319  0.6126  0.4641
 2379TIP3    H131332   5.822   0.594  10.767  1.7925  1.4101 -2.6120
 2379TIP3    H231333   5.678   0.624  10.733  0.1561  0.2785  2.3621
 2380TIP3   OH231334   6.218   2.434  10.238 -0.0429 -0.0416  0.5855
 2380TIP3    H131335   6.153   2.391  10.182  0.9400  0.4103 -0.9921
 2380TIP3    H231336   6.288   2.368  10.247  0.0377  0.0783  0.8225
 2381TIP3   OH231337   3.921   3.691  10.355  0.2375 -0.2558  0.0927
 2381TIP3    H131338   3.865   3.613  10.352 -1.0475  0.6353  0.2433
 2381TIP3    H231339   3.930   3.710  10.448 -1.9923  1.5002  0.0248
 2382TIP3   OH231340   3.222   3.702   9.267  0.5547 -0.4171  0.0474
 2382TIP3    H131341   3.242   3.609   9.279  0.7373 -0.4579 -0.5083
 2382TIP3    H231342   3.300   3.748   9.296  1.4563 -0.5662 -1.9226
 2383TIP3   OH231343   5.734   6.030  10.912 -0.4783  0.6105  0.5453
 2383TIP3    H131344   5.678   6.049  10.836  0.0385  1.2189  0.3105
 2383TIP3    H231345   5.681   5.971  10.966  0.0234 -1.8828 -1.4289
 2384TIP3   OH231346   0.423   1.439   9.469 -0.1794 -0.4571 -0.1250
 2384TIP3    H131347   0.400   1.525   9.434 -2.4595 -1.1214 -0.4646
 2384TIP3    H231348   0.435   1.454   9.563  0.3024  0.3741 -0.3182
 2385TIP3   OH231349   2.149   2.313   9.635  0.1844  0.0150  0.3362
 2385TIP3    H131350   2.179   2.372   9.565 -0.1045 -0.4311 -0.1683
 2385TIP3    H231351   2.150   2.226   9.595 -0.0508 -0.2372  0.8711
 2386TIP3   OH231352   3.599   0.128  10.164 -0.0362  0.6484  0.7298
 2386TIP3    H131353   3.626   0.064  10.230 -0.3847  1.2861  1.5156
 2386TIP3    H231354   3.520   0.167  10.200 -1.0938 -0.0398 -0.7795
 2387TIP3   OH231355   3.531   5.807  10.010 -0.0942  0.5641  0.1352
 2387TIP3    H131356   3.512   5.886  10.061  0.1586  0.9332 -0.3369
 2387TIP3    H231357   3.617   5.779  10.042  0.8267  1.7123 -1.1768
 2388TIP3   OH231358   3.348   7.511  10.976  0.8780 -0.9524  0.1288
 2388TIP3    H131359   3.398   7.592  10.988 -1.3039  0.4137  0.5342
 2388TIP3    H231360   3.368   7.484  10.886  1.4406  0.1773 -0.1122
 2389TIP3   OH231361   0.329   2.332   8.720  0.5526 -0.0939  0.3475
 2389TIP3    H131362   0.268   2.355   8.651 -0.2111  1.0877  1.3889
 2389TIP3    H231363   0.414   2.361   8.688  0.1125  1.0214  0.1562
 2390TIP3   OH231364   2.490   1.034   9.855  0.6972 -0.1421 -0.1837
 2390TIP3    H131365   2.442   1.012   9.935 -0.0523 -1.2255 -0.8926
 2390TIP3    H231366   2.436   1.100   9.812 -0.1290 -1.2323 -0.8937
 2391TIP3   OH231367   3.672   4.485  10.833 -0.5543 -0.0687 -0.1433
 2391TIP3    H131368   3.712   4.542  10.899  0.3860 -0.4213 -0.3898
 2391TIP3    H231369   3.583   4.470  10.865 -1.5771  3.1453 -1.0572
 2392TIP3   OH231370   4.162   4.343  10.404 -0.4438  0.4529 -0.0680
 2392TIP3    H131371   4.087   4.403  10.394 -0.1267  0.6551 -1.4872
 2392TIP3    H231372   4.238   4.400  10.395 -0.1209  0.1301  0.6145
 2393TIP3   OH231373   7.584   6.009  10.038 -0.6232  0.2783  0.0934
 2393TIP3    H131374   7.604   6.077   9.973 -0.7404 -0.1183 -0.3701
 2393TIP3    H231375   7.637   5.934  10.011 -0.9245  0.0009  0.2604
 2394TIP3   OH231376   4.093   3.747   9.878  0.0488  0.4600  0.0176
 2394TIP3    H131377   4.147   3.776   9.805 -0.1113  1.1195  0.1542
 2394TIP3    H231378   4.072   3.655   9.858  0.1653  0.5786 -0.6593
 2395TIP3   OH231379   5.976   3.260   8.859  0.0397  0.5877  0.1710
 2395TIP3    H131380   5.943   3.349   8.860 -0.8910  0.2491  0.6089
 2395TIP3    H231381   6.050   3.262   8.798 -1.1294  1.2479 -1.2751
 2396TIP3   OH231382   4.731   6.394  10.409  0.2517  0.6570  0.3166
 2396TIP3    H131383   4.805   6.372  10.353 -0.3529  0.4313 -0.4146
 2396TIP3    H231384   4.734   6.328  10.479 -0.1307 -0.3023 -0.5363
 2397TIP3   OH231385   5.490   2.522   9.192 -0.4076 -0.2266  0.2084
 2397TIP3    H131386   5.436   2.593   9.229  0.6244 -0.1120  1.5774
 2397TIP3    H231387   5.579   2.541   9.224  0.8595  0.5554 -3.3264
 2398TIP3   OH231388   5.292   3.155  10.298 -0.0798 -0.1264 -0.0052
 2398TIP3    H131389   5.331   3.233  10.259 -0.3919  0.7120  1.3001
 2398TIP3    H231390   5.200   3.158  10.271  0.2215 -0.8542 -1.1666
 2399TIP3   OH231391   1.419   5.643   9.745  0.2583  0.4437  0.5927
 2399TIP3    H131392   1.507   5.667   9.772  1.0980 -0.0191 -1.5443
 2399TIP3    H231393   1.402   5.695   9.667 -1.1863  0.1558  0.6771
 2400TIP3   OH231394   3.997   4.949  11.070 -0.1938  0.4829 -0.2655
 2400TIP3    H131395   3.920   4.955  11.013 -0.7766  0.6913  0.5195
 2400TIP3    H231396   4.020   5.040  11.089  0.2537  0.4202 -0.5138
 2401TIP3   OH231397   3.392   7.224  10.185  0.2888 -0.2491 -0.0548
 2401TIP3    H131398   3.441   7.296  10.146 -2.2202  1.2622 -0.6180
 2401TIP3    H231399   3.351   7.180  10.110 -0.2811 -0.6364  0.4730
 2402TIP3   OH231400   7.610   3.804  10.395 -0.3861 -0.0069 -0.7901
 2402TIP3    H131401   7.586   3.711  10.395  2.1458 -0.7660  0.4581
 2402TIP3    H231402   7.652   3.818  10.480  0.1538  2.0351 -1.3360
 2403TIP3   OH231403   2.013   2.310   9.294 -0.2951  0.4036  0.3773
 2403TIP3    H131404   2.033   2.244   9.360  0.7078  0.0685 -0.2498
 2403TIP3    H231405   1.937   2.357   9.330 -1.6054 -1.6388  0.4441
 2404TIP3   OH231406   6.931   5.510   9.257 -0.1000  0.0739  0.4884
 2404TIP3    H131407   6.891   5.456   9.325 -1.6367  1.7569  1.0041
 2404TIP3    H231408   6.983   5.575   9.305  1.3767 -0.6393 -0.1000
 2405TIP3   OH231409   5.990   3.521   9.850  0.6455 -0.3480  0.3736
 2405TIP3    H131410   5.918   3.471   9.812  0.7319 -0.1333 -0.0793
 2405TIP3    H231411   6.069   3.473   9.826  0.6985 -0.2276  0.3040
 2406TIP3   OH231412   6.246   3.868  10.113  0.0533 -0.3991 -0.1882
 2406TIP3    H131413   6.258   3.963  10.108  0.0831 -0.4570 -1.8949
 2406TIP3    H231414   6.205   3.845  10.030  0.9891 -2.0024 -0.2496
 2407TIP3   OH231415   7.502   7.607   9.219  0.3202  0.0336 -0.1773
 2407TIP3    H131416   7.581   7.621   9.271 -0.0605  1.2749  0.1026
 2407TIP3    H231417   7.517   7.658   9.139  0.2954 -0.7017 -0.6636
 2408TIP3   OH231418   1.791   4.313  10.958 -0.0228 -0.4046 -0.3580
 2408TIP3    H131419   1.763   4.226  10.987 -0.7584 -0.0737 -0.0387
 2408TIP3    H231420   1.709   4.362  10.947  0.4382  0.7711  1.1360
 2409TIP3   OH231421   5.597   4.858  10.267 -0.4640 -0.5061 -0.2029
 2409TIP3    H131422   5.684   4.825  10.288 -0.3137  0.1154  0.1784
 2409TIP3    H231423   5.560   4.792  10.208 -0.0944 -1.2359  0.3639
 2410TIP3   OH231424   0.878   5.756   9.620 -0.1890 -0.8245  0.7939
 2410TIP3    H131425   0.788   5.728   9.606 -0.1079 -0.2866 -1.0567
 2410TIP3    H231426   0.872   5.828   9.682 -1.0150 -0.8510  0.7553
 2411TIP3   OH231427   1.628   1.831   9.095  0.0534 -0.3058  0.3678
 2411TIP3    H131428   1.601   1.753   9.047  0.8663 -0.1026 -0.4382
 2411TIP3    H231429   1.552   1.889   9.093 -0.8353 -1.3732  1.6532
 2412TIP3   OH231430   1.480   3.138  10.222  0.1175  0.2844 -0.0684
 2412TIP3    H131431   1.544   3.080  10.264 -1.4908  0.3186  2.6220
 2412TIP3    H231432   1.529   3.218  10.204  1.3302 -0.4213 -0.0386
 2413TIP3   OH231433   2.026   4.130  10.105  0.1986 -0.0528 -0.3415
 2413TIP3    H131434   2.080   4.171  10.173 -0.9850  0.4019  0.3416
 2413TIP3    H231435   2.049   4.037  10.109  0.9260  0.1306 -0.0749
 2414TIP3   OH231436   3.978   4.757   8.318 -0.0308 -0.4628 -0.4823
 2414TIP3    H131437   4.047   4.695   8.345 -0.8901 -1.8110 -1.2852
 2414TIP3    H231438   3.899   4.723   8.360 -0.4040  0.4690 -0.4307
 2415TIP3   OH231439   0.240   3.725   9.576  0.2410 -0.4443  0.2169
 2415TIP3    H131440   0.221   3.769   9.493  0.8629 -1.0042 -0.2331
 2415TIP3    H231441   0.154   3.698   9.609  0.0370 -0.9312 -0.6566
 2416TIP3   OH231442   7.669   4.328  10.576  0.3168 -0.0036  0.6136
 2416TIP3    H131443   7.686   4.420  10.594  0.3288  0.7259 -2.5090
 2416TIP3    H231444   7.756   4.288  10.570  0.3009 -0.6350  3.3724
 2417TIP3   OH231445   3.577   0.751   9.340 -1.5940 -0.2753 -0.0439
 2417TIP3    H131446   3.636   0.769   9.413 -2.5343  1.6040  0.3220
 2417TIP3    H231447   3.497   0.718   9.381 -1.9857  0.4157 -0.2266
 2418TIP3   OH231448   3.312   3.108  10.603 -0.1781 -0.3259 -0.1878
 2418TIP3    H131449   3.288   3.022  10.568  1.0621 -1.0863  0.7193
 2418TIP3    H231450   3.309   3.096  10.698  0.3664  0.5330 -0.0509
 2419TIP3   OH231451   0.408   1.471  10.020 -0.2844  0.0836 -0.2801
 2419TIP3    H131452   0.373   1.479   9.931 -0.1601  0.0090 -0.3360
 2419TIP3    H231453   0.490   1.423  10.010 -1.3796 -1.9632  0.1311
 2420TIP3   OH231454   1.226   1.431  11.039 -0.0842 -0.0559  0.4776
 2420TIP3    H131455   1.258   1.353  10.994  0.0442  0.4733 -0.3646
 2420TIP3    H231456   1.196   1.399  11.124  0.9231 -0.8587  0.5469
 2421TIP3   OH231457   6.687   4.106   8.270  0.1003  0.3188 -0.0204
 2421TIP3    H131458   6.781   4.099   8.285 -0.1042 -0.2029  1.0562
 2421TIP3    H231459   6.668   4.041   8.203  0.3503 -0.2621  0.4674
 2422TIP3   OH231460   5.639   6.232   9.045  0.7463 -0.1223  0.2967
 2422TIP3    H131461   5.590   6.215   8.964 -2.0675  0.5401  1.7154
 2422TIP3    H231462   5.613   6.320   9.070  0.3480 -0.8515  2.6751
 2423TIP3   OH231463   6.095   0.414  10.573  0.0521 -0.1711  0.9619
 2423TIP3    H131464   6.175   0.466  10.583  0.5961 -0.8878  0.5050
 2423TIP3    H231465   6.123   0.338  10.522 -1.2144  0.2347 -0.4240
 2424TIP3   OH231466   1.336   1.378  10.141  0.4608 -0.0666  0.0265
 2424TIP3    H131467   1.258   1.389  10.087  1.3341  0.0355 -1.2344
 2424TIP3    H231468   1.302   1.367  10.230 -1.1456 -2.9062 -0.8308
 2425TIP3   OH231469   4.714   6.778  10.047 -0.1074  0.0127 -0.0148
 2425TIP3    H131470   4.689   6.750   9.959 -0.2304  0.1164 -0.0123
 2425TIP3    H231471   4.792   6.727  10.067 -0.7808 -0.9299  0.2969
 2426TIP3   OH231472   4.078   5.890  10.786 -0.2706  0.4002  0.5503
 2426TIP3    H131473   4.024   5.876  10.865 -0.6935  0.2640  0.2400
 2426TIP3    H231474   4.155   5.937  10.819 -0.1202 -0.2526  1.1570
 2427TIP3   OH231475   0.599   1.217   9.440 -0.3877 -0.4415  0.7069
 2427TIP3    H131476   0.564   1.303   9.415 -0.4516 -0.4312  0.8309
 2427TIP3    H231477   0.581   1.211   9.534 -1.7557 -1.2291  0.4158
 2428TIP3   OH231478   2.027   4.791   9.243 -0.0859  0.4922 -0.3244
 2428TIP3    H131479   2.043   4.850   9.170  0.8951 -0.7578 -1.1712
 2428TIP3    H231480   2.063   4.836   9.319  0.3756  1.1126 -0.9000
 2429TIP3   OH231481   7.676   0.255  10.616 -0.3385  0.4621  0.5937
 2429TIP3    H131482   7.594   0.300  10.594 -1.3514 -1.5745 -0.0214
 2429TIP3    H231483   7.706   0.220  10.532  0.5948  0.2501  1.0102
 2430TIP3   OH231484   3.747   0.428  10.930  0.0030  0.1118 -0.0164
 2430TIP3    H131485   3.675   0.487  10.955  0.7903  0.9671  0.3169
 2430TIP3    H231486   3.823   0.485  10.926  0.3267 -0.4017 -2.3185
 2431TIP3   OH231487   0.609   4.677  10.580 -0.2886 -0.0242  0.0636
 2431TIP3    H131488   0.674   4.724  10.632  0.8423 -1.3003 -0.1402
 2431TIP3    H231489   0.581   4.741  10.514  1.2495  0.3753 -0.2492
 2432TIP3   OH231490   3.759   7.462  10.723  0.5589  0.3316 -0.0724
 2432TIP3    H131491   3.705   7.383  10.721 -0.0798  0.7539 -2.3578
 2432TIP3    H231492   3.849   7.429  10.725  0.3766 -0.5990 -2.8023
 2433TIP3   OH231493   0.648   4.463   9.966 -0.0402  0.2530 -0.9013
 2433TIP3    H131494   0.723   4.513   9.997  1.7047 -2.1246 -1.0024
 2433TIP3    H231495   0.683   4.410   9.895 -1.5269 -1.7253 -0.2318
 2434TIP3   OH231496   5.943   5.470   9.602  0.0445 -0.0071  0.1313
 2434TIP3    H131497   5.931   5.401   9.666  0.1410  0.4211  0.6146
 2434TIP3    H231498   6.038   5.487   9.601 -0.1096  0.9716  0.9262
 2435TIP3   OH231499   6.896   3.984   9.470  0.4709  0.2913 -0.5813
 2435TIP3    H131500   6.830   4.009   9.534 -1.5448  0.7454 -2.7164
 2435TIP3    H231501   6.923   3.896   9.497  0.8980  1.0535  1.7453
 2436TIP3   OH231502   3.541   0.592  10.647 -0.3232  0.4250  0.3191
 2436TIP3    H131503   3.506   0.614  10.561 -1.9917 -0.4217  0.7373
 2436TIP3    H231504   3.609   0.528  10.630  0.1827  1.1372 -0.4316
 2437TIP3   OH231505   1.396   2.339   9.483  0.3570  0.7251  0.0228
 2437TIP3    H131506   1.357   2.294   9.558  2.2238  0.9165  1.1692
 2437TIP3    H231507   1.464   2.395   9.521  0.9991  1.2242 -1.7719
 2438TIP3   OH231508   6.896   3.274  11.263  0.2188  0.1230 -0.6838
 2438TIP3    H131509   6.872   3.248  11.352  5.1156  0.9045  1.2249
 2438TIP3    H231510   6.929   3.193  11.222 -1.8109 -0.1872 -1.8070
 2439TIP3   OH231511   2.701   5.930   9.058 -0.7062  0.2365  0.0473
 2439TIP3    H131512   2.731   6.020   9.047  2.4006 -0.8986 -2.0730
 2439TIP3    H231513   2.684   5.922   9.152  3.1453  1.8878  1.0592
 2440TIP3   OH231514   1.931   3.318  10.745 -0.2055  0.4006 -0.3708
 2440TIP3    H131515   1.894   3.335  10.658 -1.8215 -0.6798  0.0635
 2440TIP3    H231516   1.858   3.335  10.805  0.1845 -1.1511  0.5794
 2441TIP3   OH231517   6.679   7.165   8.786  0.7145 -0.0039  0.0572
 2441TIP3    H131518   6.640   7.242   8.744  2.7729  0.5826 -0.9293
 2441TIP3    H231519   6.765   7.195   8.813  1.3905 -1.8482  0.0444
 2442TIP3   OH231520   1.684   3.288   9.446 -0.4587  0.1230 -0.3539
 2442TIP3    H131521   1.651   3.252   9.528 -0.0073  1.1382  0.2950
 2442TIP3    H231522   1.779   3.292   9.458 -0.3887  0.3123 -0.9201
 2443TIP3   OH231523   4.423   6.439  10.871  0.4094 -0.1643 -0.6512
 2443TIP3    H131524   4.390   6.512  10.924  0.8688  0.5949 -1.3891
 2443TIP3    H231525   4.344   6.400  10.832 -0.1486 -1.9138  1.9888
 2444TIP3   OH231526   5.693   7.196  10.119 -0.5762 -0.2991 -0.0341
 2444TIP3    H131527   5.787   7.189  10.131 -0.4059  1.1814 -0.3407
 2444TIP3    H231528   5.664   7.255  10.189 -1.1495 -0.1071 -0.4233
 2445TIP3   OH231529   1.586   6.764  10.675  0.0531  0.2431 -0.0415
 2445TIP3    H131530   1.646   6.833  10.703  0.0746  0.4395 -0.5629
 2445TIP3    H231531   1.624   6.684  10.711  0.0792  0.4904  0.4861
 2446TIP3   OH231532   5.335   1.215  10.594 -0.3324  0.0441 -0.0046
 2446TIP3    H131533   5.429   1.228  10.583 -0.3434  2.0317  1.7963
 2446TIP3    H231534   5.322   1.208  10.688 -2.0171 -0.0410 -0.2084
 2447TIP3   OH231535   0.768   1.233   8.290  0.5126 -0.5381  0.0414
 2447TIP3    H131536   0.834   1.303   8.294  0.7120 -0.7994  2.1825
 2447TIP3    H231537   0.799   1.167   8.352 -1.1001 -1.2732  0.1042
 2448TIP3   OH231538   7.136   1.759   9.497  0.6214  0.4212 -0.4337
 2448TIP3    H131539   7.095   1.674   9.517 -0.4922  0.9613 -0.3356
 2448TIP3    H231540   7.216   1.736   9.451  0.4717 -0.6989 -0.1847
 2449TIP3   OH231541   2.901   6.730  11.004  0.3558  0.2034 -0.1738
 2449TIP3    H131542   2.939   6.769  10.925  1.9749 -1.0951 -0.0938
 2449TIP3    H231543   2.932   6.784  11.076 -0.7009  1.0856 -0.3582
 2450TIP3   OH231544   0.875   4.173   8.739  0.1480 -0.3955 -0.1492
 2450TIP3    H131545   0.808   4.111   8.766 -0.5503  0.0050 -0.9339
 2450TIP3    H231546   0.925   4.190   8.819 -0.5650 -0.8397  0.4001
 2451TIP3   OH231547   7.439   6.946  10.320  0.2007 -0.4147 -0.1986
 2451TIP3    H131548   7.444   6.974  10.412  1.2972 -0.7775 -0.1347
 2451TIP3    H231549   7.385   7.013  10.278  0.9743  0.6163  0.3898
 2452TIP3   OH231550   3.788   0.044  10.588  0.1741  0.3505 -0.6812
 2452TIP3    H131551   3.815  -0.040  10.625  1.5967  0.0559 -2.2825
 2452TIP3    H231552   3.821   0.109  10.651  1.3988 -0.1835 -0.7510
 2453TIP3   OH231553   2.676   4.038   8.720  0.4084 -0.0767 -0.7603
 2453TIP3    H131554   2.608   4.102   8.699 -2.9470 -3.0677 -0.1336
 2453TIP3    H231555   2.689   4.047   8.814 -0.0442 -0.2577 -0.6759
 2454TIP3   OH231556   2.651   3.780   8.601  0.2743  0.1594  0.6497
 2454TIP3    H131557   2.639   3.746   8.512  0.9279 -0.1496  0.6751
 2454TIP3    H231558   2.669   3.873   8.589  2.1662 -0.2089  0.3113
 2455TIP3   OH231559   2.864   4.184  10.681  0.8825  0.3760  0.2086
 2455TIP3    H131560   2.795   4.181  10.747  0.5766 -1.2113 -0.1329
 2455TIP3    H231561   2.931   4.125  10.714  0.7240 -0.4484 -0.8742
 2456TIP3   OH231562   2.515   6.721  10.250 -0.1495  0.4354 -0.0764
 2456TIP3    H131563   2.588   6.663  10.272 -0.6773 -0.0718  0.3791
 2456TIP3    H231564   2.439   6.663  10.247 -0.1441  0.3732 -3.4889
 2457TIP3   OH231565   3.491   3.175   9.735 -0.9159 -0.2117 -0.0392
 2457TIP3    H131566   3.555   3.220   9.790 -0.9958 -0.9727  0.7016
 2457TIP3    H231567   3.486   3.087   9.772 -2.9645  0.0502  0.4164
 2458TIP3   OH231568   5.862   0.610  10.029  0.0185  0.0187 -0.2290
 2458TIP3    H131569   5.815   0.674   9.975  0.7310 -0.1075 -1.0333
 2458TIP3    H231570   5.922   0.662  10.082  0.1273  0.0675 -0.3984
 2459TIP3   OH231571   2.677   7.520  10.426 -0.8048  0.1333  0.2626
 2459TIP3    H131572   2.760   7.496  10.385 -1.4955  0.3644 -1.3567
 2459TIP3    H231573   2.694   7.513  10.520  0.2555 -2.4984 -0.0400
 2460TIP3   OH231574   4.701   1.143  10.618 -0.7784 -0.5280 -0.5047
 2460TIP3    H131575   4.727   1.177  10.704  0.9916 -0.8718 -0.8519
 2460TIP3    H231576   4.651   1.063  10.639 -1.5198  0.0991  0.2106
 2461TIP3   OH231577   5.489   2.855   9.029 -0.4012  0.2544 -0.3995
 2461TIP3    H131578   5.488   2.806   8.946  1.3119  0.2024 -0.4179
 2461TIP3    H231579   5.404   2.898   9.032  0.3604  2.2301 -3.3726
 2462TIP3   OH231580   3.625   1.331  10.942  0.0968 -0.0507 -0.0236
 2462TIP3    H131581   3.682   1.403  10.914 -0.1661 -0.7070 -2.5016
 2462TIP3    H231582   3.537   1.360  10.920 -0.2707 -0.1709  1.2180
 2463TIP3   OH231583   6.294   3.642   9.301 -0.0745  0.8574 -0.0876
 2463TIP3    H131584   6.307   3.722   9.353 -0.8990  0.5797  0.5586
 2463TIP3    H231585   6.252   3.672   9.221  0.7026  1.2166 -0.3757
 2464TIP3   OH231586   2.612   5.270   9.751  0.3202 -0.1669 -0.3207
 2464TIP3    H131587   2.648   5.227   9.829  0.7972  1.5415  0.4371
 2464TIP3    H231588   2.547   5.208   9.718  0.3987 -1.1124  1.2031
 2465TIP3   OH231589   3.898   2.679  11.128 -0.2837 -0.1336 -0.6358
 2465TIP3    H131590   3.983   2.636  11.123 -0.6182 -0.6518 -2.3872
 2465TIP3    H231591   3.855   2.639  11.204  0.4852 -0.8790 -0.5829
 2466TIP3   OH231592   2.278   3.849  11.512 -0.4387 -0.2397  0.2192
 2466TIP3    H131593   2.251   3.845  11.604  1.0068  1.3992  0.7721
 2466TIP3    H231594   2.349   3.786  11.505  0.4831  0.7243  0.6461
 2467TIP3   OH231595   0.912   6.963  10.829  0.1990 -0.1780 -0.0527
 2467TIP3    H131596   0.866   7.045  10.847 -0.3360  0.0792 -2.3047
 2467TIP3    H231597   0.990   6.967  10.885 -1.5531  0.1675  2.5696
 2468TIP3   OH231598   4.393   5.308  10.724  0.5545  0.2074 -0.6076
 2468TIP3    H131599   4.373   5.392  10.764 -0.4060 -0.6813  0.9181
 2468TIP3    H231600   4.360   5.314  10.635  0.4835  1.4401 -0.5053
 2469TIP3   OH231601   0.951   4.179   9.009  0.1958  0.1491  0.0953
 2469TIP3    H131602   1.042   4.184   9.038 -0.1519  2.2776  1.0356
 2469TIP3    H231603   0.902   4.228   9.076 -1.7659 -1.5815  0.0391
 2470TIP3   OH231604   0.268   3.947   9.755  0.1683 -0.3506 -0.2352
 2470TIP3    H131605   0.351   3.978   9.718  1.3118 -2.4401  0.3893
 2470TIP3    H231606   0.256   3.860   9.718 -1.1211 -0.5783  0.6360
 2471TIP3   OH231607   2.617   5.245  10.487 -0.1212  0.1866 -0.3166
 2471TIP3    H131608   2.696   5.198  10.515 -0.3634 -0.1777 -0.2495
 2471TIP3    H231609   2.545   5.203  10.534 -0.1643  1.8089  1.1821
 2472TIP3   OH231610   2.856   0.808   9.104 -0.0490  0.3714 -0.6376
 2472TIP3    H131611   2.931   0.748   9.105 -0.0590  0.3031 -1.8337
 2472TIP3    H231612   2.892   0.894   9.125  0.0116  0.0118  0.8155
 2473TIP3   OH231613   1.651   7.295   9.816  0.4569 -0.0741 -0.3655
 2473TIP3    H131614   1.688   7.327   9.898  1.0135  0.8814 -0.9594
 2473TIP3    H231615   1.622   7.374   9.770  0.1969 -0.5816 -1.1033
 2474TIP3   OH231616   2.836   3.208  10.356 -0.4507  0.1609 -0.3392
 2474TIP3    H131617   2.853   3.292  10.398 -0.3197  1.9690 -3.6844
 2474TIP3    H231618   2.741   3.206  10.344 -0.3998  0.1037 -0.7545
 2475TIP3   OH231619   3.643   1.147   9.947  0.6661  0.0414 -0.2316
 2475TIP3    H131620   3.687   1.143   9.862 -1.2904 -0.2140 -1.2892
 2475TIP3    H231621   3.618   1.056   9.964  0.2929  0.2234  0.1915
 2476TIP3   OH231622   0.084   4.593  11.069 -0.2646  0.2881  0.3193
 2476TIP3    H131623   0.133   4.675  11.078  0.0567  0.4806 -2.3490
 2476TIP3    H231624   0.150   4.527  11.049 -0.7238 -0.2318  0.4682
 2477TIP3   OH231625   7.653   0.408   8.152 -0.0781 -0.4314  0.1575
 2477TIP3    H131626   7.669   0.473   8.083  0.8321 -2.2387 -1.4461
 2477TIP3    H231627   7.733   0.355   8.154  0.1880 -0.0939  3.1066
 2478TIP3   OH231628   2.110   3.474  11.636  0.5687  0.2536  0.2607
 2478TIP3    H131629   2.184   3.446  11.690  1.0935  0.7806 -0.1781
 2478TIP3    H231630   2.125   3.432  11.552 -0.5296 -1.0029  0.6460
 2479TIP3   OH231631   6.128   6.516  10.435 -0.1649  0.1536  0.3071
 2479TIP3    H131632   6.070   6.529  10.510  0.4382  1.9449  0.5034
 2479TIP3    H231633   6.146   6.422  10.435 -0.3528  0.0781  2.2973
 2480TIP3   OH231634   0.173   1.086  10.334  0.0657  0.3276 -0.2076
 2480TIP3    H131635   0.245   1.103  10.273  1.4827  1.8909  1.7327
 2480TIP3    H231636   0.104   1.145  10.307  1.1970  2.0256  0.4379
 2481TIP3   OH231637   7.337   0.159   9.739 -0.1693  0.1988  0.0423
 2481TIP3    H131638   7.270   0.112   9.689 -0.9809  0.8563  0.4784
 2481TIP3    H231639   7.288   0.224   9.789  0.7196  0.1435  1.0172
 2482TIP3   OH231640   3.154   6.483  11.195 -0.1348 -0.6929 -0.3697
 2482TIP3    H131641   3.178   6.573  11.218  2.2024 -1.3859  0.1584
 2482TIP3    H231642   3.145   6.439  11.279  0.0353 -1.2722 -0.6533
 2483TIP3   OH231643   0.397   1.232   9.860  0.1526 -0.1459 -0.3696
 2483TIP3    H131644   0.432   1.316   9.831 -2.0454  1.5656  1.5254
 2483TIP3    H231645   0.318   1.219   9.806 -0.3372 -0.2123  0.3431
 2484TIP3   OH231646   7.083   3.960   9.803  0.2255  0.0429  0.7139
 2484TIP3    H131647   7.176   3.963   9.825  0.3722  2.6054  0.1137
 2484TIP3    H231648   7.081   3.941   9.709  0.2457  1.1005  0.4822
 2485TIP3   OH231649   6.748   1.660   9.965 -0.0984 -0.0743  0.2460
 2485TIP3    H131650   6.817   1.711  10.008 -1.5111  1.9927  0.2267
 2485TIP3    H231651   6.680   1.651  10.032 -1.0829  0.6300 -0.6247
 2486TIP3   OH231652   1.257   4.433  10.931 -0.3068  0.3647 -0.3233
 2486TIP3    H131653   1.233   4.376  10.857 -1.8195  0.9410 -0.3029
 2486TIP3    H231654   1.184   4.425  10.992 -0.6035  2.3601 -0.3475
 2487TIP3   OH231655   1.456   5.586  10.941 -0.1357 -0.0528 -0.6719
 2487TIP3    H131656   1.549   5.584  10.963 -0.1838 -1.0754 -0.5372
 2487TIP3    H231657   1.440   5.504  10.895 -0.9832  0.1100 -0.6842
 2488TIP3   OH231658   1.899   4.561   9.316  0.0720 -0.1857  0.0994
 2488TIP3    H131659   1.928   4.482   9.271  1.7498  0.1064  0.5714
 2488TIP3    H231660   1.948   4.632   9.273 -0.4659  0.4354  0.5002
 2489TIP3   OH231661   3.040   4.911  10.621 -0.6623 -0.0350 -0.2723
 2489TIP3    H131662   3.133   4.905  10.645 -0.9442  1.5128  1.4179
 2489TIP3    H231663   3.007   4.822  10.630  0.5583 -0.5137 -0.3928
 2490TIP3   OH231664   2.469   5.380   8.887 -0.2850  0.3638  0.2614
 2490TIP3    H131665   2.423   5.299   8.908  1.7117 -0.2889  2.6665
 2490TIP3    H231666   2.512   5.362   8.803  1.2940 -1.7475  1.3941
 2491TIP3   OH231667   6.124   2.954  10.254 -0.1987 -0.4105 -0.4295
 2491TIP3    H131668   6.091   2.933  10.167  0.1810 -1.2028 -0.3817
 2491TIP3    H231669   6.185   2.884  10.275  0.8493  0.5536 -0.1376
 2492TIP3   OH231670   6.137   6.034   9.108  0.0892  0.4472  0.1262
 2492TIP3    H131671   6.203   6.090   9.067  0.2738  0.8554  0.9471
 2492TIP3    H231672   6.062   6.092   9.120 -0.0455  0.2676  0.1537
 2493TIP3   OH231673   1.490   1.230   9.154 -0.6656  0.0046  0.3363
 2493TIP3    H131674   1.489   1.306   9.096 -1.6022 -0.3103 -0.0783
 2493TIP3    H231675   1.573   1.187   9.134  0.4188  1.4975  1.3827
 2494TIP3   OH231676   2.867   5.058   9.652  0.1584  0.0216  0.4108
 2494TIP3    H131677   2.789   5.009   9.624  0.7049 -0.8156  0.3317
 2494TIP3    H231678   2.862   5.140   9.603 -0.6090 -0.0691  0.3184
 2495TIP3   OH231679   5.271   1.049  10.990 -0.6187 -0.1245 -0.2106
 2495TIP3    H131680   5.285   1.135  10.950  0.8382 -1.6218 -3.2369
 2495TIP3    H231681   5.214   1.003  10.929 -2.3741 -1.0208  1.9406
 2496TIP3   OH231682   0.691   2.115   9.515 -0.0989  0.6899  0.1882
 2496TIP3    H131683   0.759   2.129   9.450  1.2096 -0.4627  1.2637
 2496TIP3    H231684   0.710   2.179   9.584 -0.2495  0.5253  0.3835
 2497TIP3   OH231685   0.564   5.465   9.580  0.4435  0.3928 -0.5501
 2497TIP3    H131686   0.471   5.447   9.565  0.5459  1.4896 -3.0295
 2497TIP3    H231687   0.609   5.396   9.530  0.9216  0.9931 -0.9611
 2498TIP3   OH231688   3.599   2.211   9.212  0.3102 -0.5825 -0.1193
 2498TIP3    H131689   3.636   2.139   9.262  0.0870 -0.4584  0.2238
 2498TIP3    H231690   3.664   2.281   9.220  0.5907 -0.7855 -0.5653
 2499TIP3   OH231691   2.166   7.541   8.726  0.4138  0.2046  0.3118
 2499TIP3    H131692   2.184   7.576   8.639  1.5237 -0.5905  0.2023
 2499TIP3    H231693   2.156   7.619   8.781 -0.2579  0.7153 -0.5020
 2500TIP3   OH231694   4.432   6.206  11.008  0.2130 -0.1125  0.2378
 2500TIP3    H131695   4.447   6.285  10.955 -1.4814 -0.5161 -0.9174
 2500TIP3    H231696   4.363   6.230  11.069 -0.4237 -0.7147 -0.2227
 2501TIP3   OH231697   2.671   2.391   9.599 -0.2691 -0.3818 -0.0179
 2501TIP3    H131698   2.635   2.306   9.623  2.1424 -1.1308  1.2730
 2501TIP3    H231699   2.730   2.373   9.526 -1.9646  0.7364 -1.7635
 2502TIP3   OH231700   4.555   6.642  10.317  0.0090 -0.2510 -0.2591
 2502TIP3    H131701   4.625   6.577  10.330 -0.3169 -0.2523  1.8329
 2502TIP3    H231702   4.560   6.663  10.224  1.8432 -1.3307 -0.4725
 2503TIP3   OH231703   6.423   1.900   9.179 -0.1036  0.0377  0.0899
 2503TIP3    H131704   6.398   1.920   9.089 -1.2061 -0.6939  0.2080
 2503TIP3    H231705   6.340   1.875   9.221  0.3817  0.4323  1.3194
 2504TIP3   OH231706   1.541   3.733  10.301 -0.1330  0.7008  0.1263
 2504TIP3    H131707   1.517   3.644  10.325 -0.3447  0.6514 -0.2613
 2504TIP3    H231708   1.482   3.788  10.354  0.3322  0.6260  0.7281
 2505TIP3   OH231709   1.401   5.176  10.516 -0.0227 -0.5301  0.5005
 2505TIP3    H131710   1.362   5.152  10.601 -0.1252  0.3736  0.7233
 2505TIP3    H231711   1.328   5.170  10.454 -0.1795 -0.2366  0.6553
 2506TIP3   OH231712   1.731   1.443  11.003  0.0998 -0.0848  0.2812
 2506TIP3    H131713   1.714   1.531  10.968 -0.0101 -0.6793 -1.2712
 2506TIP3    H231714   1.660   1.389  10.966  1.7872 -1.3879 -1.2344
 2507TIP3   OH231715   5.507   5.553   9.308 -0.3014  0.2799  0.3506
 2507TIP3    H131716   5.571   5.495   9.350 -0.9750 -1.0903 -0.4362
 2507TIP3    H231717   5.559   5.613   9.256  0.5119  1.5463  2.4941
 2508TIP3   OH231718   5.627   3.298   9.890  0.3366 -0.1511 -0.1416
 2508TIP3    H131719   5.637   3.369   9.953 -0.7690 -2.3038  2.6589
 2508TIP3    H231720   5.717   3.275   9.866  1.1522 -1.7274  3.7271
 2509TIP3   OH231721   7.645   1.196  10.741  0.2432  0.1022  0.2051
 2509TIP3    H131722   7.582   1.259  10.777 -0.2947 -0.8895  1.0822
 2509TIP3    H231723   7.592   1.136  10.690  0.9866  1.3981 -2.2339
 2510TIP3   OH231724   2.008   3.810  11.373 -0.2529 -0.8005 -0.2533
 2510TIP3    H131725   2.064   3.827  11.297  0.7429  1.5292  0.9040
 2510TIP3    H231726   2.056   3.846  11.447 -2.2493 -0.8656  1.1502
 2511TIP3   OH231727   5.390   7.160  10.109  0.0824 -0.1418  0.3039
 2511TIP3    H131728   5.345   7.077  10.095 -1.7648  0.7482  0.6751
 2511TIP3    H231729   5.442   7.146  10.188 -2.1200 -0.2544  1.8215
 2512TIP3   OH231730   4.049   4.881   8.565  0.4393 -0.2462 -0.2752
 2512TIP3    H131731   4.017   4.875   8.475  0.5361 -0.2508 -0.3100
 2512TIP3    H231732   4.132   4.833   8.563  0.5066 -0.1318 -0.2150
 2513TIP3   OH231733   4.079   0.896   9.727  0.2315 -0.2595 -0.0673
 2513TIP3    H131734   4.068   0.953   9.803 -0.7496  2.2422 -1.9584
 2513TIP3    H231735   4.124   0.949   9.663 -0.6486 -1.6250 -1.9111
 2514TIP3   OH231736   0.689   6.721   8.727 -0.3644 -0.0631  0.1088
 2514TIP3    H131737   0.639   6.662   8.671 -0.4985 -0.1956  0.3705
 2514TIP3    H231738   0.624   6.761   8.784 -0.1086 -0.6072  0.7899
 2515TIP3   OH231739   4.843   3.249   9.113  0.7118 -0.1583 -1.0985
 2515TIP3    H131740   4.820   3.232   9.022 -3.2581 -0.3663 -0.2314
 2515TIP3    H231741   4.790   3.324   9.138  0.4154 -1.1236  1.4744
 2516TIP3   OH231742   7.527   0.492  10.513 -0.3636  0.5549 -0.6933
 2516TIP3    H131743   7.522   0.557  10.584 -0.2141  1.6004 -1.6154
 2516TIP3    H231744   7.620   0.472  10.505 -0.1619  1.7942 -1.7595
 2517TIP3   OH231745   7.222   3.704  10.111  0.1854 -0.0321 -0.1115
 2517TIP3    H131746   7.190   3.634  10.168 -0.8855  1.0295  0.6540
 2517TIP3    H231747   7.265   3.765  10.171 -0.9449  1.0939 -0.4088
 2518TIP3   OH231748   5.365   1.743  10.010  0.0430 -0.0805 -0.5675
 2518TIP3    H131749   5.401   1.828  10.035 -1.4842  0.4542 -0.0695
 2518TIP3    H231750   5.379   1.738   9.916 -1.4694  1.5811 -0.9400
 2519TIP3   OH231751   6.364   2.652   9.358 -0.1423  0.4137 -0.3477
 2519TIP3    H131752   6.434   2.590   9.376  0.7403  1.8201  1.3444
 2519TIP3    H231753   6.287   2.616   9.402 -0.5870 -1.1503 -2.2387
 2520TIP3   OH231754   3.771   3.680   9.349  0.4876 -0.0980 -0.0708
 2520TIP3    H131755   3.816   3.712   9.427 -2.3796 -0.7983  2.0261
 2520TIP3    H231756   3.784   3.749   9.284  1.1581  1.5321  1.7031
 2521TIP3   OH231757   3.962   3.450   9.437 -0.0050 -0.3983  0.3321
 2521TIP3    H131758   3.880   3.400   9.438 -0.9753  0.9453 -2.2193
 2521TIP3    H231759   4.030   3.385   9.454 -1.4253 -1.9424  0.3903
 2522TIP3   OH231760   5.733   1.841  10.393 -0.1036  0.1439 -0.0211
 2522TIP3    H131761   5.825   1.817  10.406 -0.4515 -0.8604  0.6645
 2522TIP3    H231762   5.703   1.783  10.323 -0.1237  0.7509 -0.5297
 2523TIP3   OH231763   0.940   7.246   9.190  0.3855 -1.1213  0.2182
 2523TIP3    H131764   0.860   7.233   9.139  0.0746 -1.6892  0.8390
 2523TIP3    H231765   0.912   7.297   9.266  0.5486 -1.6133  0.6093
 2524TIP3   OH231766   7.166   6.842   9.846  0.4019 -0.5158 -0.2253
 2524TIP3    H131767   7.085   6.797   9.872 -0.4740  0.0707 -1.7995
 2524TIP3    H231768   7.161   6.927   9.889  0.3594 -0.6131 -0.0355
 2525TIP3   OH231769   1.129   1.788   9.156  0.0702 -0.1685 -0.3306
 2525TIP3    H131770   1.210   1.769   9.203 -0.5201  1.7974  1.6348
 2525TIP3    H231771   1.087   1.703   9.144  1.3184 -0.9581  0.7036
 2526TIP3   OH231772   3.628   0.708  10.215  0.1670  0.5157  0.3506
 2526TIP3    H131773   3.699   0.680  10.272  0.8659  2.0829  0.3156
 2526TIP3    H231774   3.642   0.660  10.133  0.7890  0.3048  0.5746
 2527TIP3   OH231775   1.382   3.214   9.031  0.2728  0.0679  0.1858
 2527TIP3    H131776   1.446   3.176   9.091 -0.7702  0.5756  1.6700
 2527TIP3    H231777   1.398   3.308   9.036 -0.2270  0.1560  0.1270
 2528TIP3   OH231778   3.650   1.315   8.393  0.8155  0.2611  0.4779
 2528TIP3    H131779   3.676   1.223   8.399 -0.0493  0.0998  2.3511
 2528TIP3    H231780   3.555   1.313   8.384  0.8982  0.9650 -0.7371
 2529TIP3   OH231781   1.938   2.429   8.765  0.4182  0.7089  0.5238
 2529TIP3    H131782   1.945   2.335   8.745  0.6206  1.0040 -0.9579
 2529TIP3    H231783   1.863   2.458   8.713 -1.0068  0.9941  2.6134
 2530TIP3   OH231784   6.949   6.532   9.327 -0.2066  0.1336 -0.1308
 2530TIP3    H131785   6.929   6.440   9.311 -2.1534  0.6989 -1.2525
 2530TIP3    H231786   6.930   6.544   9.420  1.5671 -0.8981  0.4229
 2531TIP3   OH231787   5.494   2.253   9.113 -0.5469  0.2637  0.6184
 2531TIP3    H131788   5.497   2.347   9.133 -1.2119  0.9000 -1.9263
 2531TIP3    H231789   5.476   2.212   9.197 -1.7476  2.5397  1.5725
 2532TIP3   OH231790   2.472   0.723   9.354 -0.4902 -0.0936  0.7857
 2532TIP3    H131791   2.499   0.717   9.262 -0.8098  0.2895  0.6642
 2532TIP3    H231792   2.488   0.635   9.389 -0.5138 -0.2855  0.3249
 2533TIP3   OH231793   3.679   3.439   9.478 -0.6564 -0.1356  0.4533
 2533TIP3    H131794   3.622   3.466   9.550 -1.3465  3.1894 -1.1283
 2533TIP3    H231795   3.713   3.521   9.443  0.8964 -1.7119 -2.0265
 2534TIP3   OH231796   5.684   2.538  10.153 -0.4389 -0.5898 -0.0771
 2534TIP3    H131797   5.675   2.539  10.248  0.9467 -2.7065  0.1361
 2534TIP3    H231798   5.601   2.574  10.120 -0.7700  0.5834  1.8990
 2535TIP3   OH231799   7.035   6.870  10.730 -0.5450  0.2496 -0.0867
 2535TIP3    H131800   6.942   6.855  10.749 -0.5832  1.6114  0.9371
 2535TIP3    H231801   7.075   6.878  10.816  0.2576  1.1950 -0.5410
 2536TIP3   OH231802   5.695   3.561   9.972 -0.2692 -0.8478 -0.0705
 2536TIP3    H131803   5.774   3.576  10.024 -0.1938 -1.3042 -0.0490
 2536TIP3    H231804   5.652   3.647   9.969  0.4855 -0.4768 -0.5189
 2537TIP3   OH231805   3.972   0.208   9.241  0.7860  0.3223  0.0700
 2537TIP3    H131806   3.924   0.290   9.232  0.6965  0.8058  3.5028
 2537TIP3    H231807   3.908   0.141   9.217  0.3308  1.1493 -1.1298
 2538TIP3   OH231808   5.907   4.476   9.241  0.2442 -0.1132 -0.4551
 2538TIP3    H131809   5.844   4.515   9.181 -0.1311 -2.1932 -1.5030
 2538TIP3    H231810   5.858   4.467   9.323 -0.1383  0.1897 -0.6412
 2539TIP3   OH231811   6.145   4.031   8.768 -0.3066  0.3975  0.2745
 2539TIP3    H131812   6.153   3.936   8.772 -0.1475  0.3916 -0.1029
 2539TIP3    H231813   6.231   4.063   8.795 -0.9092  0.4916  2.2621
 2540TIP3   OH231814   6.280   0.990   9.975 -0.4342 -0.7690 -0.5223
 2540TIP3    H131815   6.270   1.017  10.066 -0.7987 -1.8101 -0.2442
 2540TIP3    H231816   6.201   1.023   9.932  0.2498  0.6899 -0.7226
 2541TIP3   OH231817   2.252   6.699  10.013  0.3722 -0.1700  0.3165
 2541TIP3    H131818   2.253   6.635  10.084 -1.5849 -1.5131 -0.7768
 2541TIP3    H231819   2.165   6.737  10.015  0.9052  1.1525 -0.2333
 2542TIP3   OH231820   6.929   2.528   9.155  0.0735 -0.2863 -0.2143
 2542TIP3    H131821   6.876   2.449   9.166  0.5391 -0.4500  1.0724
 2542TIP3    H231822   7.009   2.509   9.204  1.0884  0.1787 -1.6316
 2543TIP3   OH231823   7.323   1.340  11.403  0.3637  0.4253  0.1970
 2543TIP3    H131824   7.414   1.345  11.432  0.1275 -1.1538  1.3804
 2543TIP3    H231825   7.286   1.268  11.455 -1.6029  1.1441 -0.1330
 2544TIP3   OH231826   2.475   6.706  10.649  0.0807 -0.0697  0.7016
 2544TIP3    H131827   2.390   6.662  10.656  0.0595 -0.2004 -0.2339
 2544TIP3    H231828   2.516   6.694  10.734  0.5758 -2.9210  0.1528
 2545TIP3   OH231829   4.020   4.227   8.251 -0.0329  0.3197 -0.1953
 2545TIP3    H131830   3.958   4.191   8.188  0.3695 -0.8256  0.0371
 2545TIP3    H231831   4.104   4.228   8.205 -0.1991  1.8574 -0.5083
 2546TIP3   OH231832   0.167   1.841   9.818  0.2779  0.2236 -0.1160
 2546TIP3    H131833   0.095   1.889   9.779  0.4620  1.2252  0.7473
 2546TIP3    H231834   0.140   1.749   9.815 -1.6233  0.6771  1.3718
 2547TIP3   OH231835   5.922   4.308  10.450 -0.5770 -0.2107  0.3189
 2547TIP3    H131836   5.989   4.338  10.390  0.3984  0.2640  1.5967
 2547TIP3    H231837   5.908   4.216  10.428 -0.2493 -0.0434 -0.6079
 2548TIP3   OH231838   7.012   1.311   9.385  0.0218  0.6288  0.0809
 2548TIP3    H131839   7.105   1.330   9.397  0.3090 -0.2967 -0.5083
 2548TIP3    H231840   6.990   1.350   9.300 -0.2309  1.1796  0.3963
 2549TIP3   OH231841   6.654   6.289  10.680 -0.3004  0.0332  0.2120
 2549TIP3    H131842   6.710   6.263  10.607 -1.6949 -4.0842  0.3498
 2549TIP3    H231843   6.716   6.319  10.748  1.1777  1.4936 -1.6744
 2550TIP3   OH231844   6.738   1.319  10.360  0.1893 -0.0764 -0.8172
 2550TIP3    H131845   6.797   1.290  10.430 -1.4395 -0.8166  0.3228
 2550TIP3    H231846   6.730   1.243  10.302  0.0836 -0.0965 -0.7766
 2551TIP3   OH231847   7.357   4.783  10.080 -0.3769  0.2072  0.6316
 2551TIP3    H131848   7.437   4.778  10.133  0.0784 -0.0824 -0.0664
 2551TIP3    H231849   7.336   4.692  10.060 -0.4729  0.3221  0.2079
 2552TIP3   OH231850   4.519   3.572   9.878 -0.5612  0.2014  0.0944
 2552TIP3    H131851   4.531   3.502   9.813  1.6912  0.9130 -0.3682
 2552TIP3    H231852   4.506   3.526   9.961 -0.0973 -0.7711 -0.3542
 2553TIP3   OH231853   4.454   2.480   9.259  0.5796  0.5103 -0.1922
 2553TIP3    H131854   4.393   2.470   9.333  0.0405  0.0807 -0.6836
 2553TIP3    H231855   4.541   2.469   9.298  0.2283 -2.2103  0.0343
 2554TIP3   OH231856   1.182   1.198   8.178 -0.0284 -0.1246  0.1492
 2554TIP3    H131857   1.236   1.262   8.132 -0.4119  0.6332  0.7186
 2554TIP3    H231858   1.092   1.229   8.165 -0.5354 -2.1526 -2.0246
 2555TIP3   OH231859   1.538   0.370   9.367 -0.0048 -0.0018  0.7425
 2555TIP3    H131860   1.489   0.312   9.308 -0.1639  0.9626 -0.1064
 2555TIP3    H231861   1.630   0.352   9.346 -0.0627  0.5736 -0.0706
 2556TIP3   OH231862   0.550   1.262  10.515  0.6168  0.4274 -0.3837
 2556TIP3    H131863   0.632   1.278  10.563 -0.5777  0.4103  1.7705
 2556TIP3    H231864   0.550   1.168  10.499  1.0805  0.4450 -0.5016
 2557TIP3   OH231865   3.614   1.005   8.813  0.5419  0.6592  0.6531
 2557TIP3    H131866   3.687   0.957   8.773 -0.9677 -1.4399  0.2593
 2557TIP3    H231867   3.632   1.003   8.906 -0.4532 -2.6651  0.9096
 2558TIP3   OH231868   2.203   4.719   8.719  0.8269 -0.0041  0.2680
 2558TIP3    H131869   2.231   4.628   8.716  1.2594  0.0977  0.8967
 2558TIP3    H231870   2.108   4.716   8.708  0.4693 -0.7597  2.8955
 2559TIP3   OH231871   7.510   3.001   9.976  0.1829 -0.2767 -0.1957
 2559TIP3    H131872   7.454   2.926   9.958 -0.8203  0.4765 -0.3009
 2559TIP3    H231873   7.593   2.980   9.932  0.2158 -1.6765  0.4843
 2560TIP3   OH231874   3.555   6.300   8.902 -0.1401  0.8832 -0.1159
 2560TIP3    H131875   3.646   6.305   8.874  0.6773 -0.8082  1.9790
 2560TIP3    H231876   3.541   6.208   8.923 -1.7476  1.4081  1.3478
 2561TIP3   OH231877   2.169   7.314   9.605  0.0962  0.3438 -0.1308
 2561TIP3    H131878   2.086   7.267   9.600 -0.9151  1.8694  1.5777
 2561TIP3    H231879   2.189   7.318   9.698  1.7760  0.5705 -0.4716
 2562TIP3   OH231880   4.559   0.369   8.608  0.2461 -0.2194  0.0144
 2562TIP3    H131881   4.585   0.458   8.632 -1.9278  0.7504 -0.9772
 2562TIP3    H231882   4.568   0.367   8.513 -0.3594 -0.8391 -0.0357
 2563TIP3   OH231883   5.674   1.187   9.148  0.4145 -0.1132 -0.2182
 2563TIP3    H131884   5.608   1.189   9.218  0.2059  0.0140 -0.4155
 2563TIP3    H231885   5.626   1.215   9.070  0.4210 -1.1097 -0.5949
 2564TIP3   OH231886   2.851   3.140   8.423 -0.2197 -0.3442 -0.2138
 2564TIP3    H131887   2.932   3.160   8.376 -0.3989  0.0605 -0.3560
 2564TIP3    H231888   2.870   3.059   8.470  0.3593 -0.1003 -0.0194
 2565TIP3   OH231889   7.635   0.099   9.707 -0.6504  0.5519 -0.0905
 2565TIP3    H131890   7.547   0.133   9.689 -0.5574  0.2927 -1.0535
 2565TIP3    H231891   7.688   0.127   9.633  0.5285  2.1835  1.2766
 2566TIP3   OH231892   3.871   3.449  11.176 -0.0802  0.2325 -0.5004
 2566TIP3    H131893   3.808   3.416  11.113  0.2711 -0.7189 -0.3614
 2566TIP3    H231894   3.818   3.498  11.239 -0.7467 -0.8728 -0.1697
 2567TIP3   OH231895   1.752   2.026  10.536  0.4822 -0.0550  0.2228
 2567TIP3    H131896   1.804   2.043  10.458  1.2197 -0.7556  0.5394
 2567TIP3    H231897   1.699   1.949  10.513  0.8909 -0.4213  0.4917
 2568TIP3   OH231898   0.084   0.424  10.396 -0.3499  0.6866 -0.2054
 2568TIP3    H131899   0.106   0.343  10.350  0.1703  0.4497  0.4460
 2568TIP3    H231900   0.166   0.452  10.437 -0.5806  1.4155 -0.2149
 2569TIP3   OH231901   5.283   3.014   9.428 -0.2602  0.1459  0.2798
 2569TIP3    H131902   5.196   2.998   9.464  0.0097  0.7864  1.2227
 2569TIP3    H231903   5.268   3.073   9.354 -0.7146 -0.5117 -0.1722
 2570TIP3   OH231904   0.725   4.180   9.522  0.1081  0.1383  0.6024
 2570TIP3    H131905   0.719   4.138   9.436 -0.4843  1.2730  0.0581
 2570TIP3    H231906   0.639   4.166   9.562 -0.1685  0.9769  0.3278
 2571TIP3   OH231907   6.669   1.789   8.703  0.6133 -0.1418 -0.1423
 2571TIP3    H131908   6.716   1.720   8.657 -0.8145 -1.4610  0.3111
 2571TIP3    H231909   6.733   1.822   8.767  1.7157 -0.1499 -1.2011
 2572TIP3   OH231910   3.292   6.408  10.930  0.4819 -0.0898 -0.1999
 2572TIP3    H131911   3.281   6.319  10.897 -0.9359 -1.3897  3.3227
 2572TIP3    H231912   3.216   6.423  10.986  1.7842  2.5081  1.0852
 2573TIP3   OH231913   3.824   1.403   9.789  0.0360  0.3749 -0.1355
 2573TIP3    H131914   3.737   1.437   9.767  0.1684  0.5367 -0.4135
 2573TIP3    H231915   3.852   1.455   9.864 -0.6751 -0.5845  0.8437
 2574TIP3   OH231916   3.332   6.631  10.776  0.0022  0.0945 -0.1795
 2574TIP3    H131917   3.371   6.702  10.825  2.0720 -0.7025 -0.5557
 2574TIP3    H231918   3.324   6.559  10.839 -2.4041  0.6888  0.2914
 2575TIP3   OH231919   7.519   0.354   9.551  0.6926  0.1916  0.7639
 2575TIP3    H131920   7.513   0.371   9.457  2.7700 -0.6772  0.4227
 2575TIP3    H231921   7.440   0.303   9.571 -0.7248  1.9265 -0.0894
 2576TIP3   OH231922   0.623   2.683  10.861  0.0237 -0.6989  0.4078
 2576TIP3    H131923   0.570   2.742  10.808 -0.1484  0.0920  1.4206
 2576TIP3    H231924   0.688   2.647  10.800 -0.0004  0.3782 -0.2780
 2577TIP3   OH231925   0.044   4.462   8.372 -0.4287 -0.1100 -0.0443
 2577TIP3    H131926  -0.042   4.502   8.378 -0.9009 -1.2428  1.3822
 2577TIP3    H231927   0.028   4.374   8.338  0.1929 -0.2397 -0.0238
 2578TIP3   OH231928   1.190   1.720   8.327  0.7063 -0.0563  0.1205
 2578TIP3    H131929   1.264   1.763   8.285  0.0434  1.0355  0.0319
 2578TIP3    H231930   1.116   1.780   8.315  0.4200  0.2138  2.5809
 2579TIP3   OH231931   3.350   2.342  10.202  0.1597 -0.1236 -0.0814
 2579TIP3    H131932   3.302   2.262  10.182 -0.7924  0.4980 -0.3145
 2579TIP3    H231933   3.293   2.413  10.173  0.9235  0.6504  0.2597
 2580TIP3   OH231934   6.984   1.091   9.819  0.2820 -0.2077 -0.2834
 2580TIP3    H131935   6.993   1.179   9.855 -0.3160 -0.0485 -0.5186
 2580TIP3    H231936   6.960   1.037   9.895 -1.1602  0.1618 -0.4575
 2581TIP3   OH231937   6.516   6.157   9.224 -0.4257 -0.2374 -0.3892
 2581TIP3    H131938   6.544   6.244   9.252 -0.7678  0.3578 -1.8015
 2581TIP3    H231939   6.585   6.098   9.255  0.9430  0.8145 -1.3230
 2582TIP3   OH231940   4.058   2.861   8.304 -0.4843  0.0521  0.3849
 2582TIP3    H131941   4.132   2.921   8.294 -1.0062  0.6169 -0.1205
 2582TIP3    H231942   3.981   2.916   8.295 -0.9714 -0.5914  0.5928
 2583TIP3   OH231943   4.256   5.320   9.755 -0.0429 -0.1097  0.0723
 2583TIP3    H131944   4.349   5.299   9.750  0.1804  0.6883  0.8094
 2583TIP3    H231945   4.214   5.251   9.704  0.9289 -0.6071 -0.0812
 2584TIP3   OH231946   2.537   3.250  11.216  0.5323 -0.0496 -0.1635
 2584TIP3    H131947   2.470   3.186  11.193 -0.0690  0.6980 -0.5682
 2584TIP3    H231948   2.497   3.335  11.194 -0.1679  0.7898  3.6406
 2585TIP3   OH231949   6.569   7.398  10.889  0.1503 -0.9534  0.3924
 2585TIP3    H131950   6.593   7.313  10.928 -0.8432 -1.1358  0.6435
 2585TIP3    H231951   6.477   7.387  10.862 -0.6555  0.6372  2.2103
 2586TIP3   OH231952   6.619   0.758  11.265 -0.0178  0.0382 -0.0391
 2586TIP3    H131953   6.676   0.720  11.198  0.9542  0.8152  0.3207
 2586TIP3    H231954   6.552   0.692  11.279  0.2988 -0.5387 -1.1025
 2587TIP3   OH231955   1.135   3.726  10.710  0.1127 -0.5886  0.5993
 2587TIP3    H131956   1.201   3.659  10.729  1.2192  0.0912 -0.6885
 2587TIP3    H231957   1.156   3.756  10.621 -0.8601  0.8851  0.8333
 2588TIP3   OH231958   2.368   2.960   9.578  0.0734  0.3561 -0.2227
 2588TIP3    H131959   2.462   2.953   9.589  0.2885 -1.5132 -2.4837
 2588TIP3    H231960   2.356   2.989   9.487 -1.5294  0.0446 -0.1524
 2589TIP3   OH231961   3.732   4.402   8.545  0.2430 -0.1300 -0.0358
 2589TIP3    H131962   3.652   4.435   8.504 -0.6551  1.3120  2.6399
 2589TIP3    H231963   3.761   4.331   8.487 -2.6528 -0.3579 -1.4036
 2590TIP3   OH231964   3.334   7.103  10.551 -0.5163  0.3442 -0.2119
 2590TIP3    H131965   3.413   7.101  10.497 -0.9700  2.3197 -1.0242
 2590TIP3    H231966   3.262   7.101  10.488 -1.1112 -0.1357  0.4640
 2591TIP3   OH231967   5.943   6.874   8.562 -0.0569  0.2437 -0.5133
 2591TIP3    H131968   5.853   6.879   8.596 -0.0242  0.2612 -0.4299
 2591TIP3    H231969   5.968   6.782   8.575 -1.1873 -0.5981 -3.3600
 2592TIP3   OH231970   1.598   7.601   8.808  1.3140  0.3894  0.1674
 2592TIP3    H131971   1.605   7.603   8.713  0.0723  0.3734  0.0557
 2592TIP3    H231972   1.510   7.565   8.824  1.3559  0.7758  1.3095
 2593TIP3   OH231973   7.618   7.471   9.715  0.3737 -0.6119 -0.2388
 2593TIP3    H131974   7.587   7.557   9.688  2.0668  1.2477  3.1164
 2593TIP3    H231975   7.713   7.476   9.708  0.5728 -1.7053  1.2184
 2594TIP3   OH231976   3.286   1.989   9.318  0.2929 -0.0481 -0.2467
 2594TIP3    H131977   3.299   2.066   9.263 -0.6476 -0.4327 -1.0320
 2594TIP3    H231978   3.355   1.928   9.291  0.6770  0.2850 -0.0287
 2595TIP3   OH231979   1.073   3.965   9.934  0.3040 -0.2931 -0.7368
 2595TIP3    H131980   0.979   3.948   9.935 -0.1857  1.7986  2.3162
 2595TIP3    H231981   1.081   4.051   9.891  0.5616  0.3322  0.5057
 2596TIP3   OH231982   4.467   7.166   9.865  0.3869  0.2857 -0.3333
 2596TIP3    H131983   4.474   7.070   9.865 -2.4599 -0.1624  3.1017
 2596TIP3    H231984   4.528   7.195   9.933 -0.0282  0.6914 -0.1268
 2597TIP3   OH231985   6.178   5.069   9.237 -0.5172  0.2452  0.1902
 2597TIP3    H131986   6.139   5.086   9.323 -0.9443  0.8627 -0.1115
 2597TIP3    H231987   6.235   5.145   9.221 -1.4965  0.8280 -0.6529
 2598TIP3   OH231988   6.759   3.613  10.979 -0.0945  0.0673 -0.6865
 2598TIP3    H131989   6.830   3.579  11.033  1.2530  2.0289 -1.1176
 2598TIP3    H231990   6.779   3.706  10.970 -1.1222  0.1100 -3.2499
 2599TIP3   OH231991   2.109   5.331  10.389  0.4487 -0.0650 -0.1385
 2599TIP3    H131992   2.177   5.397  10.403 -0.7640  1.5666 -1.5038
 2599TIP3    H231993   2.048   5.372  10.327 -1.1681 -1.9031  0.1369
 2600TIP3   OH231994   2.582   7.148   8.262  0.2236  0.0846  0.1890
 2600TIP3    H131995   2.589   7.093   8.341  1.0082  2.2654  1.7493
 2600TIP3    H231996   2.673   7.164   8.236 -0.0308 -0.9946 -1.5178
 2601TIP3   OH231997   0.104   0.717   9.072  0.0071 -0.0927  0.8829
 2601TIP3    H131998   0.191   0.742   9.043 -0.2432 -0.5644 -0.3629
 2601TIP3    H231999   0.102   0.738   9.166  0.1737  3.4518  0.2352
 2602TIP3   OH232000   0.370   1.839  10.540 -0.1944  0.1985 -0.2312
 2602TIP3    H132001   0.460   1.807  10.545 -0.1222  0.5676  2.7945
 2602TIP3    H232002   0.356   1.884  10.623 -2.3169  2.5941 -1.7414
 2603TIP3   OH232003   6.538   2.783  10.353 -0.1958  0.1454 -0.4954
 2603TIP3    H132004   6.563   2.873  10.371 -2.1296  0.2464  2.3971
 2603TIP3    H232005   6.443   2.781  10.367 -0.3305 -2.2011 -1.1858
 2604TIP3   OH232006   2.688   0.031   8.860  0.0196  0.6261  0.7791
 2604TIP3    H132007   2.724   0.087   8.928  0.2469  2.3604 -0.6973
 2604TIP3    H232008   2.750   0.038   8.788 -0.6559 -0.4489  0.0628
 2605TIP3   OH232009   6.834   5.434   8.770  0.7209 -0.7172 -0.3147
 2605TIP3    H132010   6.870   5.505   8.717 -1.2259  0.5737  0.0071
 2605TIP3    H232011   6.868   5.355   8.728  1.6074  0.3394 -1.7057
 2606TIP3   OH232012   3.249   7.058  11.012 -0.5074 -0.2214 -0.2320
 2606TIP3    H132013   3.283   7.142  11.042  1.7298 -1.4118  0.7808
 2606TIP3    H232014   3.172   7.081  10.959 -0.4738  2.3784  0.6996
 2607TIP3   OH232015   6.787   4.697  10.445 -0.0658 -0.8407 -0.0214
 2607TIP3    H132016   6.880   4.721  10.451 -0.1939 -0.2674 -0.2094
 2607TIP3    H232017   6.778   4.661  10.357 -0.1481 -0.2998 -0.2382
 2608TIP3   OH232018   3.555   3.846  10.550  0.2059 -0.3276 -0.7749
 2608TIP3    H132019   3.630   3.887  10.594 -0.6597  0.0622  0.3817
 2608TIP3    H232020   3.592   3.810  10.469  1.6556 -0.2071 -0.2057
 2609TIP3   OH232021   4.592   7.097   9.507 -0.0251  0.0741  0.2315
 2609TIP3    H132022   4.641   7.179   9.515  1.5741 -0.8218  0.0690
 2609TIP3    H232023   4.556   7.099   9.419 -0.9866  1.0953  0.6164
 2610TIP3   OH232024   3.804   5.963   9.638  0.3367 -0.1544 -0.4060
 2610TIP3    H132025   3.861   6.022   9.589  0.0163 -0.1492 -0.7665
 2610TIP3    H232026   3.828   5.875   9.607 -0.2651 -0.1166 -0.9939
 2611TIP3   OH232027   4.142   5.052  10.005 -0.0763  0.4726  0.9397
 2611TIP3    H132028   4.236   5.044   9.991 -0.5359 -0.5674 -2.4099
 2611TIP3    H232029   4.112   4.962  10.021 -0.8480  0.2084 -1.5514
 2612TIP3   OH232030   5.384   5.259   9.315  0.3047 -0.1147  0.2230
 2612TIP3    H132031   5.464   5.208   9.325  0.3519  0.1790  1.5223
 2612TIP3    H232032   5.402   5.341   9.360 -1.0978 -0.4769  1.5224
 2613TIP3   OH232033   4.357   6.915   9.573  0.4296 -0.2812 -0.0481
 2613TIP3    H132034   4.434   6.964   9.545  0.0464 -0.9068 -2.4331
 2613TIP3    H232035   4.306   6.904   9.493 -0.4561 -2.8141  0.7835
 2614TIP3   OH232036   5.782   0.742  10.428 -0.3026  0.4176  0.6799
 2614TIP3    H132037   5.775   0.680  10.500  0.6530  0.4643  0.8199
 2614TIP3    H232038   5.743   0.696  10.353  0.7939 -0.5595  0.6699
 2615TIP3   OH232039   6.939   3.085   8.960  0.1572  0.3361  0.4574
 2615TIP3    H132040   7.027   3.066   8.927 -0.0110 -0.4135  0.4189
 2615TIP3    H232041   6.889   3.006   8.940 -0.1163  0.1111  1.9524
 2616TIP3   OH232042   6.877   0.854  11.141 -0.5050 -0.0852 -0.2330
 2616TIP3    H132043   6.955   0.910  11.145 -0.0710 -0.7097  0.0369
 2616TIP3    H232044   6.819   0.889  11.209  0.3890 -0.8977  0.9785
 2617TIP3   OH232045   3.798   5.043  10.070 -0.4237 -0.4678  0.4986
 2617TIP3    H132046   3.865   5.070  10.008  0.9411 -2.1447  1.1773
 2617TIP3    H232047   3.736   5.116  10.071  0.0889  0.1079 -1.9466
 2618TIP3   OH232048   6.013   4.853   9.293  0.1867  0.1943 -0.0718
 2618TIP3    H132049   6.092   4.808   9.261  0.4815 -0.2860  1.2780
 2618TIP3    H232050   6.026   4.945   9.266  0.4367 -0.1654 -1.2525
 2619TIP3   OH232051   2.826   2.989   9.881  0.2369  0.2305 -0.1925
 2619TIP3    H132052   2.736   2.956   9.891  0.5980 -0.1704  2.5496
 2619TIP3    H232053   2.880   2.911   9.882  0.6922  0.4851 -1.7118
 2620TIP3   OH232054   2.398   6.299   9.324 -0.3040  0.4138  0.0778
 2620TIP3    H132055   2.330   6.359   9.292 -0.3621  0.3518  0.0852
 2620TIP3    H232056   2.479   6.350   9.318 -0.3092  0.3883 -0.2115
 2621TIP3   OH232057   0.614   0.256   9.207 -0.0213  0.0548 -0.2201
 2621TIP3    H132058   0.672   0.332   9.200 -1.1926  0.8867 -1.5206
 2621TIP3    H232059   0.595   0.248   9.301  0.5842  1.0193 -0.0078
 2622TIP3   OH232060   2.880   7.200   8.558 -0.2019 -0.2193  0.2741
 2622TIP3    H132061   2.852   7.114   8.527 -0.0425 -0.0172 -0.4459
 2622TIP3    H232062   2.798   7.250   8.568 -0.2899 -0.4341  0.6472
 2623TIP3   OH232063   0.717   7.583  10.160  0.4268  0.1769  0.6582
 2623TIP3    H132064   0.810   7.563  10.161  0.2013 -1.0050 -0.0982
 2623TIP3    H232065   0.693   7.583  10.067 -0.3704  0.2471  0.8515
 2624TIP3   OH232066   3.278   2.709   9.106  0.0579 -0.0690 -0.1032
 2624TIP3    H132067   3.202   2.742   9.059 -0.0078 -0.4238 -0.2421
 2624TIP3    H232068   3.346   2.699   9.040  0.5136  1.0989  0.1583
 2625TIP3   OH232069   4.770   5.197  10.080  0.0463 -0.0681  0.0196
 2625TIP3    H132070   4.733   5.192   9.992 -0.9525 -3.0653  0.4970
 2625TIP3    H232071   4.848   5.141  10.077 -0.0193 -0.2423  1.0066
 2626TIP3   OH232072   7.114   5.610  10.765 -0.5219  0.0694 -0.5672
 2626TIP3    H132073   7.037   5.555  10.752 -1.4454  1.7020 -2.6099
 2626TIP3    H232074   7.124   5.615  10.860 -2.9263 -0.2471 -0.2283
 2627TIP3   OH232075   5.183   0.439   9.791  0.2855 -0.3476 -0.0643
 2627TIP3    H132076   5.206   0.511   9.850  2.7979 -1.4515  0.4302
 2627TIP3    H232077   5.222   0.464   9.707 -0.3458 -0.3651 -0.3731
 2628TIP3   OH232078   2.067   4.849   8.938  0.1243  0.0857 -0.0662
 2628TIP3    H132079   2.100   4.911   8.874  1.2559  1.3699  1.6820
 2628TIP3    H232080   2.011   4.790   8.888 -1.1503  2.5820 -1.7930
 2629TIP3   OH232081   3.950   1.839   8.846 -0.4990  0.4019  0.2171
 2629TIP3    H132082   3.909   1.905   8.791  0.0630 -0.0134 -0.7128
 2629TIP3    H232083   4.003   1.787   8.786  0.5116  0.2396  1.2224
 2630TIP3   OH232084   3.555   3.140  10.877  0.0921  0.0609  0.0776
 2630TIP3    H132085   3.617   3.087  10.927  0.1359  1.3686  1.4567
 2630TIP3    H232086   3.588   3.136  10.787  1.1314 -0.7175  0.4737
 2631TIP3   OH232087   0.833   7.610  10.424 -0.3486  0.1924 -0.2055
 2631TIP3    H132088   0.796   7.543  10.482 -1.6559 -0.3133 -1.5539
 2631TIP3    H232089   0.757   7.646  10.378  0.5916  0.9756 -1.1983
 2632TIP3   OH232090   0.309   4.777  10.057 -0.6602 -0.4355 -0.0546
 2632TIP3    H132091   0.401   4.767  10.082 -0.7542 -1.8441 -0.1758
 2632TIP3    H232092   0.265   4.704  10.101 -1.6170 -0.1116 -0.4628
 2633TIP3   OH232093   5.024   6.477  10.618 -0.3565 -0.1699  0.0235
 2633TIP3    H132094   5.109   6.439  10.597 -1.4002 -2.0896 -1.0677
 2633TIP3    H232095   4.985   6.416  10.680 -2.0879 -1.0024 -1.7773
 2634TIP3   OH232096   1.265   2.055   8.502  0.4872  0.2884 -0.2944
 2634TIP3    H132097   1.349   2.083   8.466  1.3364  0.1472  1.4490
 2634TIP3    H232098   1.205   2.055   8.428  2.1091  0.0455 -1.6526
 2635TIP3   OH232099   1.287   3.758   9.094 -0.1720  0.7947 -0.3090
 2635TIP3    H132100   1.194   3.747   9.114  0.0764 -0.9842  0.0904
 2635TIP3    H232101   1.330   3.686   9.142  1.1555  0.3012 -2.1404
 2636TIP3   OH232102   6.040   0.792  10.172  0.5778  0.7247 -0.4450
 2636TIP3    H132103   6.084   0.864  10.127 -2.0837  2.0191 -1.2106
 2636TIP3    H232104   6.011   0.830  10.256  1.0987 -0.1418  0.1382
 2637TIP3   OH232105   5.552   0.575  10.260 -0.2933  0.3945 -0.3293
 2637TIP3    H132106   5.635   0.533  10.285 -0.2446  0.7761  0.1710
 2637TIP3    H232107   5.523   0.526  10.183 -0.2411 -0.5587  0.2348
 2638TIP3   OH232108   3.735   3.964  10.720  0.1983 -0.4834 -0.6900
 2638TIP3    H132109   3.808   3.996  10.667  1.3454 -2.2887 -0.3008
 2638TIP3    H232110   3.775   3.901  10.780 -1.6688 -1.4467 -0.3734
 2639TIP3   OH232111   1.546   4.249   8.385  0.0294 -0.1726  0.1057
 2639TIP3    H132112   1.460   4.281   8.358 -0.0147 -0.1964  0.2182
 2639TIP3    H232113   1.530   4.202   8.467  0.1505 -0.1662  0.1343
 2640TIP3   OH232114   2.570   6.478   9.153  0.5523 -0.2678 -0.2154
 2640TIP3    H132115   2.546   6.398   9.107  1.1060 -1.3606  1.2906
 2640TIP3    H232116   2.608   6.535   9.086 -0.6776 -0.8813 -1.4850
 2641TIP3   OH232117   1.189   7.125  10.652  0.0136  0.0372 -0.2580
 2641TIP3    H132118   1.100   7.104  10.623 -1.1576  1.4234  2.0320
 2641TIP3    H232119   1.231   7.040  10.665 -1.7791 -0.7372  0.8284
 2642TIP3   OH232120   5.493   6.766   9.737 -0.6654  0.2133  0.3427
 2642TIP3    H132121   5.469   6.858   9.724 -2.1159 -0.1972 -0.0593
 2642TIP3    H232122   5.436   6.717   9.677  0.7016 -0.8974 -0.1065
 2643TIP3   OH232123   0.142   4.230   8.953 -0.0514  0.3870 -0.6797
 2643TIP3    H132124   0.179   4.316   8.935 -1.3046  0.4951 -3.2568
 2643TIP3    H232125   0.218   4.172   8.959  0.7732  1.5212  0.4024
 2644TIP3   OH232126   3.910   0.472  10.086 -0.4233 -0.1695 -0.3062
 2644TIP3    H132127   3.837   0.446  10.031  0.7468  0.1616 -2.1238
 2644TIP3    H232128   3.913   0.407  10.156 -4.0494  1.2826  1.4733
 2645TIP3   OH232129   5.438   2.179   9.620  0.2373  0.5193 -0.6435
 2645TIP3    H132130   5.524   2.150   9.590  0.6006 -0.0066  0.8058
 2645TIP3    H232131   5.430   2.269   9.587  2.0582  1.1835  0.5565
 2646TIP3   OH232132   3.155   7.346  11.368  0.3961  0.2060  0.2804
 2646TIP3    H132133   3.218   7.410  11.401 -0.5977  0.5344  1.6525
 2646TIP3    H232134   3.183   7.263  11.407  2.5546 -0.6039 -2.6500
 2647TIP3   OH232135   2.878   2.075  10.720 -0.6647  0.6568  0.1220
 2647TIP3    H132136   2.842   2.091  10.633  0.7765 -1.0609 -0.8438
 2647TIP3    H232137   2.964   2.117  10.719 -0.5278  0.4024  0.6371
 2648TIP3   OH232138   6.634   5.916  10.901 -0.1328 -0.1261  0.2275
 2648TIP3    H132139   6.637   5.946  10.991  0.5516 -1.1399  0.5549
 2648TIP3    H232140   6.556   5.859  10.898 -0.6676  0.6084 -0.0570
 2649TIP3   OH232141   6.291   0.374   8.965  0.4891  0.0973  0.1057
 2649TIP3    H132142   6.250   0.444   8.914 -1.3400 -0.2865  0.9451
 2649TIP3    H232143   6.376   0.361   8.924 -1.6076 -1.6790 -4.3578
 2650TIP3   OH232144   0.730   3.651   8.392  0.0199 -0.2351  0.2613
 2650TIP3    H132145   0.736   3.555   8.385  0.0316 -0.1199 -2.6109
 2650TIP3    H232146   0.638   3.670   8.374  0.0918  0.2994  0.4692
 2651TIP3   OH232147   6.928   6.831   9.301 -1.0178 -0.6244  0.4578
 2651TIP3    H132148   6.951   6.769   9.232 -0.8219 -1.4679  1.2656
 2651TIP3    H232149   7.010   6.847   9.348 -1.2984 -0.6269  0.9503
 2652TIP3   OH232150   6.870   4.695   9.959  0.8025 -0.3758 -0.2579
 2652TIP3    H132151   6.925   4.616   9.960 -0.0773 -1.0058  0.1340
 2652TIP3    H232152   6.843   4.705  10.050  2.9119  1.8646  0.2357
 2653TIP3   OH232153   3.441   1.706  11.107 -0.5008 -0.0457 -0.2227
 2653TIP3    H132154   3.532   1.676  11.107 -1.2616 -2.6492  0.6708
 2653TIP3    H232155   3.412   1.695  11.198 -1.2618  2.4194 -0.0997
 2654TIP3   OH232156   7.026   4.544   9.544 -0.5291  0.1358 -0.3202
 2654TIP3    H132157   7.019   4.475   9.611  0.6967  0.2242 -0.0868
 2654TIP3    H232158   6.969   4.614   9.576 -1.2170 -0.4636 -0.1924
 2655TIP3   OH232159   1.663   4.644   9.400 -0.2748  0.1296  0.5295
 2655TIP3    H132160   1.737   4.587   9.376 -0.2257  0.9114 -1.3177
 2655TIP3    H232161   1.701   4.709   9.459  0.0259 -0.7040  1.2926
 2656TIP3   OH232162   1.828   1.534   9.708  0.4779  0.3245  0.0188
 2656TIP3    H132163   1.759   1.468   9.699 -0.7910  1.7361 -1.0490
 2656TIP3    H232164   1.817   1.592   9.632  1.8516  1.4962  0.6586
 2657TIP3   OH232165   3.583   5.902  10.590  0.3994  0.2428 -0.4839
 2657TIP3    H132166   3.586   5.997  10.579 -0.8157  0.3189 -0.3061
 2657TIP3    H232167   3.600   5.867  10.503 -0.0306  0.6491 -0.7346
 2658TIP3   OH232168   3.500   6.177  10.556  0.0338  0.2677  0.2899
 2658TIP3    H132169   3.587   6.208  10.529  1.0511  0.2735  3.2757
 2658TIP3    H232170   3.455   6.257  10.584 -0.1908  0.0014  0.6839
 2659TIP3   OH232171   1.981   1.934  10.335 -0.6554  0.3568 -0.3623
 2659TIP3    H132172   1.990   1.860  10.395  0.6501  0.8606  0.0995
 2659TIP3    H232173   2.052   1.993  10.359 -0.9338  1.2012 -1.5263
 2660TIP3   OH232174   5.983   5.073   9.009  0.0183 -0.0672 -0.0041
 2660TIP3    H132175   6.071   5.036   8.996  0.3576 -0.0032  1.8538
 2660TIP3    H232176   5.925   5.010   8.967  0.9250 -0.1797 -1.1539
 2661TIP3   OH232177   3.070   7.232  10.891  0.2220  0.1063  0.3744
 2661TIP3    H132178   3.141   7.273  10.842  1.1984 -0.2311  1.4640
 2661TIP3    H232179   3.034   7.304  10.944 -0.5005  0.3577 -0.4422
 2662TIP3   OH232180   6.911   4.860  10.222 -0.0229  0.2636  0.1726
 2662TIP3    H132181   6.984   4.808  10.253  0.6015  0.0241 -1.5512
 2662TIP3    H232182   6.942   4.951  10.225  0.1032  0.2232  0.0967
 2663TIP3   OH232183   2.869   0.483   9.145 -0.1785 -0.3997 -0.2910
 2663TIP3    H132184   2.964   0.488   9.149 -0.1046 -1.5148 -0.3129
 2663TIP3    H232185   2.839   0.551   9.204  0.6240  0.2493 -0.6141
 2664TIP3   OH232186   0.474   3.515  10.740  0.2624 -0.1967  0.3589
 2664TIP3    H132187   0.384   3.490  10.716  0.1347  0.7030 -0.1572
 2664TIP3    H232188   0.477   3.609  10.724  2.1639 -0.6385 -2.4472
 2665TIP3   OH232189   4.518   7.619   8.864 -0.6082  0.0589  0.1514
 2665TIP3    H132190   4.435   7.596   8.820  0.0712  1.1228 -1.8058
 2665TIP3    H232191   4.514   7.714   8.873  0.6863  0.2103 -0.6356
 2666TIP3   OH232192   7.016   0.631  10.404 -0.0393 -0.1969  0.0538
 2666TIP3    H132193   7.033   0.578  10.326 -0.3545 -1.6875  0.9591
 2666TIP3    H232194   7.101   0.638  10.447  0.1413  0.6543 -0.4220
 2667TIP3   OH232195   1.014   0.827   9.920 -0.5663 -0.8899 -0.8495
 2667TIP3    H132196   0.958   0.791   9.851  0.0740 -0.6418 -1.5033
 2667TIP3    H232197   1.017   0.758   9.987 -2.7128 -0.4104 -0.1816
 2668TIP3   OH232198   2.986   6.880  10.464  0.2250  0.2180 -0.0473
 2668TIP3    H132199   3.057   6.908  10.406  0.6203 -0.6275  0.0035
 2668TIP3    H232200   2.957   6.796  10.427  1.1557 -0.8477  1.5266
 2669TIP3   OH232201   2.180   4.460   9.850 -0.6521 -0.6743 -0.4088
 2669TIP3    H132202   2.092   4.441   9.885 -0.0621 -0.7894  1.0834
 2669TIP3    H232203   2.226   4.377   9.855 -0.2757 -0.4816 -0.6552
 2670TIP3   OH232204   0.333   4.077   9.053 -0.3146 -0.3891  0.3633
 2670TIP3    H132205   0.345   4.046   9.143 -1.0195 -1.6788  0.0387
 2670TIP3    H232206   0.337   3.998   8.999  0.9576  0.4659 -0.8469
 2671TIP3   OH232207   7.578   2.004   9.284 -0.1058 -0.2201  0.0526
 2671TIP3    H132208   7.604   1.976   9.196 -1.9896  2.0163 -1.3204
 2671TIP3    H232209   7.615   1.937   9.342  1.0764 -1.8632 -2.4112
 2672TIP3   OH232210   5.482   7.279  11.007  0.1106 -0.0668 -0.0097
 2672TIP3    H132211   5.517   7.357  11.051  1.5805 -0.3544 -0.5928
 2672TIP3    H232212   5.444   7.312  10.926  0.6075  0.0669 -0.1912
 2673TIP3   OH232213   1.737   6.905  10.436  0.2185  0.2980  0.0597
 2673TIP3    H132214   1.726   6.932  10.527  2.1106  0.2363  0.3531
 2673TIP3    H232215   1.729   6.810  10.438 -2.1207  0.4430 -0.2654
 2674TIP3   OH232216   0.710   1.781   9.504 -0.5787  0.5161 -0.3277
 2674TIP3    H132217   0.618   1.764   9.527  0.7544 -1.8688  4.8719
 2674TIP3    H232218   0.733   1.859   9.554  0.8462 -0.6672  0.9510
 2675TIP3   OH232219   7.566   2.716  10.751  0.9655  0.0510  0.3977
 2675TIP3    H132220   7.599   2.627  10.767 -1.4681 -0.8808  0.5564
 2675TIP3    H232221   7.586   2.733  10.659  1.2465 -0.7519  0.3007
 2676TIP3   OH232222   0.021   2.501  11.141 -0.3058 -0.2493  0.0228
 2676TIP3    H132223  -0.042   2.440  11.178  0.3682 -0.4683  0.8524
 2676TIP3    H232224   0.079   2.447  11.087 -0.9649 -0.0104 -0.9461
 2677TIP3   OH232225   6.045   3.800   9.926  0.2914  0.3561 -0.5398
 2677TIP3    H132226   5.961   3.841   9.948 -0.1047  0.3613 -1.9279
 2677TIP3    H232227   6.020   3.713   9.894  0.9074 -0.0025 -0.0518
 2678TIP3   OH232228   0.146   5.884  10.627 -0.8062 -0.6070 -0.4780
 2678TIP3    H132229   0.133   5.979  10.625 -0.0812 -0.4973 -0.1236
 2678TIP3    H232230   0.084   5.853  10.693 -0.4277 -0.2725  0.0449
 2679TIP3   OH232231   5.592   4.243   8.894  0.4834  0.2007  0.1964
 2679TIP3    H132232   5.541   4.234   8.975  1.2250  0.8616  0.7503
 2679TIP3    H232233   5.562   4.170   8.839  0.8751 -1.0658  1.5698
 2680TIP3   OH232234   1.800   2.692  10.189 -0.6885  0.0673 -0.5496
 2680TIP3    H132235   1.734   2.637  10.148 -0.5770 -1.8184  1.5845
 2680TIP3    H232236   1.882   2.669  10.144 -0.5666 -1.9689  0.5923
 2681TIP3   OH232237   7.538   6.129   9.045  0.2266 -0.1605  0.0975
 2681TIP3    H132238   7.494   6.205   9.083 -0.2735  0.2958 -1.3196
 2681TIP3    H232239   7.467   6.071   9.019  0.5378 -0.3381 -0.3686
 2682TIP3   OH232240   6.517   3.550   9.832 -0.2993 -0.2477  0.0547
 2682TIP3    H132241   6.447   3.540   9.896 -0.5704  0.8504 -0.0603
 2682TIP3    H232242   6.481   3.608   9.765  0.9810  0.9773  0.3929
 2683TIP3   OH232243   1.654   4.267   9.896  0.0249 -0.3064 -0.6694
 2683TIP3    H132244   1.690   4.278   9.808 -1.5603 -1.2887 -1.5042
 2683TIP3    H232245   1.707   4.199   9.936  1.1455  0.5755 -0.6201
 2684TIP3   OH232246   1.352   5.767   9.508 -1.0444 -0.5299  0.1759
 2684TIP3    H132247   1.333   5.853   9.471  0.9222 -0.1052  0.0316
 2684TIP3    H232248   1.274   5.714   9.488 -2.1522  1.1055 -0.0060
 2685TIP3   OH232249   2.754   7.024  10.482 -0.1173 -0.2584 -0.0936
 2685TIP3    H132250   2.845   6.998  10.468 -0.7081 -2.1543 -0.6676
 2685TIP3    H232251   2.735   6.997  10.572  0.6701  2.7675  1.1192
 2686TIP3   OH232252   4.689   4.683   9.362 -0.2240 -0.1336 -0.0911
 2686TIP3    H132253   4.754   4.753   9.349 -0.5647  0.1243 -0.4026
 2686TIP3    H232254   4.714   4.644   9.446  1.1105 -0.8708 -0.7927
 2687TIP3   OH232255   0.526   1.047   8.240 -0.2524 -0.3592  0.3398
 2687TIP3    H132256   0.592   1.074   8.304 -0.1596  0.7272 -0.1962
 2687TIP3    H232257   0.524   0.952   8.248  2.7805 -0.6625 -0.9051
 2688TIP3   OH232258   6.841   3.258   9.185  0.0508  0.2771  0.6544
 2688TIP3    H132259   6.853   3.177   9.135  0.5338  0.4399  0.4926
 2688TIP3    H232260   6.911   3.315   9.153 -0.4230  0.8355  0.6063
 2689TIP3   OH232261   4.223   7.575  10.909  0.1113 -0.2404  0.2791
 2689TIP3    H132262   4.285   7.635  10.869  0.3316 -0.2074  0.6760
 2689TIP3    H232263   4.273   7.494  10.921 -0.0204 -0.3210  0.2898
 2690TIP3   OH232264   1.892   7.288  11.020  0.3293  0.4481 -0.1652
 2690TIP3    H132265   1.984   7.263  11.015  0.5390  1.2770 -0.7252
 2690TIP3    H232266   1.844   7.206  11.008  0.9977  0.0871 -0.4151
 2691TIP3   OH232267   2.150   7.535  10.118  0.3261 -0.1132  0.5922
 2691TIP3    H132268   2.166   7.441  10.112 -0.4308 -0.2356  0.3985
 2691TIP3    H232269   2.087   7.544  10.189  0.1213  0.2179  0.3691
 2692TIP3   OH232270   7.184   6.534   9.168 -0.2248  0.4913 -0.2974
 2692TIP3    H132271   7.107   6.538   9.225  0.5851 -0.6596  0.9487
 2692TIP3    H232272   7.153   6.565   9.083 -1.6782  1.4784  0.5482
 2693TIP3   OH232273   4.958   3.456   9.482 -0.0360 -0.4075  0.5700
 2693TIP3    H132274   4.907   3.406   9.419  0.3867 -1.5117  1.0753
 2693TIP3    H232275   4.898   3.471   9.555 -0.3468  0.3586  0.1607
 2694TIP3   OH232276   0.656   7.175  10.200 -0.4074 -0.8339  0.2396
 2694TIP3    H132277   0.623   7.188  10.111  0.4786  0.2184  0.0526
 2694TIP3    H232278   0.653   7.080  10.212  2.4295 -1.3487 -2.0982
 2695TIP3   OH232279   4.402   1.292   9.223  0.1207 -0.7569  0.2866
 2695TIP3    H132280   4.343   1.365   9.239 -0.0963 -1.0477  0.8682
 2695TIP3    H232281   4.459   1.290   9.301  1.2249 -0.1832 -0.4785
 2696TIP3   OH232282   2.633   4.291  10.875  0.7968  0.6316 -0.3492
 2696TIP3    H132283   2.580   4.220  10.909  1.0570  0.4799 -0.2612
 2696TIP3    H232284   2.707   4.298  10.936  0.2695  1.6204  0.2034
 2697TIP3   OH232285   5.019   2.129   9.833 -0.3296  0.0493 -0.1771
 2697TIP3    H132286   5.035   2.169   9.748  0.7974 -0.2092 -0.0967
 2697TIP3    H232287   4.939   2.077   9.820 -0.9563  1.1117 -0.6791
 2698TIP3   OH232288   6.800   5.176  10.252  0.0330  0.1754 -0.0656
 2698TIP3    H132289   6.734   5.193  10.184  0.5629  0.7969 -0.4295
 2698TIP3    H232290   6.750   5.177  10.334 -0.8844 -2.0541 -0.5144
 2699TIP3   OH232291   6.339   4.266  10.652 -0.0865 -0.3625 -0.8715
 2699TIP3    H132292   6.405   4.333  10.635 -0.4221  0.2351  0.0617
 2699TIP3    H232293   6.385   4.200  10.704 -0.4051  0.4954  0.5728
 2700TIP3   OH232294   2.966   1.253   9.306 -0.1693  0.3212 -0.5523
 2700TIP3    H132295   3.052   1.295   9.304 -0.1824  0.3387 -2.0862
 2700TIP3    H232296   2.949   1.237   9.399  1.4320  0.4219 -0.2118
 2701TIP3   OH232297   1.652   3.989  10.482 -0.2518  0.1133  0.3179
 2701TIP3    H132298   1.653   4.062  10.545  0.5001  0.0784  0.3578
 2701TIP3    H232299   1.566   3.948  10.494 -2.0950  2.9059 -1.9484
 2702TIP3   OH232300   4.124   6.439   9.819  0.0359  0.1514  0.1385
 2702TIP3    H132301   4.066   6.515   9.821  0.0857  0.1885  1.5160
 2702TIP3    H232302   4.194   6.464   9.759  0.0660  1.2145  0.5866
 2703TIP3   OH232303   0.175   7.381   9.958 -0.7578  0.0479 -0.4692
 2703TIP3    H132304   0.156   7.307  10.016 -1.1844  1.0745  0.7343
 2703TIP3    H232305   0.166   7.344   9.870 -2.1783 -1.0525  0.0813
 2704TIP3   OH232306   2.703   1.546   8.703 -0.4585  0.0344  0.3259
 2704TIP3    H132307   2.759   1.479   8.741 -0.4985 -0.3509 -0.2733
 2704TIP3    H232308   2.749   1.573   8.623 -0.5579  0.5541  0.4377
 2705TIP3   OH232309   3.070   2.811   8.928 -0.3142 -0.0577 -0.4103
 2705TIP3    H132310   3.130   2.856   8.870 -1.1989 -0.2667 -1.5233
 2705TIP3    H232311   3.012   2.880   8.962 -0.5843 -0.1058 -0.7666
 2706TIP3   OH232312   3.105   2.014   9.032 -0.5295  0.2387  0.0360
 2706TIP3    H132313   3.131   2.099   8.998 -0.4815 -0.1819 -1.0110
 2706TIP3    H232314   3.028   1.989   8.980 -0.3202 -0.5147  0.0690
 2707TIP3   OH232315   2.677   3.199   9.366 -0.6028  0.2179 -0.1135
 2707TIP3    H132316   2.736   3.227   9.297  3.2147 -2.9775  1.4409
 2707TIP3    H232317   2.636   3.119   9.332  0.1528 -0.5361  0.6872
 2708TIP3   OH232318   5.904   1.491  10.841  0.2331  0.2659 -0.4253
 2708TIP3    H132319   5.827   1.436  10.843  0.1317  0.4014 -0.5663
 2708TIP3    H232320   5.977   1.431  10.824  0.4284 -0.1560  1.6556
 2709TIP3   OH232321   6.154   7.074   9.627  0.4354 -0.3085  0.3457
 2709TIP3    H132322   6.142   6.998   9.570 -1.1521 -1.4173  2.0141
 2709TIP3    H232323   6.088   7.137   9.596  0.3160 -0.4709  0.2640
 2710TIP3   OH232324   3.591   7.130   9.937  0.1698 -0.7381  0.3584
 2710TIP3    H132325   3.597   7.210   9.990  0.9137 -0.5041 -0.0664
 2710TIP3    H232326   3.497   7.117   9.923 -0.0499 -0.8691  1.8265
 2711TIP3   OH232327   0.093   3.520  10.224  0.0883 -0.4052  0.4131
 2711TIP3    H132328   0.104   3.541  10.316 -0.4505  4.2250 -0.3555
 2711TIP3    H232329   0.023   3.454  10.222 -1.8954  1.4033  3.2432
 2712TIP3   OH232330   7.115   4.915   9.323 -0.4403  0.5545 -0.0810
 2712TIP3    H132331   7.022   4.902   9.304 -0.6370  0.5098  0.8426
 2712TIP3    H232332   7.149   4.826   9.333 -0.6721  0.5903  1.2089
 2713TIP3   OH232333   4.159   1.814  10.746 -0.8013  0.0122  0.7302
 2713TIP3    H132334   4.159   1.838  10.654 -0.8769  1.7796  1.1633
 2713TIP3    H232335   4.162   1.718  10.746 -3.2318 -0.1378 -1.1181
 2714TIP3   OH232336   2.142   5.169   9.667  0.2552 -0.3757 -0.2458
 2714TIP3    H132337   2.093   5.208   9.594 -1.5359 -0.1572  0.9967
 2714TIP3    H232338   2.075   5.151   9.734  1.8417 -0.3655  1.4300
 2715TIP3   OH232339   4.726   5.399  11.055 -0.5382 -0.1441  0.2412
 2715TIP3    H132340   4.795   5.348  11.096 -0.9703 -0.5639  0.4533
 2715TIP3    H232341   4.653   5.396  11.117 -0.1872  1.7022  0.7987
 2716TIP3   OH232342   0.769   7.331   9.815  0.3270 -0.0470  0.1496
 2716TIP3    H132343   0.808   7.285   9.741  0.1063  0.2021 -0.1244
 2716TIP3    H232344   0.844   7.360   9.867  0.4714 -0.5709  0.2378
 2717TIP3   OH232345   6.209   0.326   9.595  0.1649  0.1680  0.5408
 2717TIP3    H132346   6.138   0.339   9.532  0.5815  0.1981  0.0683
 2717TIP3    H232347   6.288   0.350   9.547  0.5424 -0.3200  0.9131
 2718TIP3   OH232348   2.535   7.632  10.900  0.4425  0.1764  0.0452
 2718TIP3    H132349   2.613   7.660  10.948  1.4785 -2.1553 -0.1271
 2718TIP3    H232350   2.477   7.595  10.966  1.0285 -1.2528 -0.1994
 2719TIP3   OH232351   4.523   0.623   9.338  0.1024  0.6888  0.2324
 2719TIP3    H132352   4.528   0.704   9.389 -1.5519  1.8485 -1.3184
 2719TIP3    H232353   4.550   0.649   9.249  2.2862 -1.1245  0.2773
 2720TIP3   OH232354   0.626   4.333  10.526  0.1877  0.2568 -0.0423
 2720TIP3    H132355   0.617   4.284  10.608 -0.9918 -1.9809 -1.4068
 2720TIP3    H232356   0.587   4.418  10.545  0.2136 -0.0893  1.7881
 2721TIP3   OH232357   7.013   0.053  10.024  0.1878  0.4515  0.7811
 2721TIP3    H132358   7.060   0.005  10.091 -0.1955  0.1970  0.8748
 2721TIP3    H232359   7.002  -0.010   9.952 -0.6786  0.2583  1.0697
 2722TIP3   OH232360   0.168   1.543   9.800 -0.0569 -0.8420 -0.0338
 2722TIP3    H132361   0.088   1.509   9.760  0.3570 -0.6876 -0.9998
 2722TIP3    H232362   0.218   1.581   9.728  0.5224 -0.1961  0.6820
 2723TIP3   OH232363   2.656   2.780   8.997  0.2276  0.5805 -0.0896
 2723TIP3    H132364   2.733   2.726   9.013  0.7632  1.2016 -0.5657
 2723TIP3    H232365   2.592   2.719   8.959  1.2721  0.5123 -1.8422
 2724TIP3   OH232366   4.626   0.864   9.412  0.1570  0.4537  0.1445
 2724TIP3    H132367   4.709   0.890   9.451  1.1510 -0.6649 -1.1093
 2724TIP3    H232368   4.644   0.860   9.318 -0.4559 -2.5811  0.0336
 2725TIP3   OH232369   6.418   7.343  10.528 -0.5509 -0.5342  0.3968
 2725TIP3    H132370   6.355   7.306  10.591 -1.2490  0.8692  0.5504
 2725TIP3    H232371   6.395   7.301  10.445 -0.2550 -1.6745  0.8614
 2726TIP3   OH232372   0.515   0.359   9.691 -0.0485  0.2020 -0.0727
 2726TIP3    H132373   0.579   0.342   9.760 -0.3614 -0.4374  0.0678
 2726TIP3    H232374   0.430   0.336   9.731 -0.6100  2.8081  0.3900
 2727TIP3   OH232375   6.495   2.884   9.383  0.0371  0.2625 -0.6785
 2727TIP3    H132376   6.518   2.916   9.296 -2.8499  2.0032 -0.9146
 2727TIP3    H232377   6.448   2.802   9.367  1.7150 -0.7685 -0.5231
 2728TIP3   OH232378   3.681   4.276  11.189  0.0120 -0.0484 -0.0667
 2728TIP3    H132379   3.649   4.363  11.163 -1.2715 -0.0575  1.3256
 2728TIP3    H232380   3.615   4.215  11.156  0.5392 -0.4329 -0.4214
 2729TIP3   OH232381   0.920   3.508   9.077  0.6088  0.5741  0.1960
 2729TIP3    H132382   0.867   3.502   9.157  1.9354  2.1053  1.2601
 2729TIP3    H232383   0.931   3.418   9.049 -3.0980  0.1789 -0.4974
 2730TIP3   OH232384   0.952   6.818   8.669 -0.4545 -0.2501 -0.1757
 2730TIP3    H132385   0.992   6.732   8.658 -0.1867  0.0777 -2.1334
 2730TIP3    H232386   0.871   6.802   8.718  0.3451 -1.3831  0.8201
 2731TIP3   OH232387   1.138   4.995   9.894  0.3414  0.0928  0.5073
 2731TIP3    H132388   1.044   5.008   9.909  0.2412 -0.8810  0.7753
 2731TIP3    H232389   1.149   5.005   9.800 -0.4136 -1.9633  0.1483
 2732TIP3   OH232390   2.035   3.770   9.426 -0.1134  0.0635 -0.4220
 2732TIP3    H132391   1.946   3.800   9.445  0.5124  1.0122  1.2601
 2732TIP3    H232392   2.065   3.732   9.509  1.1559  0.0356 -0.8746
 2733TIP3   OH232393   6.154   1.870   9.291  0.5285 -0.0062  0.0272
 2733TIP3    H132394   6.086   1.919   9.337  0.7408 -0.4408  0.8333
 2733TIP3    H232395   6.154   1.784   9.332  3.0871  0.6502  1.6774
 2734TIP3   OH232396   2.079   3.859  10.129 -0.0927 -0.2027  0.0246
 2734TIP3    H132397   2.118   3.841  10.215 -0.1883 -3.5091 -0.4704
 2734TIP3    H232398   1.989   3.828  10.137 -0.7905  1.5240 -0.6919
 2735TIP3   OH232399   2.317   0.157   9.280 -0.1519 -0.1685  0.1356
 2735TIP3    H132400   2.387   0.206   9.323  0.4105 -1.1643  0.3988
 2735TIP3    H232401   2.310   0.197   9.193  0.0853  0.5557  0.4430
 2736TIP3   OH232402   5.306   6.724  10.690 -0.3594  0.2887  0.1020
 2736TIP3    H132403   5.335   6.741  10.779 -0.4787 -0.2256  0.2470
 2736TIP3    H232404   5.211   6.720  10.696 -0.4375  1.3753 -0.2604
 2737TIP3   OH232405   0.187   3.933  11.018  0.3143  0.6272 -0.8391
 2737TIP3    H132406   0.103   3.979  11.015 -0.6414 -0.8456  1.1655
 2737TIP3    H232407   0.166   3.844  10.991  0.9646 -0.0902  0.9393
 2738TIP3   OH232408   4.192   6.879   9.355 -0.1227  0.0305  0.3793
 2738TIP3    H132409   4.108   6.873   9.401 -1.1386  0.6924 -1.3113
 2738TIP3    H232410   4.188   6.962   9.309  0.0497 -1.3827 -2.3622
 2739TIP3   OH232411   4.372   1.504   9.779 -0.1638 -0.2115  0.0485
 2739TIP3    H132412   4.284   1.541   9.789  0.8293  1.7985  2.2881
 2739TIP3    H232413   4.390   1.464   9.863  1.6472  0.8405  0.2013
 2740TIP3   OH232414   3.566   0.228   9.281  0.1022 -0.1941  0.1579
 2740TIP3    H132415   3.509   0.244   9.357 -1.3044 -1.6571 -0.5296
 2740TIP3    H232416   3.625   0.159   9.310 -0.7626 -1.1066 -0.2066
 2741TIP3   OH232417   1.942   6.570  10.030 -0.3315  0.0540  0.0170
 2741TIP3    H132418   1.890   6.647  10.051 -1.6037 -0.6322 -0.4708
 2741TIP3    H232419   1.879   6.498  10.031  1.3158 -1.5596  3.5379
 2742TIP3   OH232420   2.970   2.973  10.472  0.4043  0.1591 -0.5487
 2742TIP3    H132421   2.941   3.015  10.554 -0.5831  0.2990 -0.9523
 2742TIP3    H232422   2.922   3.019  10.404 -1.5954 -2.3178 -0.9400
 2743TIP3   OH232423   6.548   3.108  10.385  0.4134  0.0532 -0.1412
 2743TIP3    H132424   6.521   3.188  10.340  0.7836  0.7106  0.7774
 2743TIP3    H232425   6.519   3.120  10.475 -1.1105 -1.6338 -0.3535
 2744TIP3   OH232426   6.131   0.114   9.294  0.6941 -0.5625  0.0557
 2744TIP3    H132427   6.050   0.068   9.272 -0.8237  1.2836  1.3662
 2744TIP3    H232428   6.191   0.095   9.222 -1.3486 -0.9593 -1.6199
 2745TIP3   OH232429   0.780   2.406   9.061 -0.0452 -0.1095 -0.0481
 2745TIP3    H132430   0.801   2.494   9.090  2.1277 -0.4270 -0.5115
 2745TIP3    H232431   0.860   2.355   9.076 -0.2030 -1.2877 -2.5225
 2746TIP3   OH232432   2.150   3.669  11.088 -0.1327 -0.0488 -0.3426
 2746TIP3    H132433   2.175   3.651  10.997  1.3673  1.9364 -0.3919
 2746TIP3    H232434   2.118   3.585  11.121  1.0292 -1.2791 -2.1459
 2747TIP3   OH232435   1.602   2.216  11.003 -0.2737 -0.2496 -0.1966
 2747TIP3    H132436   1.572   2.211  11.094  0.2359  2.5177  0.2133
 2747TIP3    H232437   1.525   2.249  10.955  0.4039  1.5723 -0.1083
 2748TIP3   OH232438   3.438   7.351  11.408  0.0303  0.2943  0.6611
 2748TIP3    H132439   3.519   7.401  11.418 -0.3372  0.8576  0.8885
 2748TIP3    H232440   3.455   7.268  11.454  1.6149 -0.9938 -2.0267
 2749TIP3   OH232441   1.348   7.353   9.174  0.4425 -0.4400 -0.2461
 2749TIP3    H132442   1.420   7.398   9.130 -0.4609 -0.9019 -2.2922
 2749TIP3    H232443   1.276   7.355   9.111 -1.5188  0.3689  1.8683
 2750TIP3   OH232444   0.015   1.821  10.601 -0.7295  0.1218 -0.6048
 2750TIP3    H132445  -0.018   1.845  10.514  1.5890  0.7501 -1.3904
 2750TIP3    H232446   0.080   1.888  10.622 -2.2244  0.8023  2.3244
 2751TIP3   OH232447   7.534   2.817   8.757  0.0413  0.1797  0.1572
 2751TIP3    H132448   7.544   2.899   8.707  2.9683 -0.6153 -0.7792
 2751TIP3    H232449   7.617   2.806   8.802 -0.4535 -2.0602  0.6435
 2752TIP3   OH232450   1.689   3.437   8.521  0.2866 -0.7665 -0.2475
 2752TIP3    H132451   1.622   3.493   8.483 -0.0222 -1.6264 -0.9944
 2752TIP3    H232452   1.772   3.478   8.496  0.0753 -1.0060 -1.3909
 2753TIP3   OH232453   2.109   1.573  11.031  0.4405  0.0358  0.3352
 2753TIP3    H132454   2.145   1.487  11.052 -0.6660 -0.4423  0.3696
 2753TIP3    H232455   2.045   1.590  11.100 -1.4479 -0.4365 -1.2250
 2754TIP3   OH232456   4.732   4.414   9.511 -0.4687  0.0814 -0.0412
 2754TIP3    H132457   4.774   4.462   9.582 -0.2240  0.6608 -0.5702
 2754TIP3    H232458   4.653   4.376   9.550  0.5429 -1.0651  0.9814
 2755TIP3   OH232459   5.844   6.598   8.604 -0.4508  0.1964 -0.4977
 2755TIP3    H132460   5.847   6.614   8.698 -1.0401  1.6949 -0.7041
 2755TIP3    H232461   5.752   6.578   8.586  0.1490 -3.5088 -0.3186
 2756TIP3   OH232462   4.502   6.398  10.064  0.3721 -0.0047  0.0457
 2756TIP3    H132463   4.590   6.406  10.027  0.0367 -0.7075 -0.9430
 2756TIP3    H232464   4.509   6.323  10.124  0.7356  0.6868  0.8859
 2757TIP3   OH232465   0.218   7.437  10.602 -1.1692  0.3681 -0.2720
 2757TIP3    H132466   0.126   7.439  10.576 -1.9739 -0.3004  2.2473
 2757TIP3    H232467   0.217   7.459  10.695  0.9336 -2.0333  0.4339
 2758TIP3   OH232468   4.687   1.608  10.637  0.5206 -0.0723 -0.3067
 2758TIP3    H132469   4.644   1.687  10.670 -0.1818 -0.6746  0.2529
 2758TIP3    H232470   4.749   1.641  10.571 -0.6075  0.8504 -0.9640
 2759TIP3   OH232471   2.972   2.256  10.504  0.5256  0.1511 -0.0591
 2759TIP3    H132472   2.937   2.294  10.424  1.1440 -1.5634 -1.2115
 2759TIP3    H232473   3.032   2.322  10.539 -0.0925  1.0966 -0.7643
 2760TIP3   OH232474   4.799   2.554  11.113 -0.1195  0.2756  0.1535
 2760TIP3    H132475   4.713   2.555  11.154 -0.1136 -0.4890  0.1977
 2760TIP3    H232476   4.814   2.645  11.087 -0.8465  0.4554  0.3325
 2761TIP3   OH232477   4.370   4.523  10.330 -0.2384 -0.5414  0.2076
 2761TIP3    H132478   4.374   4.619  10.327  0.3224 -0.5174  1.2222
 2761TIP3    H232479   4.337   4.498  10.244  1.2142  0.4785 -0.6938
 2762TIP3   OH232480   1.693   2.458  10.812 -0.3897  0.3191 -0.4354
 2762TIP3    H132481   1.615   2.512  10.825 -0.7440  0.1101 -1.5597
 2762TIP3    H232482   1.660   2.377  10.775  0.0221 -1.1223  2.1062
 2763TIP3   OH232483   1.220   4.282   9.560 -0.2796 -0.1550  0.0735
 2763TIP3    H132484   1.202   4.350   9.625  2.9985  1.1144 -0.1486
 2763TIP3    H232485   1.275   4.325   9.494  1.0713 -2.7423 -0.6463
 2764TIP3   OH232486   0.336   2.672  10.204  0.5121  0.5397 -0.0003
 2764TIP3    H132487   0.366   2.667  10.113  0.7610 -2.1667  0.1488
 2764TIP3    H232488   0.244   2.646  10.200  0.6191  0.0731  0.5655
 2765TIP3   OH232489   1.383   2.797  10.658  0.1629  0.0294 -0.0715
 2765TIP3    H132490   1.416   2.886  10.646 -0.3936  0.1362 -0.8709
 2765TIP3    H232491   1.409   2.750  10.579 -0.7261 -0.1500 -0.2709
 2766TIP3   OH232492   6.415   3.045  10.625 -0.6342 -0.5445 -0.2880
 2766TIP3    H132493   6.345   3.098  10.586 -1.3930 -0.3404  1.2640
 2766TIP3    H232494   6.378   3.014  10.708  0.7384 -1.3473  0.0571
 2767TIP3   OH232495   5.380   2.579  10.278  0.2006  0.5574 -0.5072
 2767TIP3    H132496   5.389   2.558  10.185 -0.2316  0.8225 -0.6078
 2767TIP3    H232497   5.297   2.539  10.304  1.3505 -1.4852  0.3163
 2768TIP3   OH232498   6.413   3.649   8.495  0.7806 -0.0997 -0.2724
 2768TIP3    H132499   6.471   3.707   8.446  0.5512  0.4040  0.0532
 2768TIP3    H232500   6.370   3.596   8.428  1.3788 -0.2637 -0.5369
 2769TIP3   OH232501   1.647   2.944  10.323 -0.2727  0.1978 -0.4297
 2769TIP3    H132502   1.693   2.864  10.300  2.5758  1.7345 -0.4824
 2769TIP3    H232503   1.560   2.914  10.352  1.1375 -3.0417  0.9922
 2770TIP3   OH232504   6.349   5.046   9.719  0.0645  0.0988  0.8545
 2770TIP3    H132505   6.293   4.976   9.752 -0.1919  0.1878  0.6076
 2770TIP3    H232506   6.399   5.074   9.796  1.0347 -1.1414  0.7110
 2771TIP3   OH232507   1.245   2.015   9.875 -0.0571  0.1377 -0.0042
 2771TIP3    H132508   1.161   1.995   9.917  0.7861 -1.0548  1.1823
 2771TIP3    H232509   1.265   1.937   9.824  0.1052  0.6213 -0.6954
 2772TIP3   OH232510   5.670   5.643  10.448 -0.1944  0.1629 -0.1732
 2772TIP3    H132511   5.701   5.698  10.520  0.6771 -0.1619 -0.2874
 2772TIP3    H232512   5.724   5.668  10.373 -0.8231  0.2148 -0.6183
 2773TIP3   OH232513   4.567   3.822   9.296 -0.3380 -0.1729  0.1484
 2773TIP3    H132514   4.489   3.861   9.335  0.3568  0.3346  1.0720
 2773TIP3    H232515   4.533   3.757   9.234 -1.5473  2.0342 -1.6618
 2774TIP3   OH232516   1.463   3.196  10.644  0.8508  0.0124 -0.2027
 2774TIP3    H132517   1.524   3.267  10.622  2.1866 -0.6696  1.0632
 2774TIP3    H232518   1.519   3.119  10.653 -0.4484 -1.0127 -0.6534
 2775TIP3   OH232519   1.316   0.551   8.850 -0.4816 -0.0741 -0.0860
 2775TIP3    H132520   1.352   0.483   8.908 -1.6542 -0.1011  0.6454
 2775TIP3    H232521   1.387   0.614   8.840  0.3751 -1.0293 -0.1623
 2776TIP3   OH232522   3.271   3.007   9.273  0.1138  0.2699  0.1394
 2776TIP3    H132523   3.302   3.080   9.219 -1.9021  0.0119 -1.4867
 2776TIP3    H232524   3.237   3.049   9.352  1.1096  0.8453  0.2844
 2777TIP3   OH232525   6.212   2.796   9.921  0.2227 -0.0445  0.3946
 2777TIP3    H132526   6.117   2.796   9.913  0.3012  2.0453 -1.6732
 2777TIP3    H232527   6.231   2.861   9.988  0.2244  0.0519  0.2997
 2778TIP3   OH232528   4.371   1.773  11.169  0.1774  0.2229  0.5810
 2778TIP3    H132529   4.402   1.864  11.174 -0.6486  0.4805  1.2487
 2778TIP3    H232530   4.387   1.737  11.257  0.0590 -0.1277  0.4608
 2779TIP3   OH232531   6.004   2.019   9.500 -0.1154 -0.3598  0.1744
 2779TIP3    H132532   5.916   2.023   9.538 -0.2423  0.6727 -0.2116
 2779TIP3    H232533   6.046   2.101   9.526  0.9886 -1.1249  0.9229
 2780TIP3   OH232534   4.251   3.877   9.161  0.7498 -0.3177  0.1495
 2780TIP3    H132535   4.293   3.893   9.246  1.1186 -0.1236 -0.0646
 2780TIP3    H232536   4.158   3.879   9.180  0.8070 -2.5449  0.9736
 2781TIP3   OH232537   1.405   2.812  10.353  0.5922 -0.2756  0.3387
 2781TIP3    H132538   1.323   2.827  10.399  0.8905 -0.1561  0.8372
 2781TIP3    H232539   1.390   2.846  10.265  0.3745  0.5134  0.6698
 2782TIP3   OH232540   4.368   4.554   9.624  0.1221 -0.1222 -0.3853
 2782TIP3    H132541   4.279   4.517   9.620 -0.3570  1.0836 -2.3017
 2782TIP3    H232542   4.426   4.479   9.613 -0.5810 -1.0500  1.7478
 2783TIP3   OH232543   3.127   0.709   8.512  0.4030 -0.1236 -0.3815
 2783TIP3    H132544   3.032   0.697   8.523  0.2907  1.0030  0.0445
 2783TIP3    H232545   3.146   0.673   8.425 -0.1506 -1.6801  0.1028
 2784TIP3   OH232546   7.373   3.550  10.936 -0.3108  0.1865 -0.4917
 2784TIP3    H132547   7.340   3.478  10.883  0.3382 -0.3956 -0.1245
 2784TIP3    H232548   7.344   3.629  10.890 -2.9045 -0.2445  0.2139
 2785TIP3   OH232549   0.782   1.899   9.193  0.4872 -0.1125 -0.6295
 2785TIP3    H132550   0.761   1.821   9.244  1.9373  0.6514  1.2764
 2785TIP3    H232551   0.797   1.967   9.259  0.2404  1.5339 -2.1977
 2786TIP3   OH232552   7.425   3.189   9.701 -0.1417 -0.5353  0.6365
 2786TIP3    H132553   7.512   3.222   9.681 -0.5454 -0.4594 -1.1286
 2786TIP3    H232554   7.366   3.262   9.682 -0.8060 -1.3915 -0.7350
 2787TIP3   OH232555   3.889   1.376   8.898  0.0450  0.4213 -0.5285
 2787TIP3    H132556   3.846   1.359   8.982 -0.4704  0.4672 -0.7819
 2787TIP3    H232557   3.873   1.297   8.846 -0.1911  0.6572 -0.8131
 2788TIP3   OH232558   3.287   3.122  10.928 -0.2497  0.0177 -0.4285
 2788TIP3    H132559   3.245   3.204  10.905 -0.0631  0.3149  0.2575
 2788TIP3    H232560   3.381   3.141  10.928 -0.2661  0.4621  1.9898
 2789TIP3   OH232561   7.509   2.564   9.092 -0.0600  0.2640  0.1456
 2789TIP3    H132562   7.443   2.622   9.055 -0.5566 -0.4131 -0.0540
 2789TIP3    H232563   7.574   2.623   9.130 -0.1594  0.9627 -0.7172
 2790TIP3   OH232564   3.995   5.757   9.739  0.2851  0.8251  0.0156
 2790TIP3    H132565   3.978   5.680   9.793  0.0847  0.1235 -1.0233
 2790TIP3    H232566   3.989   5.831   9.800  0.4654  0.0339  1.0247
 2791TIP3   OH232567   2.221   0.700  10.588  0.3970 -0.5222  0.5998
 2791TIP3    H132568   2.251   0.720  10.676 -0.6662 -2.7955  1.5645
 2791TIP3    H232569   2.278   0.629  10.558  0.0543 -0.5105 -0.1060
 2792TIP3   OH232570   6.479   1.400   8.735  0.3959  0.2412  0.2220
 2792TIP3    H132571   6.470   1.435   8.646  1.4786 -0.9333 -0.3918
 2792TIP3    H232572   6.417   1.450   8.787  0.1341  1.3457 -1.0864
 2793TIP3   OH232573   1.460   7.436   9.992 -0.2196  0.0241 -0.2542
 2793TIP3    H132574   1.382   7.406   9.946  1.7372 -1.1045 -3.0952
 2793TIP3    H232575   1.435   7.434  10.085 -2.9801 -1.9929 -0.9099
 2794TIP3   OH232576   3.951   4.999   9.315  0.4479  0.2504  0.5442
 2794TIP3    H132577   3.997   5.083   9.318  1.7072 -0.4344  1.1105
 2794TIP3    H232578   4.005   4.944   9.258 -0.2685 -0.2336  0.3191
 2795TIP3   OH232579   7.057   7.428   9.532  0.1960 -0.1928 -0.3863
 2795TIP3    H132580   6.971   7.390   9.548  0.7495 -1.5128 -0.4676
 2795TIP3    H232581   7.118   7.356   9.545  1.2688  0.6302 -0.7195
 2796TIP3   OH232582   5.988   2.990   8.950 -0.6524  0.3267 -0.4411
 2796TIP3    H132583   6.073   2.995   8.995 -2.3749  1.8179  2.9925
 2796TIP3    H232584   5.976   3.078   8.913 -1.8261  1.0674  1.5518
 2797TIP3   OH232585   6.468   3.492   9.483 -0.2008  0.2301 -0.2019
 2797TIP3    H132586   6.535   3.434   9.448  0.6308  0.6228  0.6911
 2797TIP3    H232587   6.391   3.435   9.494  0.6958 -0.8284  0.9897
 2798TIP3   OH232588   7.550   7.371   9.968 -0.1511 -0.1107 -0.1723
 2798TIP3    H132589   7.612   7.444   9.958 -1.9761  1.4857 -0.4201
 2798TIP3    H232590   7.509   7.363   9.882 -0.1335 -1.3168 -0.0812
 2799TIP3   OH232591   4.182   3.209   9.469 -0.5287  0.3341 -0.4254
 2799TIP3    H132592   4.228   3.228   9.387  0.3459 -0.4819 -0.1352
 2799TIP3    H232593   4.113   3.147   9.444  1.1435 -1.7037 -0.2242
 2800TIP3   OH232594   6.407   2.273  10.823 -0.4552  0.0527 -0.3471
 2800TIP3    H132595   6.331   2.303  10.874  0.9316  0.0413  1.8780
 2800TIP3    H232596   6.472   2.249  10.890  1.3810 -0.2827 -2.1691
 2801TIP3   OH232597   4.333   6.048  10.315 -0.1245  0.0633 -0.0885
 2801TIP3    H132598   4.240   6.065  10.334 -0.0218  0.4431  0.0919
 2801TIP3    H232599   4.333   6.018  10.224 -0.3998  0.3276 -0.1815
 2802TIP3   OH232600   0.455   4.607  10.808 -0.0067 -0.0660 -0.1182
 2802TIP3    H132601   0.490   4.647  10.728  0.3268  1.2664  0.6538
 2802TIP3    H232602   0.439   4.516  10.785 -0.2881  0.3832 -1.8173
 2803TIP3   OH232603   4.122   0.567   8.282  0.1349  0.1561  0.2941
 2803TIP3    H132604   4.066   0.511   8.227 -0.5375  1.5107 -0.4459
 2803TIP3    H232605   4.114   0.530   8.370 -0.7543 -0.5525 -0.0678
 2804TIP3   OH232606   2.428   6.301  11.049  0.2537  0.1729  0.0009
 2804TIP3    H132607   2.516   6.266  11.062  0.1472 -0.5553 -1.1444
 2804TIP3    H232608   2.436   6.360  10.974 -0.0613  0.7869  0.4417
 2805TIP3   OH232609   5.704   5.907  10.233 -0.3554  0.1821 -0.0773
 2805TIP3    H132610   5.758   5.967  10.285 -0.1276  1.4840 -1.7491
 2805TIP3    H232611   5.758   5.829  10.223  0.6319  0.8979 -0.4668
 2806TIP3   OH232612   0.260   5.652  10.124  0.2926  0.1110  0.7414
 2806TIP3    H132613   0.280   5.730  10.175  0.1737  0.0362  0.9039
 2806TIP3    H232614   0.344   5.608  10.113  0.3904  0.3567  0.4871
 2807TIP3   OH232615   1.056   4.538   9.245 -0.2140 -0.3678  0.2660
 2807TIP3    H132616   1.001   4.490   9.183 -2.2189  0.5231  1.2318
 2807TIP3    H232617   1.136   4.559   9.197 -0.5113 -2.1422 -1.0625
 2808TIP3   OH232618   5.145   2.661  10.502  0.1216 -0.1308 -0.0019
 2808TIP3    H132619   5.195   2.716  10.443 -1.5127  1.2804 -0.1328
 2808TIP3    H232620   5.053   2.684  10.486 -0.4863 -1.2566  1.5507
 2809TIP3   OH232621   6.900   0.074   9.625  0.3727  0.4577  0.2358
 2809TIP3    H132622   6.840   0.047   9.555 -0.1292 -1.6114  1.4055
 2809TIP3    H232623   6.856   0.147   9.667  0.0344  0.8205 -0.7172
 2810TIP3   OH232624   3.969   1.718  10.271 -0.3646  0.3228  0.3981
 2810TIP3    H132625   3.939   1.708  10.362  1.5809 -0.9312  0.9651
 2810TIP3    H232626   3.989   1.629  10.242  1.1551  0.9072 -0.4770
 2811TIP3   OH232627   0.147   0.847   9.351  0.1216  0.5957  0.4054
 2811TIP3    H132628   0.208   0.911   9.389  1.0933 -0.5635  0.8541
 2811TIP3    H232629   0.115   0.797   9.426 -1.9336  1.5861  0.2676
 2812TIP3   OH232630   1.546   7.269  10.735 -0.0777 -0.8358  0.2971
 2812TIP3    H132631   1.496   7.247  10.656 -2.7352  3.1480  0.5562
 2812TIP3    H232632   1.508   7.216  10.804 -1.6165 -0.4011 -0.1822
 2813TIP3   OH232633   7.051   5.114  10.200 -0.6472  0.3701 -0.0830
 2813TIP3    H132634   7.120   5.142  10.259  0.7446 -1.3463 -0.7986
 2813TIP3    H232635   6.970   5.145  10.241  0.0459 -2.0393  3.5964
 2814TIP3   OH232636   4.459   0.662   9.786 -0.1712 -0.2014 -0.2872
 2814TIP3    H132637   4.483   0.590   9.728  0.0681  0.3465 -0.8848
 2814TIP3    H232638   4.520   0.655   9.859 -0.2204 -0.6690 -0.2881
 2815TIP3   OH232639   6.618   2.374  11.039  0.3701 -0.1032  0.1499
 2815TIP3    H132640   6.615   2.456  10.989  0.3375  1.0605  1.9777
 2815TIP3    H232641   6.705   2.372  11.076 -0.2545  0.1079  1.6849
 2816TIP3   OH232642   5.936   2.652   8.375 -0.4790 -0.3227  0.0924
 2816TIP3    H132643   5.866   2.596   8.408 -1.7571  1.5639  0.7163
 2816TIP3    H232644   5.895   2.737   8.360  1.7502  0.9713  0.8048
 2817TIP3   OH232645   0.268   5.910   8.881  0.1099  0.1777  0.0860
 2817TIP3    H132646   0.229   5.870   8.803  2.5449  0.8792 -1.6166
 2817TIP3    H232647   0.336   5.848   8.908 -0.1111  0.3703  1.1376
 2818TIP3   OH232648   3.702   0.343   9.989  0.4195  0.2205  0.1593
 2818TIP3    H132649   3.771   0.292   9.948 -0.5214 -0.6598 -0.3808
 2818TIP3    H232650   3.653   0.281  10.043 -1.1732  0.3429 -1.0618
 2819TIP3   OH232651   3.991   1.545  11.110 -0.0784  0.1311 -0.3299
 2819TIP3    H132652   4.070   1.495  11.128 -0.6628 -0.7972 -0.2735
 2819TIP3    H232653   4.022   1.634  11.092  0.8439  0.1367  1.1788
 2820TIP3   OH232654   2.703   1.713  10.240  0.0260  0.2170 -0.5499
 2820TIP3    H132655   2.691   1.689  10.332 -1.3913  0.8858 -0.5340
 2820TIP3    H232656   2.652   1.793  10.230  2.2339  1.6072 -1.3054
 2821TIP3   OH232657   5.110   2.022   9.523  0.2078 -0.0934  0.3394
 2821TIP3    H132658   5.082   1.995   9.436  2.6148 -3.2426  0.3534
 2821TIP3    H232659   5.079   2.113   9.531 -0.5328  0.1908 -3.5496
 2822TIP3   OH232660   1.162   1.535   8.777 -0.1444  0.1565  0.0114
 2822TIP3    H132661   1.079   1.530   8.729  0.3557  0.2172 -0.8925
 2822TIP3    H232662   1.167   1.626   8.808 -0.3509  0.1896 -0.0566
 2823TIP3   OH232663   0.598   0.855   9.543  0.2366 -0.0420 -0.3738
 2823TIP3    H132664   0.522   0.898   9.581  1.0400 -0.7436  2.1887
 2823TIP3    H232665   0.582   0.762   9.553  1.1335 -0.2176 -0.4259
 2824TIP3   OH232666   7.575   1.802  10.340 -0.0143  0.4153  0.3608
 2824TIP3    H132667   7.643   1.804  10.273 -1.0165 -0.2453 -0.7013
 2824TIP3    H232668   7.532   1.718  10.329 -0.6854  0.6070  1.3578
 2825TIP3   OH232669   7.227   2.170   9.612  0.6079 -0.2827 -0.3462
 2825TIP3    H132670   7.245   2.249   9.560 -2.5422  0.5663 -0.3688
 2825TIP3    H232671   7.222   2.202   9.702 -0.2732 -0.5024 -0.3095
 2826TIP3   OH232672   4.427   2.811  11.190  0.1326  0.1054 -0.1271
 2826TIP3    H132673   4.466   2.896  11.170 -1.5587  0.1938 -3.8521
 2826TIP3    H232674   4.390   2.822  11.278  4.1715  1.4626  1.6555
 2827TIP3   OH232675   4.924   2.402   8.447 -0.0354 -0.3569  0.3802
 2827TIP3    H132676   4.853   2.456   8.480 -0.2811 -1.1685  1.2494
 2827TIP3    H232677   4.994   2.412   8.512  0.6252  0.3771 -0.4279
 2828TIP3   OH232678   0.220   4.380   8.569  0.4709 -0.2245 -0.5342
 2828TIP3    H132679   0.240   4.299   8.521  2.1281  0.5587 -1.2390
 2828TIP3    H232680   0.157   4.426   8.513 -0.1802 -0.8288 -0.3145
 2829TIP3   OH232681   0.205   4.265   9.352 -0.1496 -0.4241 -0.2579
 2829TIP3    H132682   0.278   4.322   9.375 -0.7459 -0.0146  0.6810
 2829TIP3    H232683   0.242   4.177   9.351  0.3379 -0.2285  0.2820
 2830TIP3   OH232684   1.744   5.306  10.846  0.2778  0.3982 -0.0297
 2830TIP3    H132685   1.754   5.311  10.751 -1.0925  0.2938 -0.1997
 2830TIP3    H232686   1.667   5.250  10.859  0.8140 -0.1034  1.1622
 2831TIP3   OH232687   4.163   3.816  10.304 -0.1308 -0.4616  0.0174
 2831TIP3    H132688   4.158   3.911  10.294 -0.1693 -0.3758  0.8165
 2831TIP3    H232689   4.071   3.787  10.306 -0.1894 -0.8669 -3.1298
 2832TIP3   OH232690   0.556   6.385  10.074 -0.0162 -0.3087  0.0236
 2832TIP3    H132691   0.473   6.339  10.069 -1.2116  1.7976 -0.8637
 2832TIP3    H232692   0.622   6.316  10.065 -1.5267 -2.3164  2.9461
 2833TIP3   OH232693   3.687   3.370  10.970 -0.6255 -0.0487 -0.1628
 2833TIP3    H132694   3.752   3.361  10.899  0.6373 -0.4123  0.9843
 2833TIP3    H232695   3.627   3.297  10.955  0.8460 -1.4222  0.3136
 2834TIP3   OH232696   1.181   5.624   9.060 -0.0243  0.0074  0.1259
 2834TIP3    H132697   1.212   5.534   9.073  0.3907  0.0416 -0.5632
 2834TIP3    H232698   1.248   5.664   9.004  1.3244  1.6321  2.7086
 2835TIP3   OH232699   0.616   0.777   9.899  0.8687 -0.0355  0.1678
 2835TIP3    H132700   0.608   0.739   9.987  0.9279  1.0351  0.6564
 2835TIP3    H232701   0.592   0.869   9.911 -0.7974 -0.2291 -1.2624
 2836TIP3   OH232702   3.690   6.804  11.491  0.0210  0.2488  0.3051
 2836TIP3    H132703   3.773   6.757  11.491 -0.1575 -0.0821 -0.5398
 2836TIP3    H232704   3.692   6.857  11.411 -1.3290 -1.1368 -0.7038
 2837TIP3   OH232705   6.636   0.112   9.127  0.1139 -0.0508  0.1831
 2837TIP3    H132706   6.583   0.185   9.093  0.5843 -0.6179 -1.9072
 2837TIP3    H232707   6.693   0.153   9.192  0.8525  1.6444 -1.4169
 2838TIP3   OH232708   2.096   7.463   9.386  0.1308  0.0377  0.0852
 2838TIP3    H132709   2.036   7.489   9.456  0.3212 -1.9797  1.0675
 2838TIP3    H232710   2.145   7.390   9.422  0.0860 -1.2322 -2.2212
 2839TIP3   OH232711   3.864   5.644   9.517  0.2763 -0.1850 -0.1466
 2839TIP3    H132712   3.828   5.561   9.549 -2.4279  1.0084  0.1322
 2839TIP3    H232713   3.902   5.686   9.594 -1.3730  0.2936  0.4310
 2840TIP3   OH232714   4.434   5.702  10.351 -0.2638  0.6479 -0.0671
 2840TIP3    H132715   4.418   5.608  10.364  1.8283  0.3156  0.3860
 2840TIP3    H232716   4.529   5.710  10.345 -0.2125  2.9858  2.0645
 2841TIP3   OH232717   3.552   7.396  10.037  0.3678  0.2924 -0.2479
 2841TIP3    H132718   3.626   7.424   9.983  0.0676  0.9841 -0.3082
 2841TIP3    H232719   3.477   7.445  10.002 -0.3259 -1.1324 -0.8396
 2842TIP3   OH232720   1.603   3.410   9.219  0.6722  0.1593  0.0377
 2842TIP3    H132721   1.697   3.426   9.214  1.0686 -1.7625  0.5816
 2842TIP3    H232722   1.594   3.342   9.286 -1.1300  0.4641  0.1494
 2843TIP3   OH232723   5.015   2.893   9.488 -0.1061  0.2028  0.2136
 2843TIP3    H132724   4.985   2.829   9.553 -3.0811 -0.0483 -1.2462
 2843TIP3    H232725   5.027   2.843   9.408 -1.8288  1.2785 -0.7841
 2844TIP3   OH232726   5.279   4.035   9.964 -0.0675 -0.3946  0.5503
 2844TIP3    H132727   5.209   4.098   9.944 -0.3565 -0.8086  0.2313
 2844TIP3    H232728   5.241   3.950   9.942  0.5586 -0.6208  0.3284
 2845TIP3   OH232729   2.425   1.505  10.977 -0.5841  0.2139 -0.1828
 2845TIP3    H132730   2.456   1.549  11.056 -2.0396  4.7550 -1.8029
 2845TIP3    H232731   2.497   1.514  10.914  0.0803 -2.2505  0.1065
 2846TIP3   OH232732   4.931   0.620   8.731  0.2237  0.0820  0.2734
 2846TIP3    H132733   4.988   0.607   8.807 -0.3572 -0.4179  0.6311
 2846TIP3    H232734   4.977   0.684   8.677  0.8339  0.1375  0.8505
 2847TIP3   OH232735   3.799   3.252   9.323  0.0142 -0.0766 -0.1143
 2847TIP3    H132736   3.749   3.297   9.391  0.6500  1.0273 -0.3587
 2847TIP3    H232737   3.736   3.236   9.253 -0.2736  0.2238  0.0730
 2848TIP3   OH232738   3.183   3.380  10.946 -0.5817 -0.0588  0.0732
 2848TIP3    H132739   3.235   3.419  10.876  0.3896 -1.0177  0.2392
 2848TIP3    H232740   3.112   3.442  10.960  0.6363  1.4217 -0.0106
 2849TIP3   OH232741   2.711   5.533   9.431  0.2357  0.2001  0.2530
 2849TIP3    H132742   2.655   5.548   9.507  0.1351  1.6298 -0.0723
 2849TIP3    H232743   2.653   5.497   9.364 -0.4966  2.2673 -0.2991
 2850TIP3   OH232744   4.871   0.901   9.535 -0.3098 -0.7470  0.3881
 2850TIP3    H132745   4.966   0.905   9.530 -0.3600 -0.3406 -0.3187
 2850TIP3    H232746   4.848   0.966   9.601  0.0160 -2.3018  2.1144
 2851TIP3   OH232747   6.627   4.876  10.154 -0.1788  0.1512 -0.4153
 2851TIP3    H132748   6.581   4.797  10.179 -1.1045  1.1692  1.2273
 2851TIP3    H232749   6.717   4.863  10.186 -0.1683 -0.4518 -0.6735
 2852TIP3   OH232750   0.480   0.601   9.591 -0.5675  0.0266  0.3065
 2852TIP3    H132751   0.398   0.636   9.627 -1.0845 -2.2685  1.5967
 2852TIP3    H232752   0.491   0.517   9.636  2.0161 -0.1689 -0.5592
 2853TIP3   OH232753   7.492   4.458   9.421 -0.6675 -0.5775  0.1889
 2853TIP3    H132754   7.564   4.426   9.477 -1.2347  0.1020  1.3323
 2853TIP3    H232755   7.533   4.524   9.366 -0.0745 -1.3257 -0.2825
 2854TIP3   OH232756   2.701   1.653  10.547  0.8675 -0.2281 -0.2323
 2854TIP3    H132757   2.642   1.727  10.553 -0.2864 -1.1845  0.8228
 2854TIP3    H232758   2.785   1.685  10.581  1.7014  1.7601 -3.6826
 2855TIP3   OH232759   0.339   3.976  10.801  0.0960 -0.6628 -0.1942
 2855TIP3    H132760   0.410   4.006  10.856  0.2073  0.0493 -0.7158
 2855TIP3    H232761   0.261   3.984  10.855  0.2502 -0.2964 -0.0276
 2856TIP3   OH232762   3.243   1.324   8.982 -0.3999  0.0039  0.4520
 2856TIP3    H132763   3.309   1.260   9.008  0.5765 -0.0636 -1.9123
 2856TIP3    H232764   3.196   1.282   8.910 -2.0883  0.6231  1.1452
 2857TIP3   OH232765   4.410   5.793  11.043 -0.0267  0.0622 -0.1708
 2857TIP3    H132766   4.467   5.768  10.971 -0.5309  1.0847 -0.9459
 2857TIP3    H232767   4.463   5.777  11.122  0.8432 -0.2446 -0.8035
 2858TIP3   OH232768   3.068   7.393   9.700  0.6738  0.0332 -0.2102
 2858TIP3    H132769   3.151   7.439   9.712  0.5885  0.0692  0.2266
 2858TIP3    H232770   3.094   7.302   9.685  0.8322  0.1849 -0.9015
 2859TIP3   OH232771   6.210   7.224  10.234 -0.7716  0.3154 -0.5811
 2859TIP3    H132772   6.128   7.174  10.235 -0.6711  0.1000 -1.6386
 2859TIP3    H232773   6.183   7.314  10.252 -1.2390  0.2345 -0.8576
 2860TIP3   OH232774   4.494   4.327   9.593 -0.2571 -0.4945 -0.1880
 2860TIP3    H132775   4.453   4.263   9.534 -0.0877 -0.5171 -0.2806
 2860TIP3    H232776   4.462   4.302   9.680  0.6806 -1.4040 -0.0767
 2861TIP3   OH232777   7.608   4.629   9.975 -0.3577  0.6979  0.0327
 2861TIP3    H132778   7.537   4.577   9.936  1.3352 -0.6866 -1.3386
 2861TIP3    H232779   7.635   4.688   9.905  0.8216  0.1974  0.0615
 2862TIP3   OH232780   0.494   0.743  10.488 -1.1783  0.7538 -0.0247
 2862TIP3    H132781   0.425   0.699  10.538 -0.9629  0.0755 -0.2998
 2862TIP3    H232782   0.449   0.809  10.436 -1.5892  0.4696 -0.0309
 2863TIP3   OH232783   5.623   5.121   9.530  0.0217  0.4277  0.3457
 2863TIP3    H132784   5.543   5.073   9.553 -0.1828 -0.1282 -1.3298
 2863TIP3    H232785   5.682   5.054   9.496  0.6656  1.0330  0.2497
 2864TIP3   OH232786   1.332   1.785   9.353  0.5500  0.6821 -0.2080
 2864TIP3    H132787   1.426   1.792   9.367  0.6438 -1.5623  0.7759
 2864TIP3    H232788   1.294   1.854   9.408  1.5207 -0.2449  1.7068
 2865TIP3   OH232789   3.059   4.269  10.474 -0.2811  0.1757  0.3726
 2865TIP3    H132790   2.996   4.340  10.486  0.8764  1.1696  0.7490
 2865TIP3    H232791   3.143   4.313  10.462 -0.0743 -0.9440 -3.6430
 2866TIP3   OH232792   1.545   0.980   9.892  0.1969  0.2622  0.3915
 2866TIP3    H132793   1.613   1.025   9.841 -0.1602 -0.1920 -0.5124
 2866TIP3    H232794   1.538   0.894   9.851  1.4052 -0.9464  2.5701
 2867TIP3   OH232795   4.969   6.210   9.742 -0.5629  0.1729  0.1740
 2867TIP3    H132796   4.975   6.155   9.664 -0.4058 -0.6283  0.7392
 2867TIP3    H232797   5.059   6.237   9.760 -0.4949 -0.2739  0.5169
 2868TIP3   OH232798   0.601   0.651  10.866 -0.2295 -0.3319 -0.4767
 2868TIP3    H132799   0.590   0.652  10.771 -1.0763  1.3148 -0.4063
 2868TIP3    H232800   0.541   0.584  10.897 -0.8504 -0.0407 -1.0357
 2869TIP3   OH232801   1.769   0.955   8.797 -0.0227 -0.3018  0.1600
 2869TIP3    H132802   1.782   1.047   8.774  1.2537 -0.5635 -0.2057
 2869TIP3    H232803   1.684   0.954   8.842  0.0077  1.0717  0.2964
 2870TIP3   OH232804   4.786   2.914  11.368  0.2113  0.3467 -0.0011
 2870TIP3    H132805   4.788   2.899  11.462 -0.4174  3.3321  0.5831
 2870TIP3    H232806   4.877   2.904  11.340  0.5285  0.2026  1.0477
 2871TIP3   OH232807   6.540   0.038   8.778 -0.0529 -0.0993  0.0941
 2871TIP3    H132808   6.585   0.121   8.762  0.4325 -0.1405  1.1405
 2871TIP3    H232809   6.496   0.018   8.696  1.0402  0.4443 -0.6451
 2872TIP3   OH232810   2.948   3.823  10.122  0.2064 -0.3495 -0.2803
 2872TIP3    H132811   3.008   3.801  10.051 -0.8796 -0.2040 -1.2792
 2872TIP3    H232812   2.905   3.740  10.144  2.1117 -0.8670  1.7807
 2873TIP3   OH232813   4.381   5.078   9.763 -0.0393 -0.4562  0.1711
 2873TIP3    H132814   4.427   5.004   9.725 -1.1008 -1.7245  1.2298
 2873TIP3    H232815   4.303   5.088   9.707  0.2716  0.0895 -0.1678
 2874TIP3   OH232816   5.537   6.491   9.124 -0.5029  0.1890  0.6224
 2874TIP3    H132817   5.625   6.522   9.144  0.2126 -1.0543 -0.3956
 2874TIP3    H232818   5.479   6.545   9.178  0.6113  3.2080 -0.9714
 2875TIP3   OH232819   6.941   0.360  11.278  0.2785 -0.1436 -0.4504
 2875TIP3    H132820   7.026   0.328  11.245  0.1420 -1.2312  0.2225
 2875TIP3    H232821   6.962   0.443  11.321  0.6660  0.6488 -2.0667
 2876TIP3   OH232822   0.297   1.913  11.056 -0.4540  0.8557 -0.3731
 2876TIP3    H132823   0.240   1.849  11.013 -0.8633  0.9925 -0.0346
 2876TIP3    H232824   0.354   1.860  11.111 -0.3761  0.7333 -0.5683
 2877TIP3   OH232825   5.027   4.269   9.586 -0.1827 -0.3572  0.1857
 2877TIP3    H132826   5.117   4.250   9.614  0.0354 -1.4022 -1.1195
 2877TIP3    H232827   5.031   4.360   9.556  0.5793 -0.5272 -0.2803
 2878TIP3   OH232828   1.595   7.646  10.545  0.3560  0.4445 -0.2363
 2878TIP3    H132829   1.674   7.594  10.534  0.0417 -0.1214  0.1298
 2878TIP3    H232830   1.600   7.712  10.476  1.5013  0.8802  0.2472
 2879TIP3   OH232831   4.455   5.416   9.571 -0.5724  0.0263  0.1996
 2879TIP3    H132832   4.509   5.433   9.648 -0.7001  2.5686 -0.1837
 2879TIP3    H232833   4.515   5.427   9.497 -0.8670 -0.4993 -0.1175
 2880TIP3   OH232834   1.291   3.495  10.141 -0.2725  0.1911 -0.1817
 2880TIP3    H132835   1.207   3.491  10.096 -0.1601  1.3669 -0.5410
 2880TIP3    H232836   1.353   3.522  10.073  0.0732  1.0417  0.4493
 2881TIP3   OH232837   0.384   3.001  10.299 -0.0806  0.0287 -0.5491
 2881TIP3    H132838   0.372   2.968  10.210 -0.2267 -1.9268  0.1407
 2881TIP3    H232839   0.301   2.984  10.343  0.9817 -2.0812  0.8126
 2882TIP3   OH232840   1.876   0.529   9.843  0.4911 -0.1781 -0.1017
 2882TIP3    H132841   1.970   0.514   9.835  0.6102 -1.4326  2.5399
 2882TIP3    H232842   1.863   0.616   9.805  2.6306 -0.1369 -0.9092
 2883TIP3   OH232843   4.894   3.520   8.708  0.0975  0.6008  0.6874
 2883TIP3    H132844   4.904   3.507   8.614  0.9896 -0.7921  0.9540
 2883TIP3    H232845   4.982   3.543   8.739  0.7417 -2.7462  1.7074
 2884TIP3   OH232846   4.495   1.287   9.482 -0.0515  0.4195 -0.2469
 2884TIP3    H132847   4.409   1.285   9.524 -0.0016 -2.0573 -0.1328
 2884TIP3    H232848   4.557   1.283   9.556  0.2263  2.7031 -0.2991
 2885TIP3   OH232849   2.667   6.967   8.454 -0.5847 -0.8053  0.2411
 2885TIP3    H132850   2.761   6.955   8.468 -0.4618 -1.7591 -1.1860
 2885TIP3    H232851   2.627   6.889   8.491 -0.7409 -0.7598  0.1680
 2886TIP3   OH232852   0.020   4.679   9.501 -0.0273 -0.4266  0.4680
 2886TIP3    H132853   0.037   4.616   9.430  2.0055 -0.6127  1.0610
 2886TIP3    H232854  -0.039   4.633   9.560  0.0801 -1.1311  0.0388
 2887TIP3   OH232855   0.994   5.909  10.282  0.3820 -0.5893 -0.1741
 2887TIP3    H132856   0.951   5.993  10.298  3.2106  0.4679  2.7135
 2887TIP3    H232857   0.992   5.900  10.186 -3.3165  0.7951 -0.4197
 2888TIP3   OH232858   4.268   6.604  11.033  0.3464 -0.2336 -0.1193
 2888TIP3    H132859   4.228   6.559  11.108  1.5588 -0.8152  0.2041
 2888TIP3    H232860   4.315   6.677  11.072  1.3757 -0.8138 -0.2521
 2889TIP3   OH232861   2.294   4.230   8.891 -0.6345  0.2137  0.0305
 2889TIP3    H132862   2.334   4.189   8.814  0.8901  2.4718 -0.4749
 2889TIP3    H232863   2.207   4.256   8.861  0.4054  2.2474 -1.4553
 2890TIP3   OH232864   1.324   1.574   9.168  0.0525 -0.4986  0.5304
 2890TIP3    H132865   1.398   1.595   9.110  0.0653  0.2496  0.8100
 2890TIP3    H232866   1.340   1.625   9.247 -1.0889  0.1533  0.3579
 2891TIP3   OH232867   0.293   0.214  10.777 -0.5250 -0.5703  0.0130
 2891TIP3    H132868   0.282   0.158  10.701  1.3751  1.2914 -1.7460
 2891TIP3    H232869   0.355   0.167  10.833  0.6589 -0.5169 -1.2054
 2892TIP3   OH232870   2.882   4.242   9.537 -0.3611 -0.0217 -0.4183
 2892TIP3    H132871   2.887   4.231   9.632  1.6946 -0.0586 -0.4857
 2892TIP3    H232872   2.857   4.155   9.504  0.7769 -0.5250 -0.0067
 2893TIP3   OH232873   0.561   6.060   8.941  0.1104  0.0047  0.4795
 2893TIP3    H132874   0.605   5.984   8.903 -1.2703 -0.8073  0.4403
 2893TIP3    H232875   0.611   6.081   9.019  0.2726 -1.2123  0.7158
 2894TIP3   OH232876   6.915   2.660   9.795  0.2550 -0.2490 -0.2573
 2894TIP3    H132877   6.842   2.688   9.740  0.5212  0.1863 -0.3933
 2894TIP3    H232878   6.902   2.707   9.877 -0.2859 -1.0935  0.1567
 2895TIP3   OH232879   6.449   4.858   9.206  0.0214 -0.1820  0.2778
 2895TIP3    H132880   6.437   4.885   9.297  1.0004 -0.7284  0.5823
 2895TIP3    H232881   6.363   4.828   9.178 -0.2622 -0.1207  1.0579
 2896TIP3   OH232882   2.385   5.119   8.943 -0.7644  0.2992 -0.6461
 2896TIP3    H132883   2.415   5.059   9.012  0.6026 -1.2308 -2.4840
 2896TIP3    H232884   2.350   5.061   8.875 -2.1930  1.7825 -1.2297
 2897TIP3   OH232885   5.764   0.292   8.898  0.0323  0.0767  0.7877
 2897TIP3    H132886   5.679   0.292   8.943 -0.1764 -2.4740  0.5373
 2897TIP3    H232887   5.794   0.383   8.904 -2.6630  1.0491  0.9409
 2898TIP3   OH232888   6.617   2.849  10.104  0.2104 -0.1821 -0.3320
 2898TIP3    H132889   6.612   2.824  10.196  0.5742  1.6603  0.2314
 2898TIP3    H232890   6.528   2.837  10.071 -0.3652  0.8683  0.7655
 2899TIP3   OH232891   2.560   1.869  10.413 -0.2001 -0.2177 -0.4078
 2899TIP3    H132892   2.568   1.937  10.346  0.8055 -0.8972 -1.0036
 2899TIP3    H232893   2.581   1.913  10.495 -2.3985  0.8609 -0.3505
 2900TIP3   OH232894   5.524   2.981   9.624  0.2593 -0.2642 -0.1209
 2900TIP3    H132895   5.459   2.999   9.556  1.4240 -0.2515 -1.2901
 2900TIP3    H232896   5.503   3.041   9.695  1.6474  3.0573 -2.2870
 2901TIP3   OH232897   0.629   1.193   9.719 -0.1761  0.2744 -0.0578
 2901TIP3    H132898   0.535   1.183   9.735 -0.0900 -0.8564 -0.1903
 2901TIP3    H232899   0.671   1.136   9.783  0.4612  1.3290  0.4786
 2902TIP3   OH232900   4.308   3.313   9.722 -0.5060 -0.6319  0.0697
 2902TIP3    H132901   4.393   3.355   9.705 -0.2609 -1.4361 -0.8249
 2902TIP3    H232902   4.288   3.268   9.640 -1.7387 -0.5725  0.3243
 2903TIP3   OH232903   1.815   5.262  10.565 -0.2549 -0.2285  1.1720
 2903TIP3    H132904   1.739   5.317  10.547  1.4975  1.7363 -0.7252
 2903TIP3    H232905   1.859   5.254  10.481  1.5790 -1.4215  2.1860
 2904TIP3   OH232906   7.322   6.082   9.583 -0.3364  0.2837 -0.0692
 2904TIP3    H132907   7.400   6.093   9.528  0.2058 -1.4695  0.2829
 2904TIP3    H232908   7.344   6.010   9.642 -2.9301 -1.6962 -1.3101
 2905TIP3   OH232909   3.308   3.220   9.105  0.0361  0.3759 -0.0747
 2905TIP3    H132910   3.326   3.186   9.018  0.3203  0.2694  0.0244
 2905TIP3    H232911   3.251   3.296   9.090 -1.3656 -0.6709 -0.2511
 2906TIP3   OH232912   6.666   2.760   9.733 -0.4181 -0.3265 -0.6010
 2906TIP3    H132913   6.601   2.736   9.799  0.3362  2.6852  1.4759
 2906TIP3    H232914   6.624   2.832   9.684  1.2804  1.8214  0.9266
 2907TIP3   OH232915   1.124   6.571  10.480  0.2940 -0.2813  0.2010
 2907TIP3    H132916   1.109   6.519  10.401 -1.2532 -0.1069  0.3446
 2907TIP3    H232917   1.037   6.583  10.517  0.7614  1.3585  0.8493
 2908TIP3   OH232918   0.003   5.238   8.684  0.1736  0.2481 -0.4072
 2908TIP3    H132919   0.037   5.295   8.752 -1.1273 -0.2286  0.6942
 2908TIP3    H232920   0.065   5.166   8.679 -0.1228 -0.1163  0.8586
 2909TIP3   OH232921   2.444   6.001   9.581 -0.1068  0.5971  0.0635
 2909TIP3    H132922   2.530   6.004   9.624  0.3693 -0.8615 -0.6876
 2909TIP3    H232923   2.458   5.944   9.505 -1.9696 -0.4318  0.4367
 2910TIP3   OH232924   7.336   5.575   9.850 -0.1079 -0.2134  0.2780
 2910TIP3    H132925   7.311   5.641   9.786 -0.4691 -0.6705 -0.0634
 2910TIP3    H232926   7.253   5.539   9.881  0.0776 -0.3419  0.6340
 2911TIP3   OH232927   0.081   1.895  10.100 -0.4468  0.3334  0.0361
 2911TIP3    H132928   0.121   1.937  10.177 -1.8614  0.2237  0.8775
 2911TIP3    H232929   0.137   1.921  10.027  1.0843  0.2495  1.1276
 2912TIP3   OH232930   6.807   3.716  10.719  0.1312 -0.2810 -0.0712
 2912TIP3    H132931   6.752   3.679  10.788 -0.1969  0.9562  0.3538
 2912TIP3    H232932   6.794   3.811  10.725  1.4886 -0.0264 -0.6645
 2913TIP3   OH232933   3.780   7.567   8.887 -0.0714 -0.0588  0.2820
 2913TIP3    H132934   3.787   7.610   8.802 -0.4689  1.1807  0.8493
 2913TIP3    H232935   3.787   7.473   8.868 -1.2707  0.1271 -1.2491
 2914TIP3   OH232936   2.097   3.621   9.631  0.3143  0.0932 -0.1979
 2914TIP3    H132937   2.189   3.595   9.638 -0.0611 -0.9315  1.2797
 2914TIP3    H232938   2.061   3.609   9.719 -1.6415 -1.1380 -1.0735
 2915TIP3   OH232939   5.058   3.700  10.529 -0.1570 -0.3959 -0.2523
 2915TIP3    H132940   5.066   3.685  10.623  1.6236  0.2019 -0.2808
 2915TIP3    H232941   5.036   3.793  10.522 -1.9221 -0.7901 -0.3996
 2916TIP3   OH232942   7.172   5.281  10.378  0.2443 -0.8749 -0.5979
 2916TIP3    H132943   7.258   5.304  10.412  0.5974 -0.7449 -1.5549
 2916TIP3    H232944   7.168   5.322  10.291 -1.2372  0.1016 -0.1046
 2917TIP3   OH232945   0.144   6.622   9.791  0.3118 -0.2986 -0.8492
 2917TIP3    H132946   0.139   6.527   9.775  2.3468 -1.3535  3.3773
 2917TIP3    H232947   0.228   6.648   9.755  0.9705 -0.7455  0.3215
 2918TIP3   OH232948   4.052   3.681  11.087  0.6375 -0.4871 -0.3984
 2918TIP3    H132949   3.982   3.624  11.121  0.9045 -1.0558 -0.7845
 2918TIP3    H232950   4.084   3.635  11.009 -0.4682  1.1283 -1.8997
 2919TIP3   OH232951   6.477   7.270  10.168 -0.0701  0.3374 -0.1642
 2919TIP3    H132952   6.386   7.266  10.196 -0.0359 -2.1782 -0.1696
 2919TIP3    H232953   6.489   7.191  10.114  2.1930  0.4086  0.1239
 2920TIP3   OH232954   0.235   3.112  10.705 -0.2601  0.1648  0.1900
 2920TIP3    H132955   0.149   3.129  10.667  0.0390 -2.3536 -1.8986
 2920TIP3    H232956   0.220   3.040  10.767  0.4160 -0.8544 -0.7914
 2921TIP3   OH232957   0.178   1.231   9.708  0.7078  0.1848 -0.1799
 2921TIP3    H132958   0.178   1.273   9.621 -0.9824  0.6684  0.0110
 2921TIP3    H232959   0.096   1.182   9.710  0.5535  0.4705  1.2764
 2922TIP3   OH232960   1.648   3.699   9.762 -0.2202 -0.7075 -0.6530
 2922TIP3    H132961   1.682   3.638   9.696 -1.5673  0.4680 -2.5394
 2922TIP3    H232962   1.650   3.784   9.719 -0.3344  0.2679  1.1797
 2923TIP3   OH232963   2.763   1.312  10.286 -0.5020  0.6521  0.1233
 2923TIP3    H132964   2.704   1.347  10.219 -0.3139  0.2125 -0.2687
 2923TIP3    H232965   2.844   1.294  10.240 -0.1993  0.8380  0.5770
 2924TIP3   OH232966   1.798   1.663   9.483 -0.3124 -0.5858  0.4409
 2924TIP3    H132967   1.879   1.705   9.455 -0.7433  0.9088  1.3202
 2924TIP3    H232968   1.782   1.596   9.417  0.1070  1.0258 -1.4009
 2925TIP3   OH232969   6.126   6.871   9.107 -0.0320 -0.3847  0.0470
 2925TIP3    H132970   6.041   6.833   9.128 -0.3836  0.5332  0.3032
 2925TIP3    H232971   6.123   6.959   9.143  0.5730  0.0805 -0.9942
 2926TIP3   OH232972   3.861   4.479   8.785 -0.1521 -0.6939 -0.2533
 2926TIP3    H132973   3.878   4.391   8.818  0.7877 -0.4227 -0.0013
 2926TIP3    H232974   3.807   4.464   8.707  0.9220 -1.5629 -0.8598
 2927TIP3   OH232975   6.647   4.640   9.319 -0.0874  0.2691  0.2511
 2927TIP3    H132976   6.591   4.717   9.322 -0.2677  0.1241  1.1896
 2927TIP3    H232977   6.614   4.589   9.245  0.3650  1.3152 -0.7021
 2928TIP3   OH232978   2.455   7.368  10.294 -0.0200 -0.1833 -0.2592
 2928TIP3    H132979   2.524   7.420  10.334  0.1395 -0.8652  0.3767
 2928TIP3    H232980   2.483   7.357  10.203 -0.0107  0.7457 -0.3722
 2929TIP3   OH232981   3.590   3.298   8.452 -0.2301 -0.4470 -0.1263
 2929TIP3    H132982   3.624   3.288   8.363 -1.1826  0.6333 -0.6370
 2929TIP3    H232983   3.592   3.392   8.468  0.7629 -0.6748  1.3616
 2930TIP3   OH232984   4.178   2.375  10.628  0.4772  0.8436 -0.5991
 2930TIP3    H132985   4.181   2.446  10.693  0.6224  1.2874 -1.0852
 2930TIP3    H232986   4.208   2.415  10.547 -0.6969  0.5632 -1.1927
 2931TIP3   OH232987   4.397   3.802   8.926 -0.4038 -0.4647 -0.2395
 2931TIP3    H132988   4.338   3.818   8.999 -1.5732  0.3770 -1.3204
 2931TIP3    H232989   4.349   3.740   8.870 -0.9432  1.3172 -1.8438
 2932TIP3   OH232990   0.937   2.936  10.574 -0.3038 -0.1060 -0.1508
 2932TIP3    H132991   0.948   3.027  10.545  1.4576 -0.3994 -0.5437
 2932TIP3    H232992   0.847   2.932  10.606 -0.7961  1.4801 -1.1855
 2933TIP3   OH232993   3.865   4.307  10.763  0.0548  0.1175 -0.0218
 2933TIP3    H132994   3.882   4.266  10.848 -2.9523  0.2351  0.7659
 2933TIP3    H232995   3.799   4.374  10.782 -1.2372 -0.3354 -2.5184
 2934TIP3   OH232996   4.942   7.047  10.317 -0.5987  0.1804 -0.0913
 2934TIP3    H132997   5.003   6.987  10.360  0.0380 -0.2922 -1.5976
 2934TIP3    H232998   4.933   7.014  10.228 -0.4565  2.1293 -0.8939
 2935TIP3   OH232999   3.567   2.515  10.705 -0.1667 -0.4174 -0.1754
 2935TIP3    H133000   3.513   2.464  10.645 -2.2126  1.4111 -0.0108
 2935TIP3    H233001   3.567   2.464  10.786 -2.3277 -0.1470  0.0441
 2936TIP3   OH233002   1.758   4.902   9.118  0.3339  0.7099 -0.0194
 2936TIP3    H133003   1.787   4.814   9.143  0.5553  1.1786  1.4682
 2936TIP3    H233004   1.684   4.887   9.059  1.3083 -0.4725 -0.9861
 2937TIP3   OH233005   7.290   4.294   9.359 -0.1591  0.2556 -0.3037
 2937TIP3    H133006   7.354   4.361   9.383 -0.4334  1.3400 -2.4174
 2937TIP3    H233007   7.206   4.341   9.354 -0.6133 -0.5487 -0.4138
 2938TIP3   OH233008   4.647   2.998  11.151 -0.3799  0.2246 -0.2122
 2938TIP3    H133009   4.682   2.982  11.239 -1.8583  0.5735  0.4658
 2938TIP3    H233010   4.681   2.925  11.099  4.2454  2.3079 -0.5603
 2939TIP3   OH233011   7.030   3.665  10.569  0.0291 -0.9379 -0.0690
 2939TIP3    H133012   6.951   3.685  10.618  0.8919 -0.6573  1.2546
 2939TIP3    H233013   7.006   3.593  10.511 -1.3599 -0.4080 -0.1781
 2940TIP3   OH233014   5.046   3.154   8.477  0.0567  0.1224 -0.3787
 2940TIP3    H133015   5.052   3.131   8.570 -0.6048 -0.6558 -0.5216
 2940TIP3    H233016   4.977   3.220   8.473  0.3980  0.4916 -0.2640
 2941TIP3   OH233017   0.864   4.301   9.259 -0.3927  0.2486  0.6963
 2941TIP3    H133018   0.910   4.272   9.338 -1.6922 -0.5337  1.1910
 2941TIP3    H233019   0.775   4.267   9.269 -0.3753 -0.5981 -1.4935
 2942TIP3   OH233020   0.186   0.631  10.201  0.8339  0.1375 -0.8166
 2942TIP3    H133021   0.119   0.662  10.140 -1.3179 -0.5145  1.0827
 2942TIP3    H233022   0.150   0.551  10.238  1.9892  0.5482  1.4016
 2943TIP3   OH233023   2.367   7.331   9.303 -0.5363 -0.2208  0.5918
 2943TIP3    H133024   2.383   7.369   9.217  2.2620 -0.2455  1.0115
 2943TIP3    H233025   2.348   7.406   9.359 -0.8766 -0.0603  0.2673
 2944TIP3   OH233026   4.425   1.246   8.331 -0.2866  0.2536 -0.0683
 2944TIP3    H133027   4.477   1.305   8.386 -0.5710  0.4393  0.0044
 2944TIP3    H233028   4.359   1.302   8.291 -1.4540 -0.2252  1.0952
 2945TIP3   OH233029   2.164   7.573  11.136 -0.0471  0.5723 -0.0302
 2945TIP3    H133030   2.144   7.481  11.122 -0.9110  0.7278  0.1406
 2945TIP3    H233031   2.258   7.574  11.154  0.0913 -0.2007 -0.6410
 2946TIP3   OH233032   2.444   7.659  10.414 -0.4182  0.1742  0.1521
 2946TIP3    H133033   2.403   7.617  10.489  0.8451 -2.3503 -0.4868
 2946TIP3    H233034   2.528   7.616  10.404 -0.1909  0.9987 -2.2370
 2947TIP3   OH233035   0.211   7.493   9.662  0.2064 -0.1195 -0.4291
 2947TIP3    H133036   0.279   7.536   9.610 -1.2765  0.8112 -1.6733
 2947TIP3    H233037   0.215   7.536   9.748  0.3666  0.8005 -0.8881
 2948TIP3   OH233038   6.513   4.762  10.525 -0.1042 -0.2832  0.8446
 2948TIP3    H133039   6.506   4.854  10.501 -1.7791 -0.0010  2.1898
 2948TIP3    H233040   6.599   4.735  10.494  0.4821  1.7732  0.5510
 2949TIP3   OH233041   1.498   2.150   9.262  0.9252 -0.0963 -0.3625
 2949TIP3    H133042   1.410   2.119   9.239  1.1609 -3.6952  2.7091
 2949TIP3    H233043   1.485   2.199   9.343  1.6856  0.2785 -0.4578
 2950TIP3   OH233044   3.514   0.087  11.027  0.3504 -0.2500  0.1303
 2950TIP3    H133045   3.568   0.129  11.094  0.3868 -0.3935  0.1927
 2950TIP3    H233046   3.569   0.015  10.995  0.2296 -0.3435  0.1330
 2951TIP3   OH233047   2.920   6.935   8.539 -0.0948 -0.3613  0.1495
 2951TIP3    H133048   3.010   6.952   8.568  0.1990 -0.9063 -0.4188
 2951TIP3    H233049   2.868   6.941   8.619  0.6260 -1.2781  0.7038
 2952TIP3   OH233050   2.549   4.218  10.633 -0.0049 -0.1035 -0.2901
 2952TIP3    H133051   2.461   4.179  10.633  0.5701 -1.4759  0.0895
 2952TIP3    H233052   2.548   4.279  10.707 -0.1168 -1.4349  0.8612
 2953TIP3   OH233053   7.120   3.911   8.902  0.2288 -0.3974  0.2425
 2953TIP3    H133054   7.135   3.920   8.808 -3.9110 -1.9321 -0.7756
 2953TIP3    H233055   7.066   3.987   8.925 -0.4295 -1.0455  0.8994
 2954TIP3   OH233056   2.060   5.660  10.432  0.5604  0.1828  0.4510
 2954TIP3    H133057   2.152   5.689  10.437  1.2067 -1.5547 -0.5754
 2954TIP3    H233058   2.052   5.595  10.502  0.9318 -1.6644 -1.1511
 2955TIP3   OH233059   0.004   7.511  11.240  0.0468  0.2798 -0.5330
 2955TIP3    H133060  -0.046   7.565  11.179 -0.3384  1.1215  0.5095
 2955TIP3    H233061   0.076   7.477  11.187 -2.1115 -1.8118 -2.3520
 2956TIP3   OH233062   2.945   4.334   9.264 -0.3321  0.5231  0.3689
 2956TIP3    H133063   2.858   4.375   9.261 -0.0761  1.2225  1.9213
 2956TIP3    H233064   2.958   4.312   9.356  0.4602 -1.1194 -0.0907
 2957TIP3   OH233065   2.814   0.216  11.139 -0.0910  0.2534  0.1611
 2957TIP3    H133066   2.760   0.273  11.194 -0.6281 -1.1007  1.0954
 2957TIP3    H233067   2.821   0.262  11.056 -2.6124  0.5400  0.0483
 2958TIP3   OH233068   3.915   3.228  10.357  0.1983  0.0825  0.2820
 2958TIP3    H133069   3.878   3.315  10.372  0.5896  0.5628 -1.3637
 2958TIP3    H233070   3.840   3.173  10.337 -0.1304 -0.1672  1.9768
 2959TIP3   OH233071   6.871   1.639  10.544  0.5721  0.5450  0.0819
 2959TIP3    H133072   6.832   1.726  10.538 -0.2831  0.0973 -1.1246
 2959TIP3    H233073   6.811   1.589  10.599 -0.2067  0.0795 -1.1390
 2960TIP3   OH233074   4.979   2.919   8.945  0.1911 -0.9036  0.5275
 2960TIP3    H133075   4.906   2.960   8.992  0.6927  0.7009 -0.0414
 2960TIP3    H233076   4.967   2.825   8.960 -1.8487 -0.6713  0.6654
 2961TIP3   OH233077   4.609   0.225   8.838 -0.8936  0.1112  0.2276
 2961TIP3    H133078   4.599   0.247   8.745  1.1606 -2.2682 -0.6769
 2961TIP3    H233079   4.684   0.277   8.867 -1.7757  1.1480  0.6966
 2962TIP3   OH233080   3.079   1.017  10.341  0.3071  0.2589 -0.3915
 2962TIP3    H133081   3.152   1.049  10.395 -1.6252 -0.5011  2.9530
 2962TIP3    H233082   3.052   1.094  10.291  2.2178  1.0327 -0.3427
 2963TIP3   OH233083   5.514   6.168   8.577  0.2588 -0.1655 -0.5036
 2963TIP3    H133084   5.540   6.201   8.491 -1.3060  1.1215 -0.5151
 2963TIP3    H233085   5.422   6.145   8.567 -0.2832  1.1298  1.1201
 2964TIP3   OH233086   3.111   1.039   9.725  0.1962 -0.1948 -0.3833
 2964TIP3    H133087   3.181   1.089   9.767  0.5457  0.0695 -1.2592
 2964TIP3    H233088   3.150   1.008   9.643 -1.0762  0.9803 -1.4786
 2965TIP3   OH233089   3.407   6.891  11.188 -0.0467 -0.1763  0.2672
 2965TIP3    H133090   3.487   6.885  11.135  0.0836  0.1275  0.4306
 2965TIP3    H233091   3.353   6.956  11.143 -0.4680 -0.8166 -0.1856
 2966TIP3   OH233092   0.768   2.898   9.395 -0.1257  0.2269 -0.2878
 2966TIP3    H133093   0.768   2.980   9.346 -0.2942  1.7156  2.0393
 2966TIP3    H233094   0.845   2.904   9.451 -0.2874 -1.0932  0.1033
 2967TIP3   OH233095   2.642   1.829   9.148  0.1729  0.6945 -0.6853
 2967TIP3    H133096   2.562   1.836   9.199  1.1370  1.2620  0.8015
 2967TIP3    H233097   2.706   1.881   9.196  1.5923 -0.2008 -1.5442
 2968TIP3   OH233098   0.094   3.377  11.051 -0.3458  0.7738  0.3452
 2968TIP3    H133099   0.175   3.396  11.004 -1.0837  1.1106 -0.8318
 2968TIP3    H233100   0.086   3.448  11.115 -0.7879  1.9847 -0.9973
 2969TIP3   OH233101   5.006   5.238  10.971 -0.5109  0.4802 -0.0805
 2969TIP3    H133102   4.974   5.172  11.032 -0.3327  0.2471 -0.2327
 2969TIP3    H233103   5.100   5.218  10.962 -0.1583  1.5921  0.9111
 2970TIP3   OH233104   0.503   3.627   9.725 -0.5611  0.5107 -0.0032
 2970TIP3    H133105   0.492   3.653   9.634 -1.3198  0.9457  0.2045
 2970TIP3    H233106   0.422   3.583   9.748  0.5435 -1.7945 -0.2203
 2971TIP3   OH233107   3.275   3.817   9.603  0.3211  0.0705  0.0574
 2971TIP3    H133108   3.202   3.878   9.606 -0.7994 -1.2388  0.4381
 2971TIP3    H233109   3.247   3.744   9.658  0.9638 -1.4850 -1.5891
 2972TIP3   OH233110   4.855   5.370  10.802 -0.0141  0.2385 -0.0346
 2972TIP3    H133111   4.770   5.335  10.827  0.2276 -1.7115 -1.6556
 2972TIP3    H233112   4.915   5.343  10.871 -0.2880 -0.4804 -0.0763
 2973TIP3   OH233113   0.127   7.430   9.234  0.0247  0.1751  0.0264
 2973TIP3    H133114   0.201   7.488   9.218  0.4410  0.2569  2.0313
 2973TIP3    H233115   0.165   7.350   9.271 -0.9148  0.6950  2.2817
 2974TIP3   OH233116   2.250   2.493  10.443 -0.1221 -0.0172  0.4181
 2974TIP3    H133117   2.202   2.420  10.403  0.4279 -0.6691  0.9215
 2974TIP3    H233118   2.318   2.451  10.495 -0.6057  0.8123  1.7704
 2975TIP3   OH233119   5.462   1.660  10.376 -0.0004  0.1209 -0.1779
 2975TIP3    H133120   5.502   1.648  10.290 -0.2188  1.3842 -0.4746
 2975TIP3    H233121   5.514   1.728  10.418 -0.1447 -0.1989  0.5309
 2976TIP3   OH233122   2.190   2.057   9.985  0.5080  0.2149 -0.5796
 2976TIP3    H133123   2.240   1.979  10.007 -1.6115 -0.6432  1.6661
 2976TIP3    H233124   2.138   2.032   9.909  1.1990  0.0968 -1.0223
 2977TIP3   OH233125   4.813   0.380  10.870  0.0706 -0.0824 -0.0984
 2977TIP3    H133126   4.845   0.470  10.873  0.1587 -0.1016  2.8503
 2977TIP3    H233127   4.739   0.382  10.811  0.2817  1.8509 -0.3453
 2978TIP3   OH233128   1.796   2.238  10.302 -0.5181 -0.1887 -0.3102
 2978TIP3    H133129   1.758   2.224  10.214 -0.4175  0.7651 -0.5076
 2978TIP3    H233130   1.732   2.293  10.347  0.9325  2.0554 -0.8845
 2979TIP3   OH233131   4.359   2.279  11.142 -0.3183  0.2577  0.3218
 2979TIP3    H133132   4.446   2.242  11.153 -0.9395 -1.0533  1.0607
 2979TIP3    H233133   4.303   2.228  11.201 -1.8809  0.0415 -1.2481
 2980TIP3   OH233134   5.628   1.433  11.086  0.5963 -0.2890  0.4136
 2980TIP3    H133135   5.569   1.486  11.032 -0.1016 -1.0484  0.4160
 2980TIP3    H233136   5.670   1.373  11.024  1.0375 -0.0628  0.4830
 2981TIP3   OH233137   4.383   1.234  10.260  0.0684  0.1536 -0.4767
 2981TIP3    H133138   4.433   1.267  10.336  1.5599  1.0037 -1.7652
 2981TIP3    H233139   4.315   1.179  10.299  1.6494 -0.6059  1.4349
 2982TIP3   OH233140   5.824   5.469   9.121  0.0465  0.5513  0.2819
 2982TIP3    H133141   5.742   5.421   9.128  1.2744 -1.7910 -0.0791
 2982TIP3    H233142   5.877   5.416   9.061  2.3542  1.1430  1.6606
 2983TIP3   OH233143   4.063   5.585  10.776  0.1684 -0.2377  0.8552
 2983TIP3    H133144   4.072   5.599  10.870 -2.9950  0.2860  1.1816
 2983TIP3    H233145   3.989   5.525  10.768  0.0645  0.1117 -1.3375
 2984TIP3   OH233146   6.594   4.487   9.806  0.1020  0.1964  0.5512
 2984TIP3    H133147   6.639   4.406   9.832 -3.7171 -3.3166 -2.3019
 2984TIP3    H233148   6.611   4.494   9.712 -0.7188  1.9532  0.5055
 2985TIP3   OH233149   4.917   3.533   9.932 -0.1189  0.1451  0.5998
 2985TIP3    H133150   4.855   3.593   9.890  0.0750 -0.3351 -0.4102
 2985TIP3    H233151   4.983   3.516   9.864  0.6439 -0.0455  1.3658
 2986TIP3   OH233152   6.197   6.739   8.704 -0.6842 -0.8191  0.6647
 2986TIP3    H133153   6.185   6.829   8.674  0.2179 -0.7054  0.5944
 2986TIP3    H233154   6.292   6.726   8.700 -0.8727 -2.1380 -0.3901
 2987TIP3   OH233155   6.686   4.010  10.783  0.2406  0.3569  0.2664
 2987TIP3    H133156   6.655   4.083  10.837 -0.7231  1.0565 -1.1558
 2987TIP3    H233157   6.763   4.045  10.738  0.7955 -0.0863  0.8585
 2988TIP3   OH233158   2.812   7.010  11.266  0.4233 -0.1092  0.1394
 2988TIP3    H133159   2.800   7.071  11.193 -0.1058 -0.8931 -0.4464
 2988TIP3    H233160   2.896   6.968  11.249  0.8036  0.4558  0.5600
 2989TIP3   OH233161   2.799   7.449  11.031  0.8933 -0.3553  0.1066
 2989TIP3    H133162   2.857   7.446  11.107  1.2774 -0.1920 -0.1796
 2989TIP3    H233163   2.824   7.529  10.984  0.7557 -0.5263 -0.2644
 2990TIP3   OH233164   4.189   3.208  10.459  0.4126  0.5629 -0.0927
 2990TIP3    H133165   4.191   3.113  10.471  0.8926  0.6197  0.2793
 2990TIP3    H233166   4.121   3.222  10.392  0.5974 -0.0669 -0.4201
 2991TIP3   OH233167   6.690   6.256  10.016  0.0704  0.2719  0.1472
 2991TIP3    H133168   6.758   6.311   9.976  0.2465  0.5274  0.7821
 2991TIP3    H233169   6.676   6.185   9.953  0.4825  0.5581 -0.2720
 2992TIP3   OH233170   6.360   6.030  10.345 -0.1560 -0.1340 -0.2034
 2992TIP3    H133171   6.441   6.073  10.320  0.8540 -0.2561  2.5158
 2992TIP3    H233172   6.318   6.007  10.262  2.5942 -0.1356 -1.7049
 2993TIP3   OH233173   2.744   4.832   8.910  0.4030 -0.2344  0.3022
 2993TIP3    H133174   2.802   4.795   8.976 -0.1606 -1.3555  0.1897
 2993TIP3    H233175   2.746   4.927   8.926  1.0168 -0.4035  1.2944
 2994TIP3   OH233176   4.296   6.556  10.520  0.3628  0.0906 -0.4723
 2994TIP3    H133177   4.391   6.557  10.508  0.5273  1.6990  0.6614
 2994TIP3    H233178   4.261   6.563  10.431  1.3228  0.4379 -0.8322
 2995TIP3   OH233179   4.109   2.612  10.143  0.3109 -0.3192  0.4946
 2995TIP3    H133180   4.120   2.535  10.088 -2.5571  0.0302 -0.7822
 2995TIP3    H233181   4.044   2.586  10.209  1.1852  0.2891  1.6425
 2996TIP3   OH233182   0.076   3.766   9.002  0.5286 -0.3845 -0.2159
 2996TIP3    H133183   0.149   3.706   8.986  1.7546  1.5850 -2.7215
 2996TIP3    H233184   0.093   3.841   8.945 -1.8416  1.5956  1.4357
 2997TIP3   OH233185   0.162   2.395   8.514  0.0198  0.6580 -0.0631
 2997TIP3    H133186   0.074   2.359   8.522  0.5393 -0.9775 -1.1463
 2997TIP3    H233187   0.199   2.351   8.438  1.2026  2.5845 -0.6753
 2998TIP3   OH233188   1.346   2.224  10.856 -0.1340  0.0726  0.6997
 2998TIP3    H133189   1.269   2.236  10.912 -0.1929  1.5417  0.3472
 2998TIP3    H233190   1.317   2.167  10.786 -0.2762 -1.1639  1.7255
 2999TIP3   OH233191   3.827   7.201  10.178  0.3383 -0.3439  0.0422
 2999TIP3    H133192   3.827   7.292  10.147 -0.6194 -0.2995  0.1440
 2999TIP3    H233193   3.880   7.154  10.113  0.0281  0.1100 -0.5565
 3000TIP3   OH233194   2.981   4.619  10.042 -0.3598  0.2229  0.4418
 3000TIP3    H133195   2.950   4.548  10.099  0.5669 -1.2623 -0.8019
 3000TIP3    H233196   2.964   4.699  10.091 -1.2930 -0.8699  1.9870
 3001TIP3   OH233197   6.017   2.936   9.495  0.2596 -0.0439 -0.1549
 3001TIP3    H133198   5.927   2.908   9.512  0.0704  1.5222  1.7583
 3001TIP3    H233199   6.008   3.016   9.444  0.5921 -0.0796 -0.2695
 3002TIP3   OH233200   1.268   6.289   9.382  0.0535  0.0847  0.4082
 3002TIP3    H133201   1.192   6.310   9.437  0.6641  0.2970  1.1906
 3002TIP3    H233202   1.232   6.236   9.311 -0.7285 -0.4110  1.1508
 3003TIP3   OH233203   0.282   2.711  11.286 -0.5298 -0.4116 -0.4772
 3003TIP3    H133204   0.220   2.679  11.221  0.6941 -0.8737 -1.4511
 3003TIP3    H233205   0.248   2.797  11.311 -1.5809 -0.6706 -0.9380
 3004TIP3   OH233206   3.811   3.882   8.279  0.4042 -0.3835  0.2585
 3004TIP3    H133207   3.746   3.820   8.314 -0.3358  0.6906  0.8472
 3004TIP3    H233208   3.870   3.899   8.352 -0.1317  0.5491  0.4878
 3005TIP3   OH233209   1.234   4.606   8.974  0.5408  0.0745  0.3737
 3005TIP3    H133210   1.243   4.518   8.936 -0.4550  0.1575 -0.0817
 3005TIP3    H233211   1.159   4.644   8.928  0.6978  1.0078  0.8736
 3006TIP3   OH233212   3.412   4.220   9.777  0.0749 -0.0434  0.1599
 3006TIP3    H133213   3.394   4.132   9.811 -0.0484  0.2910  0.9922
 3006TIP3    H233214   3.394   4.214   9.683  1.2375 -1.2232 -0.0208
 3007TIP3   OH233215   5.249   4.575   9.633 -0.5154 -0.2475  0.2289
 3007TIP3    H133216   5.159   4.605   9.647 -0.2724  0.5122  0.2423
 3007TIP3    H233217   5.242   4.507   9.566 -1.0420  0.2009 -0.1804
 3008TIP3   OH233218   2.809   0.985   8.867  0.5466  0.0084  0.3408
 3008TIP3    H133219   2.851   0.926   8.930 -1.1342 -0.4974  1.0544
 3008TIP3    H233220   2.780   0.927   8.796  1.4772  0.4260 -0.4000
 3009TIP3   OH233221   0.301   2.582  10.818  0.0392  0.0630  1.2028
 3009TIP3    H133222   0.374   2.644  10.813 -0.6098  0.7484 -0.2566
 3009TIP3    H233223   0.233   2.629  10.865 -0.3778  0.4059  0.2784
 3010TIP3   OH233224   0.253   6.268  10.033 -0.2254  0.4479 -0.3429
 3010TIP3    H133225   0.169   6.247   9.991  0.1539 -0.1466 -0.8331
 3010TIP3    H233226   0.231   6.329  10.103 -1.1130  0.0132 -0.2325
 3011TIP3   OH233227   5.374   2.310   9.873 -0.4842 -0.1182  0.2584
 3011TIP3    H133228   5.418   2.250   9.812  1.2314 -1.1364  2.3283
 3011TIP3    H233229   5.310   2.255   9.919 -0.8679  0.3160  0.2436
 3012TIP3   OH233230   2.945   3.468   8.340 -0.4222 -0.1640  0.3109
 3012TIP3    H133231   2.985   3.382   8.342 -1.0666 -0.4654  1.4098
 3012TIP3    H233232   2.917   3.484   8.431  0.0170  1.3562  0.2108
 3013TIP3   OH233233   6.934   2.474  10.533 -0.2631  0.1442 -0.1747
 3013TIP3    H133234   6.862   2.523  10.492  0.7898  2.0018  0.0825
 3013TIP3    H233235   6.968   2.419  10.463 -1.5895 -0.3797 -0.4372
 3014TIP3   OH233236   5.862   3.713  10.742 -0.3489 -0.1186  0.5767
 3014TIP3    H133237   5.932   3.734  10.803 -0.9246  0.1124  1.1721
 3014TIP3    H233238   5.852   3.792  10.689 -0.1358 -0.1650  0.4680
 3015TIP3   OH233239   2.562   1.986  10.672  0.4632  0.4292 -0.4698
 3015TIP3    H133240   2.591   1.949  10.755  2.6031 -0.2274 -1.4370
 3015TIP3    H233241   2.467   1.972  10.672  0.8715 -3.9810 -0.1415
 3016TIP3   OH233242   1.513   2.683   9.940  0.4249  0.4931  0.3834
 3016TIP3    H133243   1.523   2.607   9.997  0.6777  0.7866  0.7343
 3016TIP3    H233244   1.452   2.741   9.987 -0.9711 -0.1560 -0.5745
 3017TIP3   OH233245   7.262   2.430   9.982 -0.2615 -0.3674  0.1625
 3017TIP3    H133246   7.235   2.424   9.891 -0.3549 -0.4630  0.1955
 3017TIP3    H233247   7.187   2.469  10.027 -1.4851 -3.1370  0.7388
 3018TIP3   OH233248   0.430   0.629  10.080 -0.1037  0.4980  0.2746
 3018TIP3    H133249   0.390   0.705  10.038 -1.2670 -1.1383 -1.7275
 3018TIP3    H233250   0.371   0.608  10.152 -1.1626  0.0147 -0.7094
 3019TIP3   OH233251   1.505   7.165   8.827 -0.9387 -0.1212  0.5258
 3019TIP3    H133252   1.410   7.179   8.828 -1.2167 -1.6986  0.1944
 3019TIP3    H233253   1.518   7.095   8.763  0.3289 -0.6406  1.3015
 3020TIP3   OH233254   0.878   1.265   9.506  0.2994  0.4355 -0.0651
 3020TIP3    H133255   0.788   1.236   9.493  0.0186  0.2882  1.8154
 3020TIP3    H233256   0.876   1.359   9.488 -0.7009  0.8052  1.7262
 3021TIP3   OH233257   7.224   3.407  11.164 -0.1971 -0.4342 -0.1683
 3021TIP3    H133258   7.254   3.338  11.104  1.0709 -0.7194  0.7436
 3021TIP3    H233259   7.270   3.485  11.134 -1.9829  0.1551 -1.4822
 3022TIP3   OH233260   7.205   1.154   9.670 -0.6892  0.0661  0.5655
 3022TIP3    H133261   7.260   1.080   9.644 -1.1691 -0.7451  1.7819
 3022TIP3    H233262   7.140   1.116   9.728 -1.4358  1.3266  0.5803
 3023TIP3   OH233263   6.130   4.437  10.594  0.1738 -0.8155 -0.1727
 3023TIP3    H133264   6.195   4.376  10.629  1.5381  0.3240 -0.6493
 3023TIP3    H233265   6.055   4.382  10.573  1.4695 -2.3918 -0.8724
 3024TIP3   OH233266   1.202   6.815   9.600 -0.2106 -0.1733 -0.4450
 3024TIP3    H133267   1.281   6.868   9.587  0.1545 -0.8376 -1.0342
 3024TIP3    H233268   1.171   6.838   9.688  2.0443 -1.6835  0.8551
 3025TIP3   OH233269   2.166   3.442  10.606  0.0913 -0.3546  0.7103
 3025TIP3    H133270   2.229   3.391  10.556  0.7208  0.7394  0.3522
 3025TIP3    H233271   2.081   3.415  10.571  0.4408 -0.7270  0.1189
 3026TIP3   OH233272   4.532   7.271  10.195 -0.0245  0.5901 -0.0905
 3026TIP3    H133273   4.465   7.203  10.187  0.9920 -0.5196  0.5151
 3026TIP3    H233274   4.487   7.344  10.239 -0.6456 -0.4448  1.0628
 3027TIP3   OH233275   6.027   5.491  10.596  0.1586 -0.2139  0.0471
 3027TIP3    H133276   6.039   5.398  10.616 -0.9771 -0.1533  1.1820
 3027TIP3    H233277   5.981   5.492  10.512  1.2402 -0.6195 -0.5747
 3028TIP3   OH233278   7.648   5.815   9.404 -0.5037 -0.5405  0.2689
 3028TIP3    H133279   7.652   5.821   9.309 -0.7577  0.5464  0.3147
 3028TIP3    H233280   7.645   5.721   9.422  0.3227 -0.7874 -0.7526
 3029TIP3   OH233281   4.048   2.693   9.051  0.1406 -0.5346  0.1728
 3029TIP3    H133282   4.012   2.766   9.101  0.8365 -0.2814  0.3201
 3029TIP3    H233283   4.104   2.647   9.113  1.5341  0.1602 -0.5237
 3030TIP3   OH233284   7.424   6.731   9.806  0.0125  0.3096  0.1107
 3030TIP3    H133285   7.357   6.796   9.828 -1.6163 -1.4010  0.4950
 3030TIP3    H233286   7.395   6.651   9.850  1.0045 -1.1281 -1.7114
 3031TIP3   OH233287   1.458   6.040   9.363 -0.3903  0.1779  0.1860
 3031TIP3    H133288   1.472   6.074   9.451  2.1976 -1.2472  0.4280
 3031TIP3    H233289   1.546   6.023   9.330 -1.3785 -1.4525 -1.8254
 3032TIP3   OH233290   7.564   4.872  10.641  0.2013  0.6826  0.1275
 3032TIP3    H133291   7.546   4.778  10.647  0.7906  0.3695 -2.2604
 3032TIP3    H233292   7.643   4.885  10.693  0.3567 -0.2254  0.1352
 3033TIP3   OH233293   3.889   4.839  10.721  0.2892 -0.4467  0.3713
 3033TIP3    H133294   3.923   4.831  10.631  0.3902  0.5813  0.3088
 3033TIP3    H233295   3.950   4.899  10.764  1.4328 -2.4603  1.7528
 3034TIP3   OH233296   6.540   1.429   9.952  0.1411 -0.5161  0.2206
 3034TIP3    H133297   6.621   1.379   9.965 -0.9703 -2.3811  0.3145
 3034TIP3    H233298   6.473   1.379   9.998 -1.5302 -0.4064 -1.9398
 3035TIP3   OH233299   3.544   6.828   9.401 -0.1613  0.3762  0.4044
 3035TIP3    H133300   3.620   6.863   9.354  0.4649 -2.6111 -1.0430
 3035TIP3    H233301   3.572   6.823   9.492  0.2472  2.0361  0.4056
 3036TIP3   OH233302   3.839   7.474   9.972 -0.0744 -0.0645  0.1010
 3036TIP3    H133303   3.888   7.416   9.914  0.3171 -0.8542  1.1808
 3036TIP3    H233304   3.784   7.527   9.914  0.3573 -0.7755 -0.9736
 3037TIP3   OH233305   6.167   6.413  10.154 -0.7249  0.6155 -0.0639
 3037TIP3    H133306   6.255   6.404  10.119 -0.8033  0.0088 -0.1080
 3037TIP3    H233307   6.171   6.492  10.208  0.2139 -0.1384  1.0248
 3038TIP3   OH233308   1.547   7.513   8.524 -0.1311 -0.4812  0.5681
 3038TIP3    H133309   1.504   7.437   8.486  1.3803 -1.4303  0.6596
 3038TIP3    H233310   1.613   7.538   8.459  0.7928 -0.5780  1.4417
 3039TIP3   OH233311   4.486   3.039   8.825 -0.3635  0.0064 -0.9892
 3039TIP3    H133312   4.490   2.944   8.818 -1.6049  0.0418 -2.9348
 3039TIP3    H233313   4.528   3.071   8.745  0.0046  1.1008 -0.3822
 3040TIP3   OH233314   2.887   6.470   9.857  0.3331 -0.0920 -0.0434
 3040TIP3    H133315   2.875   6.418   9.778 -4.0498  0.7389 -0.1904
 3040TIP3    H233316   2.858   6.413   9.928  0.1774  0.5336  0.4035
 3041TIP3   OH233317   4.352   3.725  10.837  0.1097  0.1817  0.4135
 3041TIP3    H133318   4.321   3.812  10.812 -1.0649 -0.3255  0.0325
 3041TIP3    H233319   4.277   3.684  10.880  0.5337 -0.7682  0.2733
 3042TIP3   OH233320   3.437   4.844  10.417 -0.1136 -0.2821 -0.2717
 3042TIP3    H133321   3.408   4.933  10.398 -0.8548 -0.5437 -0.3684
 3042TIP3    H233322   3.488   4.852  10.498  1.1453  0.4739 -1.0938
 3043TIP3   OH233323   5.790   6.514   9.247  0.4227 -0.3325 -0.0942
 3043TIP3    H133324   5.787   6.444   9.312 -0.4886 -0.0911  0.1350
 3043TIP3    H233325   5.875   6.503   9.205  0.9947 -0.5500  1.0656
 3044TIP3   OH233326   1.442   4.070   9.347 -0.6533 -0.1147 -0.0587
 3044TIP3    H133327   1.417   4.069   9.255 -1.4875 -0.6956  0.1608
 3044TIP3    H233328   1.459   3.978   9.368  0.8193  0.1570  0.0398
 3045TIP3   OH233329   5.146   0.206   9.944  0.9819  0.6125  0.5968
 3045TIP3    H133330   5.144   0.293   9.904  2.8655 -0.0322 -1.0791
 3045TIP3    H233331   5.219   0.210  10.005  1.1526  0.1627  0.4193
 3046TIP3   OH233332   2.011   6.967  10.739 -0.5968 -0.7784 -0.5604
 3046TIP3    H133333   2.050   6.981  10.653 -1.7280 -1.4405 -1.2112
 3046TIP3    H233334   2.078   6.921  10.789  0.3526  0.2608 -0.8281
 3047TIP3   OH233335   1.513   6.958   8.653 -0.3160 -0.0019  0.3607
 3047TIP3    H133336   1.419   6.947   8.643 -0.0442 -2.1126 -0.4471
 3047TIP3    H233337   1.540   6.882   8.705  1.0342  0.2175  0.0171
 3048TIP3   OH233338   4.080   1.249   9.814 -0.0365 -0.1534  0.1987
 3048TIP3    H133339   4.054   1.340   9.829 -0.9136  0.3004 -3.1788
 3048TIP3    H233340   4.014   1.197   9.860 -0.9066  0.9368  0.2264
 3049TIP3   OH233341   3.956   0.553   8.906 -0.0571  0.3166 -0.1228
 3049TIP3    H133342   3.910   0.479   8.947 -0.7135  1.2850  0.9217
 3049TIP3    H233343   3.975   0.613   8.978  1.8949  0.4589 -0.7098
 3050TIP3   OH233344   2.218   3.190   9.393  0.3376  0.7029  0.4240
 3050TIP3    H133345   2.296   3.165   9.345 -0.4135 -0.2127 -0.3548
 3050TIP3    H233346   2.239   3.276   9.431  2.2891 -0.2396  1.5930
 3051TIP3   OH233347   6.045   0.666  11.386  0.3661 -0.3138  0.2805
 3051TIP3    H133348   6.099   0.664  11.307 -0.1686  0.7840 -0.1293
 3051TIP3    H233349   5.995   0.747  11.379 -0.6901 -0.8675  1.0868
 3052TIP3   OH233350   2.009   1.498   9.068 -0.1015 -0.1273 -0.3566
 3052TIP3    H133351   2.033   1.422   9.015  2.1049  2.0241 -2.7087
 3052TIP3    H233352   2.065   1.492   9.145  0.8996 -0.2837 -1.0864
 3053TIP3   OH233353   2.176   4.368  11.095 -0.0259  0.1892  0.4398
 3053TIP3    H133354   2.258   4.417  11.106  2.2993 -2.8793 -1.5604
 3053TIP3    H233355   2.166   4.358  11.001 -0.6874 -2.5175  0.7070
 3054TIP3   OH233356   2.247   5.410  10.104  0.0239 -0.2766 -0.1892
 3054TIP3    H133357   2.270   5.461  10.026 -0.8076 -0.1033 -0.3336
 3054TIP3    H233358   2.331   5.387  10.143  0.4548 -0.2452 -1.0584
 3055TIP3   OH233359   0.062   4.923  10.903 -0.1990 -0.3426 -0.3731
 3055TIP3    H133360   0.093   5.002  10.860  0.7267 -1.8008 -2.5889
 3055TIP3    H233361   0.141   4.876  10.928 -0.7188 -0.0741  2.0834
 3056TIP3   OH233362   0.081   7.216  10.156  0.1814  0.6734 -0.0667
 3056TIP3    H133363   0.167   7.210  10.197  0.8454 -1.2365 -1.5482
 3056TIP3    H233364   0.030   7.273  10.213  2.1896  1.2212  1.2622
 3057TIP3   OH233365   3.558   1.486   9.670 -0.2886 -0.5671  0.2920
 3057TIP3    H133366   3.523   1.457   9.754 -0.5011 -2.2246 -0.3302
 3057TIP3    H233367   3.561   1.582   9.677 -4.1457 -0.3464  0.6798
 3058TIP3   OH233368   0.895   1.469  10.399 -0.9145  0.1743 -0.4649
 3058TIP3    H133369   0.827   1.444  10.461  1.2839 -2.1709  1.1977
 3058TIP3    H233370   0.939   1.387  10.377  0.9193  1.4823 -2.0360
 3059TIP3   OH233371   1.255   7.117   8.742 -0.8406 -0.2883 -0.2770
 3059TIP3    H133372   1.220   7.067   8.668 -0.4162  0.8286 -1.2758
 3059TIP3    H233373   1.253   7.208   8.712  1.3414 -0.0183  0.2369
 3060TIP3   OH233374   7.127   0.487  10.799  0.2384 -0.3529 -0.0780
 3060TIP3    H133375   7.088   0.542  10.731  0.0993 -1.3397 -0.8199
 3060TIP3    H233376   7.084   0.515  10.880  0.6296  1.0532 -0.3291
 3061TIP3   OH233377   2.052   5.723   9.902  0.1578 -0.4052  0.1270
 3061TIP3    H133378   2.038   5.735   9.996  0.0076 -0.0026  0.0543
 3061TIP3    H233379   2.063   5.811   9.868  1.0524 -0.6025 -0.1094
 3062TIP3   OH233380   7.189   2.465  10.763  0.2663  0.1457  0.1958
 3062TIP3    H133381   7.225   2.490  10.678  2.2250  1.2359  1.2811
 3062TIP3    H233382   7.117   2.405  10.742  0.4624  0.6683 -2.2187
 3063TIP3   OH233383   1.834   1.098   9.550  0.5492  0.3410 -0.1841
 3063TIP3    H133384   1.785   1.143   9.619 -0.6676 -0.3288 -0.5896
 3063TIP3    H233385   1.902   1.161   9.525  1.9501  0.0957  2.5440
 3064TIP3   OH233386   7.428   0.635  10.733  0.4415 -0.4662 -0.4360
 3064TIP3    H133387   7.357   0.658  10.793 -0.3970 -1.0937 -1.1678
 3064TIP3    H233388   7.442   0.541  10.748  2.1317 -0.0726  0.7385
 3065TIP3   OH233389   6.364   0.288   9.210  0.0107 -0.3392  0.3507
 3065TIP3    H133390   6.435   0.351   9.213 -1.1370  0.9658  0.9368
 3065TIP3    H233391   6.323   0.302   9.125  0.0558 -0.6435  0.2781
 3066TIP3   OH233392   6.974   2.300  10.734 -1.0673 -0.7690  0.3026
 3066TIP3    H133393   6.950   2.355  10.659 -0.1060 -2.1478 -1.0847
 3066TIP3    H233394   6.909   2.230  10.733  1.0382 -2.8731 -1.6545
 3067TIP3   OH233395   2.888   0.223  10.259 -0.8066  0.1940  0.1270
 3067TIP3    H133396   2.814   0.249  10.314 -0.1715 -0.7027  1.4428
 3067TIP3    H233397   2.957   0.286  10.280 -0.9139  0.5390 -0.5082
 3068TIP3   OH233398   2.622   1.790  10.967  0.3913 -0.3261  0.2493
 3068TIP3    H133399   2.582   1.872  10.998  1.1087 -0.0776  0.5233
 3068TIP3    H233400   2.615   1.731  11.042 -1.4685 -1.0209 -0.4108
 3069TIP3   OH233401   5.611   5.204   9.097  0.6625  0.0183 -0.3918
 3069TIP3    H133402   5.535   5.150   9.075 -0.3503  1.8054 -1.4808
 3069TIP3    H233403   5.647   5.232   9.013  1.1664  1.0251  0.1349
 3070TIP3   OH233404   3.303   7.361  10.737  0.4149  0.1409 -0.0465
 3070TIP3    H133405   3.299   7.292  10.671 -2.0566 -0.5453  0.7230
 3070TIP3    H233406   3.241   7.428  10.707  0.8342  0.8011  0.5281
 3071TIP3   OH233407   0.277   5.479   9.346  0.2290 -0.3286 -0.1747
 3071TIP3    H133408   0.189   5.464   9.380 -0.6901  1.6644 -1.4728
 3071TIP3    H233409   0.295   5.570   9.367  1.2009 -0.1693 -1.5926
 3072TIP3   OH233410   1.948   0.175  10.051  0.2518 -0.0258  0.3920
 3072TIP3    H133411   1.891   0.113  10.097 -0.5276  0.2143 -0.2223
 3072TIP3    H233412   1.921   0.261  10.085 -1.9093  0.3849 -2.0283
 3073TIP3   OH233413   2.392   2.975  10.821  0.5594 -0.2997 -0.6535
 3073TIP3    H133414   2.469   3.024  10.852  0.4291 -0.4464 -0.0781
 3073TIP3    H233415   2.416   2.884  10.834 -0.1615 -0.3281  0.6801
 3074TIP3   OH233416   5.942   1.472   9.691  0.4606  0.7698  0.2493
 3074TIP3    H133417   6.027   1.504   9.720 -0.0173 -0.1536  3.0192
 3074TIP3    H233418   5.944   1.378   9.709 -0.1077  0.1074 -2.5944
 3075TIP3   OH233419   2.554   0.258   9.350 -0.4855  0.2159 -0.3245
 3075TIP3    H133420   2.612   0.217   9.414 -0.9668  0.2015  0.1089
 3075TIP3    H233421   2.539   0.346   9.385  0.8250  0.9294 -1.4207
 3076TIP3   OH233422   5.954   3.901   8.585  0.9869  0.1627  0.0855
 3076TIP3    H133423   5.977   3.824   8.637  1.3357  0.3660  0.2371
 3076TIP3    H233424   6.018   3.967   8.611 -0.3430  1.0551  1.2050
 3077TIP3   OH233425   2.360   5.000   9.911  0.0449  0.4552 -0.4808
 3077TIP3    H133426   2.447   4.973   9.941 -0.3234 -0.0600  0.1660
 3077TIP3    H233427   2.376   5.049   9.830  0.9186  0.2101 -0.4655
 3078TIP3   OH233428   7.285   2.730  10.797 -0.9037  0.1103 -0.3286
 3078TIP3    H133429   7.380   2.729  10.785 -0.6663 -1.2043  1.2082
 3078TIP3    H233430   7.257   2.642  10.772 -1.8051  0.5996 -1.1382
 3079TIP3   OH233431   4.603   5.154  10.787  0.4654 -0.1435  0.3461
 3079TIP3    H133432   4.514   5.181  10.764 -0.3243 -2.3171  0.6176
 3079TIP3    H233433   4.624   5.085  10.725  1.6323 -0.2394  0.8247
 3080TIP3   OH233434   7.002   1.751   8.345 -0.0639  0.1327  0.6899
 3080TIP3    H133435   7.035   1.789   8.426 -1.5996  2.1677  0.4554
 3080TIP3    H233436   6.966   1.826   8.297 -2.1403 -1.4485 -0.3915
 3081TIP3   OH233437   0.418   2.016  10.809  0.2390  0.1008 -0.1456
 3081TIP3    H133438   0.374   1.990  10.890 -2.2989  0.3053 -1.3650
 3081TIP3    H233439   0.504   1.975  10.814 -1.0466 -2.7365  1.1539
 3082TIP3   OH233440   3.646   6.359  10.797 -0.0209  0.2695 -0.0533
 3082TIP3    H133441   3.598   6.382  10.717 -0.9215  0.9566  0.6602
 3082TIP3    H233442   3.609   6.416  10.864  1.1045  0.0873  0.7439
 3083TIP3   OH233443   1.830   6.906   8.793  0.5272  0.7711  0.0225
 3083TIP3    H133444   1.846   6.836   8.857 -2.6525 -1.0311 -0.9211
 3083TIP3    H233445   1.865   6.873   8.711  1.5298  1.5798  0.1046
 3084TIP3   OH233446   6.726   1.621   9.705 -0.7801 -0.4691 -0.0569
 3084TIP3    H133447   6.692   1.707   9.683 -1.7942 -0.8026  0.1334
 3084TIP3    H233448   6.761   1.630   9.793 -0.4277 -0.1255 -0.2352
 3085TIP3   OH233449   0.984   6.729  11.011 -0.2970 -0.3920 -0.0888
 3085TIP3    H133450   0.958   6.739  11.102  1.2676 -0.6749  0.4071
 3085TIP3    H233451   0.905   6.751  10.961 -0.6187  1.7627  1.2534
 3086TIP3   OH233452   3.396   3.984   8.777 -0.4264 -0.3169  0.5321
 3086TIP3    H133453   3.333   3.986   8.849  1.5873  2.3393  2.4423
 3086TIP3    H233454   3.427   3.893   8.774 -0.7875 -0.5775  2.8790
 3087TIP3   OH233455   1.058   2.600   9.269 -0.1576  0.1981  0.2645
 3087TIP3    H133456   1.039   2.686   9.232 -2.7888 -0.2962  0.2640
 3087TIP3    H233457   1.129   2.566   9.215 -0.5493  1.4952 -1.1501
 3088TIP3   OH233458   6.282   2.676  10.830  0.2565 -0.1736 -0.4805
 3088TIP3    H133459   6.228   2.598  10.845 -0.1281  0.3113  0.7631
 3088TIP3    H233460   6.371   2.648  10.850  0.2462 -0.5344 -0.9304
 3089TIP3   OH233461   3.187   3.811  10.326  0.1682 -0.5139  0.5425
 3089TIP3    H133462   3.243   3.884  10.299 -1.5770  1.0581  0.9915
 3089TIP3    H233463   3.099   3.848  10.329 -0.8612 -2.7918  0.2942
 3090TIP3   OH233464   4.259   5.462  11.052  0.3137  0.1901  0.2204
 3090TIP3    H133465   4.333   5.471  11.113  1.3235  1.8179 -1.1570
 3090TIP3    H233466   4.289   5.505  10.972 -1.7527 -0.0609 -0.7435
 3091TIP3   OH233467   3.308   4.415  10.000  0.0615  0.1391  0.2180
 3091TIP3    H133468   3.264   4.371  10.073  1.1232 -1.3806 -0.0011
 3091TIP3    H233469   3.302   4.353   9.928 -1.8088  1.9996 -1.3546
 3092TIP3   OH233470   2.880   4.918  11.077  0.0472 -0.0623 -0.3915
 3092TIP3    H133471   2.849   4.977  11.146 -0.4886  0.1793 -0.8241
 3092TIP3    H233472   2.886   4.974  10.999  2.3574  0.0950 -0.1769
 3093TIP3   OH233473   5.292   4.280  10.908 -0.5667 -0.5777 -0.1924
 3093TIP3    H133474   5.311   4.224  10.984 -0.9570 -1.6682 -0.8805
 3093TIP3    H233475   5.197   4.290  10.909 -0.4888  0.2378  0.0177
 3094TIP3   OH233476   0.185   4.226   9.747 -0.2000  0.0938  0.1491
 3094TIP3    H133477   0.196   4.132   9.738  0.6273  0.2300 -0.3919
 3094TIP3    H233478   0.249   4.251   9.813  0.5786  0.4570 -0.7138
 3095TIP3   OH233479   1.316   6.882  10.725  0.2688 -0.0876  0.3032
 3095TIP3    H133480   1.256   6.820  10.767  1.0822 -1.1419 -0.0464
 3095TIP3    H233481   1.377   6.827  10.675  0.0380  1.0650 -1.3410
 3096TIP3   OH233482   3.379   5.203  10.065 -0.8992 -0.3265 -0.3268
 3096TIP3    H133483   3.401   5.237   9.978 -1.6473  1.0402 -0.0071
 3096TIP3    H233484   3.331   5.122  10.048 -0.2077 -0.5804 -1.1479
 3097TIP3   OH233485   0.374   4.508   9.806  0.0400  0.2064 -0.2121
 3097TIP3    H133486   0.387   4.419   9.838 -0.5734 -0.1283 -0.8856
 3097TIP3    H233487   0.397   4.564   9.881  2.3492 -0.4194 -0.3652
 3098TIP3   OH233488   2.291   1.970  10.637  0.0719 -0.0189 -0.1933
 3098TIP3    H133489   2.268   2.007  10.552 -2.7355  0.2900  0.6249
 3098TIP3    H233490   2.251   2.029  10.701  0.9362 -1.0172  1.3347
 3099TIP3   OH233491   3.028   2.311  10.920 -0.7246  0.3849 -0.1847
 3099TIP3    H133492   3.038   2.379  10.987  0.3337  0.1872 -0.1186
 3099TIP3    H233493   3.063   2.350  10.840 -0.3218  0.0092 -0.1965
 3100TIP3   OH233494   6.767   0.229   8.819  0.4834 -0.0548 -0.1082
 3100TIP3    H133495   6.836   0.163   8.812 -0.2101 -0.8996  0.6402
 3100TIP3    H233496   6.734   0.239   8.730  1.1633 -0.0911 -0.3702
 3101TIP3   OH233497   4.772   2.914   9.770  0.2013 -0.2144  0.3450
 3101TIP3    H133498   4.705   2.978   9.791  1.3398  0.5343  1.8352
 3101TIP3    H233499   4.787   2.925   9.676 -0.1850  1.1176  0.4278
 3102TIP3   OH233500   2.635   0.350  10.399  0.2427 -0.0909 -0.6900
 3102TIP3    H133501   2.629   0.442  10.424 -0.0269 -0.1999 -0.3474
 3102TIP3    H233502   2.683   0.309  10.471  1.5354  0.0146 -1.4587
 3103TIP3   OH233503   6.101   7.276  11.094 -0.0863  0.0782 -0.0152
 3103TIP3    H133504   6.171   7.340  11.078 -0.3104  0.3066 -0.0997
 3103TIP3    H233505   6.101   7.265  11.189 -0.0998  0.2692  0.0084
 3104TIP3   OH233506   3.682   7.022  10.584  0.2395  0.9263 -0.1521
 3104TIP3    H133507   3.649   7.049  10.499 -0.2007  0.6660 -0.0706
 3104TIP3    H233508   3.686   6.926  10.579 -1.6208  0.7606  0.7481
 3105TIP3   OH233509   5.962   3.556  10.135  0.0597  0.4120 -0.6869
 3105TIP3    H133510   5.979   3.518  10.049  0.7974  0.4929 -0.5880
 3105TIP3    H233511   6.016   3.636  10.137  0.0987  0.3760 -0.1304
 3106TIP3   OH233512   3.543   6.558   9.450 -0.2675 -0.3882 -0.2473
 3106TIP3    H133513   3.566   6.643   9.412  1.4239  0.0833  1.6278
 3106TIP3    H233514   3.449   6.549   9.434 -0.2086  1.1591 -1.7283
 3107TIP3   OH233515   1.433   4.095  10.698 -0.4080 -0.0468 -0.8120
 3107TIP3    H133516   1.474   4.175  10.733  2.0530 -1.0390 -1.1690
 3107TIP3    H233517   1.348   4.124  10.665 -1.3773  1.6289  2.6323
 3108TIP3   OH233518   2.804   6.937   9.427  0.0542 -0.1393 -0.3875
 3108TIP3    H133519   2.724   6.989   9.434  0.5352  0.5920 -0.1306
 3108TIP3    H233520   2.776   6.847   9.443 -0.9130 -0.0580 -1.5356
 3109TIP3   OH233521   1.972   7.115   9.617  0.2447  0.9568 -1.0077
 3109TIP3    H133522   2.033   7.063   9.565  2.7171  2.1859  0.4560
 3109TIP3    H233523   1.937   7.054   9.681  1.9490  0.7032 -0.2609
 3110TIP3   OH233524   6.859   0.849  10.456 -0.5126  0.4427  0.4294
 3110TIP3    H133525   6.884   0.757  10.448 -0.2944  0.2407  2.6713
 3110TIP3    H233526   6.918   0.895  10.396 -0.1980 -0.8046 -0.2538
 3111TIP3   OH233527   0.461   0.939  11.147 -0.2958 -0.0776  0.1011
 3111TIP3    H133528   0.451   0.983  11.063  0.2851  1.6231  0.8707
 3111TIP3    H233529   0.555   0.945  11.166 -0.2907 -1.2185  0.4726
 3112TIP3   OH233530   1.049   3.511  10.014 -0.4592 -0.5616  0.1509
 3112TIP3    H133531   1.031   3.605  10.013 -0.0868 -0.4905  0.1115
 3112TIP3    H233532   0.965   3.471  10.039 -0.2179 -0.1302  1.7818
 3113TIP3   OH233533   1.160   5.641  10.354 -0.1050 -0.2240  0.1055
 3113TIP3    H133534   1.210   5.562  10.336 -0.1406 -0.2784  0.2431
 3113TIP3    H233535   1.218   5.713  10.328  0.4618 -0.2470  1.2241
 3114TIP3   OH233536   2.510   2.169   9.346 -0.1628 -0.2779 -0.4348
 3114TIP3    H133537   2.587   2.195   9.295 -1.4982  1.2886 -1.7911
 3114TIP3    H233538   2.449   2.242   9.336 -2.0212 -1.6635  0.1789
 3115TIP3   OH233539   6.181   6.180   9.966  0.4772 -0.5704 -0.2023
 3115TIP3    H133540   6.179   6.271   9.996 -1.0763 -0.0900 -1.5991
 3115TIP3    H233541   6.238   6.182   9.889  2.3617 -1.2892  1.1054
 3116TIP3   OH233542   7.000   6.262  10.917  0.2708 -0.1966 -0.0505
 3116TIP3    H133543   7.036   6.322  10.851 -1.2240  1.2344  0.3759
 3116TIP3    H233544   6.910   6.291  10.929 -0.5259 -2.5529  0.1962
 3117TIP3   OH233545   0.845   2.234   9.911 -0.7572 -0.3325  0.2395
 3117TIP3    H133546   0.905   2.163   9.933 -0.6188 -0.1599  0.4290
 3117TIP3    H233547   0.783   2.236   9.984 -0.8616 -0.3681  0.1514
 3118TIP3   OH233548   2.407   1.900   9.293 -0.1764  0.6066 -0.4350
 3118TIP3    H133549   2.431   1.980   9.339  0.7845  0.7366 -1.1333
 3118TIP3    H233550   2.347   1.929   9.224 -3.7016  0.1173  2.1665
 3119TIP3   OH233551   4.131   1.552   9.918 -0.0915 -0.2571  0.0845
 3119TIP3    H133552   4.038   1.573   9.921 -0.5709 -2.0714 -0.5042
 3119TIP3    H233553   4.147   1.498   9.995  0.4877  0.0558  0.1934
 3120TIP3   OH233554   2.397   4.618  10.774 -0.2792  0.0414 -0.5057
 3120TIP3    H133555   2.378   4.575  10.858 -0.1416  1.6631  0.3973
 3120TIP3    H233556   2.312   4.653  10.746 -0.2560 -0.1864 -0.8513
 3121TIP3   OH233557   0.740   0.642  10.591 -0.1775  0.0664  0.0539
 3121TIP3    H133558   0.668   0.671  10.535  0.9859  0.5734 -1.2470
 3121TIP3    H233559   0.817   0.644  10.534  1.5110  2.7129  2.1985
 3122TIP3   OH233560   3.400   0.165  10.769  0.5343 -0.5585 -0.2786
 3122TIP3    H133561   3.461   0.162  10.843  0.7301 -1.3726 -0.4643
 3122TIP3    H233562   3.323   0.118  10.800  1.1194 -2.0755 -1.0204
 3123TIP3   OH233563   6.261   4.801   9.734 -0.6169 -0.4402  0.5462
 3123TIP3    H133564   6.188   4.771   9.789 -1.5177  0.6659 -0.0092
 3123TIP3    H233565   6.247   4.757   9.650  0.5307 -1.8103  1.0324
 3124TIP3   OH233566   0.975   1.425   8.292  0.1012 -0.0249 -0.3035
 3124TIP3    H133567   1.024   1.457   8.216  0.3356  0.7963  0.1803
 3124TIP3    H233568   0.924   1.501   8.320 -2.5908 -1.1930 -1.6552
 3125TIP3   OH233569   3.586   2.216  10.112  0.1519  0.3552  0.3911
 3125TIP3    H133570   3.510   2.270  10.134 -0.2667  0.2469 -0.7318
 3125TIP3    H233571   3.556   2.126  10.124  0.1291  0.3157  0.0520
 3126TIP3   OH233572   4.719   4.474  10.645  0.6794  0.3931  0.5266
 3126TIP3    H133573   4.756   4.399  10.599  1.3486 -0.3608  2.2035
 3126TIP3    H233574   4.625   4.469  10.629  0.5128 -1.7264  1.8126
 3127TIP3   OH233575   3.967   3.862  10.830 -0.1885 -0.0881  0.1095
 3127TIP3    H133576   4.035   3.903  10.777 -0.7521  1.2486  0.3756
 3127TIP3    H233577   3.992   3.881  10.920 -0.5752 -0.1563  0.2316
 3128TIP3   OH233578   6.319   0.265   8.662 -0.0176 -0.2493 -0.6801
 3128TIP3    H133579   6.408   0.256   8.697 -0.1872  1.1861  0.2138
 3128TIP3    H233580   6.330   0.274   8.568  0.7900 -0.0443 -0.5698
 3129TIP3   OH233581   0.984   7.196   8.509 -0.2110 -0.0376  0.5880
 3129TIP3    H133582   0.973   7.287   8.536  0.0290 -0.0839  0.8464
 3129TIP3    H233583   1.068   7.195   8.462 -1.0104  0.2081 -0.9104
 3130TIP3   OH233584   2.335   0.798   9.975 -0.8818 -0.3774 -0.2441
 3130TIP3    H133585   2.256   0.831   9.932 -0.9878  0.6505  0.6779
 3130TIP3    H233586   2.306   0.777  10.064 -0.7482 -2.7977 -0.7165
 3131TIP3   OH233587   5.117   5.916   9.356  0.0862  0.1875  0.4782
 3131TIP3    H133588   5.195   5.957   9.320 -0.2895 -0.9021 -1.7980
 3131TIP3    H233589   5.146   5.830   9.387 -0.1285 -0.1435 -0.2001
 3132TIP3   OH233590   1.689   3.939   9.636  0.2461 -0.1335  0.0958
 3132TIP3    H133591   1.773   3.977   9.660  0.5209  0.5745 -1.8020
 3132TIP3    H233592   1.627   4.011   9.647  0.2422 -0.0438 -0.4944
 3133TIP3   OH233593   4.661   2.491  10.132 -0.2679  0.1921 -0.7134
 3133TIP3    H133594   4.568   2.473  10.123  0.1109 -1.7678 -1.2437
 3133TIP3    H233595   4.669   2.540  10.214 -1.7282  0.2627 -0.5938
 3134TIP3   OH233596   2.848   3.468  10.441  0.1293 -0.4300  0.4478
 3134TIP3    H133597   2.762   3.507  10.424  1.4391  2.2745 -0.5971
 3134TIP3    H233598   2.874   3.504  10.525 -0.3583 -2.5556  1.5834
 3135TIP3   OH233599   1.594   2.641  10.442  0.2271 -0.6377 -0.1956
 3135TIP3    H133600   1.510   2.676  10.413  0.5957  0.2809 -0.1708
 3135TIP3    H233601   1.602   2.557  10.395  0.6813  0.6481 -2.5927
 3136TIP3   OH233602   6.127   2.457  10.916  0.2720 -0.2714  0.0251
 3136TIP3    H133603   6.075   2.445  10.836 -2.4830  1.0609  1.4782
 3136TIP3    H233604   6.108   2.379  10.968  1.2438 -0.6412 -0.1453
 3137TIP3   OH233605   3.282   6.944   9.474  0.0657  0.2941  0.3232
 3137TIP3    H133606   3.361   6.920   9.426 -0.6518  1.4752 -1.5998
 3137TIP3    H233607   3.289   6.898   9.558  0.3696 -3.8045 -1.6798
 3138TIP3   OH233608   4.705   4.921  10.645  0.8992 -0.1805 -0.7032
 3138TIP3    H133609   4.651   4.870  10.584  0.8551 -1.3537  0.2648
 3138TIP3    H233610   4.723   4.860  10.717  0.7914  1.2040  0.5477
 3139TIP3   OH233611   5.308   4.276   9.531 -0.7939 -0.2118 -0.4954
 3139TIP3    H133612   5.306   4.313   9.443 -0.0840 -0.4212 -0.6073
 3139TIP3    H233613   5.402   4.266   9.550 -0.9610 -1.2019 -0.1491
 3140TIP3   OH233614   0.335   1.477   8.659 -0.0192 -0.4234  0.3529
 3140TIP3    H133615   0.307   1.568   8.653 -1.2436 -0.8659 -1.6359
 3140TIP3    H233616   0.390   1.464   8.582  1.6496 -0.9239  1.5729
 3141TIP3   OH233617   2.068   1.780  10.551  0.2083  0.3411  0.0020
 3141TIP3    H133618   2.158   1.808  10.531 -0.0709  3.4063  2.2840
 3141TIP3    H233619   2.071   1.760  10.645 -1.4240  0.0851  0.0147
 3142TIP3   OH233620   5.966   5.295   8.736  0.6669  0.3923 -0.0966
 3142TIP3    H133621   6.001   5.356   8.671 -0.2968  2.0007  0.8308
 3142TIP3    H233622   5.983   5.209   8.699  2.0522  1.2010 -1.4786
 3143TIP3   OH233623   6.559   0.467  11.244 -0.7141  0.3906 -0.1075
 3143TIP3    H133624   6.500   0.434  11.311 -0.3665 -1.4811 -0.6568
 3143TIP3    H233625   6.621   0.395  11.229  1.4534  2.0996  0.1285
 3144TIP3   OH233626   0.571   0.154  10.533 -0.0766  0.1646  0.2484
 3144TIP3    H133627   0.586   0.202  10.614 -1.7793  0.8150  0.2205
 3144TIP3    H233628   0.542   0.067  10.561  1.1289 -0.2390  0.3024
 3145TIP3   OH233629   4.416   0.892   8.866 -0.0995 -0.1087  0.0325
 3145TIP3    H133630   4.417   0.931   8.953 -0.0804  0.3413 -0.1652
 3145TIP3    H233631   4.477   0.946   8.815  1.7559 -1.8128  0.3528
 3146TIP3   OH233632   2.293   3.170  10.423  0.0056 -0.8372 -0.5584
 3146TIP3    H133633   2.344   3.233  10.473  0.0541 -0.3891 -1.1626
 3146TIP3    H233634   2.270   3.102  10.486  0.4892 -0.5337 -0.0496
 3147TIP3   OH233635   7.619   0.979  10.205 -0.0036 -0.3793 -0.5284
 3147TIP3    H133636   7.615   0.977  10.300 -0.3851 -2.0486 -0.5508
 3147TIP3    H233637   7.658   1.064  10.184  0.9278 -0.3589  1.1340
 3148TIP3   OH233638   1.026   5.140   8.867 -0.4612  0.2047  0.4673
 3148TIP3    H133639   0.997   5.208   8.806 -0.7360 -0.7773 -0.5301
 3148TIP3    H233640   0.947   5.113   8.913 -0.2775  0.8476  1.1846
 3149TIP3   OH233641   1.313   7.034  10.308  0.1288  0.0579  0.2602
 3149TIP3    H133642   1.258   7.096  10.262 -0.1729 -1.7423 -1.9558
 3149TIP3    H233643   1.252   6.972  10.348  0.4755 -0.1643  0.4550
 3150TIP3   OH233644   0.878   7.306  10.302  0.0345 -0.6375  0.6712
 3150TIP3    H133645   0.892   7.372  10.234  0.0508 -0.8643  0.4467
 3150TIP3    H233646   0.817   7.243  10.261 -0.2274 -0.5938  0.9925
 3151TIP3   OH233647   5.210   0.748  10.939  0.3158  0.2102 -1.1706
 3151TIP3    H133648   5.207   0.698  10.857  0.9546  0.0170 -1.0855
 3151TIP3    H233649   5.279   0.705  10.989 -1.9835 -1.5940  0.7143
 3152TIP3   OH233650   2.646   1.063   9.065 -0.0046 -0.5772  0.2366
 3152TIP3    H133651   2.664   1.001   9.136 -1.2515 -0.9661  0.2496
 3152TIP3    H233652   2.688   1.025   8.988  0.9319 -0.4081  0.6510
 3153TIP3   OH233653   3.991   3.936  10.525  0.3169  0.1158  0.2022
 3153TIP3    H133654   3.990   3.997  10.452  0.2107  0.1282  0.2134
 3153TIP3    H233655   4.066   3.962  10.578 -0.8544  1.4684  1.2484
 3154TIP3   OH233656   3.415   6.891  10.781 -0.3858  0.1593 -0.2332
 3154TIP3    H133657   3.429   6.985  10.771  0.7715  0.1347  0.8869
 3154TIP3    H233658   3.322   6.878  10.761 -0.4436  1.4522 -0.8946
 3155TIP3   OH233659   6.716   3.304  10.879  0.3222  0.4405 -0.0503
 3155TIP3    H133660   6.693   3.228  10.933 -1.9573  0.6126 -0.6808
 3155TIP3    H233661   6.652   3.371  10.904  2.3189  2.2455  0.5584
 3156TIP3   OH233662   1.160   0.225   9.539  0.3151  0.5902  0.0802
 3156TIP3    H133663   1.200   0.138   9.535  2.1503  1.3501  0.6948
 3156TIP3    H233664   1.191   0.261   9.623 -0.3566  1.8561 -0.1962
 3157TIP3   OH233665   1.345   3.568  10.774  0.1866  0.0460 -0.0175
 3157TIP3    H133666   1.404   3.527  10.711 -0.4052 -1.0721  0.1270
 3157TIP3    H233667   1.402   3.594  10.847  0.9255  1.6389 -1.1158
 3158TIP3   OH233668   0.517   3.519   8.824  0.3163  0.9134  0.5751
 3158TIP3    H133669   0.514   3.588   8.757 -2.5198  0.2207 -0.1550
 3158TIP3    H233670   0.568   3.449   8.784  0.0540  1.1570 -0.2067
 3159TIP3   OH233671   5.797   1.064   9.377 -0.8347 -0.4098  0.7401
 3159TIP3    H133672   5.800   1.075   9.281 -2.6547 -0.0027  0.7041
 3159TIP3    H233673   5.733   1.129   9.407 -0.9020 -1.0936  2.1507
 3160TIP3   OH233674   2.413   5.088   9.642 -0.2384 -0.2056 -1.0365
 3160TIP3    H133675   2.320   5.107   9.649 -0.7643 -2.4778 -0.9992
 3160TIP3    H233676   2.419   5.028   9.567  1.0416 -0.8903 -0.4195
 3161TIP3   OH233677   2.472   1.184   9.402  0.3813 -0.4287  0.9757
 3161TIP3    H133678   2.541   1.250   9.395 -0.3888  0.2880 -0.1977
 3161TIP3    H233679   2.420   1.213   9.478  1.1574 -0.7959  1.6655
 3162TIP3   OH233680   1.044   2.574  10.482  0.5370 -0.2573 -0.2124
 3162TIP3    H133681   1.064   2.635  10.552 -0.4892 -0.8459  0.6220
 3162TIP3    H233682   0.963   2.608  10.443 -0.0517 -1.0704  0.2689
 3163TIP3   OH233683   1.687   4.892  10.873 -0.7995 -0.3855  0.3805
 3163TIP3    H133684   1.628   4.966  10.886 -0.5634 -0.4006  1.6205
 3163TIP3    H233685   1.760   4.929  10.822 -0.0464  0.6034  2.0821
 3164TIP3   OH233686   3.706   6.853  10.236  0.6052 -0.8694  0.1041
 3164TIP3    H133687   3.799   6.840  10.256  0.2158  0.5696  3.5419
 3164TIP3    H233688   3.665   6.769  10.257  1.0530 -1.5423 -1.5255
 3165TIP3   OH233689   7.327   0.373   8.757  0.1002 -0.5207  0.1229
 3165TIP3    H133690   7.259   0.337   8.700 -0.8856 -0.3070  1.1035
 3165TIP3    H233691   7.305   0.466   8.765  0.1882 -0.5580  0.8745
 3166TIP3   OH233692   1.029   2.860   9.182  0.9367 -0.3236 -0.4194
 3166TIP3    H133693   0.972   2.887   9.110 -1.6107 -1.4979  1.0139
 3166TIP3    H233694   1.039   2.938   9.235 -0.6377 -0.4098  0.0706
 3167TIP3   OH233695   2.134   2.599   9.796 -0.1914 -0.7527  0.4569
 3167TIP3    H133696   2.181   2.683   9.794  1.0441 -1.4114  0.7803
 3167TIP3    H233697   2.155   2.557   9.713 -0.5561 -0.8713  0.4248
 3168TIP3   OH233698   1.865   5.039  10.003  0.1335 -0.4478  0.5654
 3168TIP3    H133699   1.928   5.082  10.061  1.3971 -1.3034 -0.1129
 3168TIP3    H233700   1.834   4.964  10.054  1.8734 -1.6833 -0.0997
 3169TIP3   OH233701   2.670   3.802  10.816  0.7355  0.2638 -1.0501
 3169TIP3    H133702   2.589   3.799  10.866  1.1319 -2.4389 -0.4148
 3169TIP3    H233703   2.737   3.829  10.879  0.6387  0.5492 -1.0697
 3170TIP3   OH233704   0.590   5.462  10.419  0.0143 -0.1592 -0.5694
 3170TIP3    H133705   0.644   5.421  10.351  1.1479  0.4826 -0.0860
 3170TIP3    H233706   0.586   5.554  10.395  1.2824  0.2803  0.7286
 3171TIP3   OH233707   4.425   0.074  10.378 -0.1442  0.3817  0.4129
 3171TIP3    H133708   4.476   0.058  10.457 -1.8267 -0.2457  1.4077
 3171TIP3    H233709   4.337   0.092  10.409 -0.2077  3.3706 -1.1317
 3172TIP3   OH233710   6.455   7.620   9.015 -0.6128  1.1046 -0.4488
 3172TIP3    H133711   6.459   7.662   8.929  1.0874 -0.0113 -0.9386
 3172TIP3    H233712   6.531   7.654   9.062  0.0346 -0.3597 -0.3837
 3173TIP3   OH233713   6.730   5.720   9.083 -0.0494 -0.3182 -0.3621
 3173TIP3    H133714   6.637   5.701   9.083 -0.2400  0.4866 -1.8524
 3173TIP3    H233715   6.737   5.807   9.043  1.1837  0.5422  1.5123
 3174TIP3   OH233716   3.927   5.193   9.865  0.4584  0.6693  0.0835
 3174TIP3    H133717   3.894   5.283   9.876 -0.9282  0.0449  1.3875
 3174TIP3    H233718   4.011   5.194   9.911  0.5338  1.3417 -0.0529
 3175TIP3   OH233719   0.996   1.089   9.187 -0.3128 -0.0225 -0.0004
 3175TIP3    H133720   1.016   1.110   9.095 -0.8625 -1.2044 -0.4060
 3175TIP3    H233721   1.041   1.157   9.237 -0.3248  0.8688 -1.1599
 3176TIP3   OH233722   6.824   4.287   9.563  0.0800  0.1690 -0.6094
 3176TIP3    H133723   6.781   4.207   9.593 -0.5125  1.0841  1.1333
 3176TIP3    H233724   6.916   4.262   9.550  0.2018 -0.4933  1.2716
 3177TIP3   OH233725   2.055   3.986   8.988  0.2600  0.5571 -0.1889
 3177TIP3    H133726   2.092   3.971   8.901  0.3402  0.5740 -0.1588
 3177TIP3    H233727   1.961   3.982   8.976  0.2809 -0.8455 -0.0263
 3178TIP3   OH233728   0.120   2.469   9.223  0.5832 -0.0475  0.2038
 3178TIP3    H133729   0.040   2.519   9.237  0.1577 -0.5958 -0.2042
 3178TIP3    H233730   0.118   2.402   9.290  0.0415 -0.8470 -0.5830
 3179TIP3   OH233731   6.617   0.441   9.207  0.7294 -0.3213  0.2330
 3179TIP3    H133732   6.623   0.489   9.289  1.8774 -0.7568  0.4196
 3179TIP3    H233733   6.707   0.423   9.182  0.5071  1.2415 -2.0099
 3180TIP3   OH233734   4.242   2.311  10.257 -0.4757 -0.1927 -0.1263
 3180TIP3    H133735   4.155   2.331  10.222  0.4753 -1.1581 -3.3306
 3180TIP3    H233736   4.234   2.220  10.288 -0.2836 -0.7754 -1.7230
 3181TIP3   OH233737   5.861   6.083   8.897 -0.1583  0.0735 -0.0246
 3181TIP3    H133738   5.819   6.109   8.979 -2.0731 -1.0580 -0.5796
 3181TIP3    H233739   5.847   6.157   8.839  0.9053  0.7386  0.5359
 3182TIP3   OH233740   0.409   6.325   9.022 -0.6085  0.1882  0.0535
 3182TIP3    H133741   0.380   6.326   9.114  1.6771 -2.1738  0.9040
 3182TIP3    H233742   0.446   6.412   9.009 -0.7481  0.4920  1.4546
 3183TIP3   OH233743   3.435   6.265  10.306  0.0965 -0.0359 -0.1474
 3183TIP3    H133744   3.368   6.330  10.286  0.4782  1.1513  2.0620
 3183TIP3    H233745   3.399   6.216  10.381  0.0477 -2.0711 -1.4197
 3184TIP3   OH233746   3.936   6.247   9.960 -0.2117 -1.1464 -0.2416
 3184TIP3    H133747   3.948   6.300  10.039 -1.4351 -0.6146 -0.4025
 3184TIP3    H233748   3.966   6.302   9.888  0.3735 -1.4255 -0.2231
 3185TIP3   OH233749   0.083   0.308   9.070 -0.0532  0.0367 -0.3964
 3185TIP3    H133750   0.164   0.319   9.119  0.1222 -0.6756 -0.5221
 3185TIP3    H233751   0.090   0.223   9.029 -0.4621  0.3686 -1.1824
 3186TIP3   OH233752   7.120   0.771   9.838  0.2721  0.1763 -0.8731
 3186TIP3    H133753   7.088   0.833   9.904  2.3259 -0.0209  0.3832
 3186TIP3    H233754   7.041   0.723   9.811 -0.7515  0.7417  0.9248
 3187TIP3   OH233755   4.655   2.713  10.777 -0.6036  0.4791 -0.2745
 3187TIP3    H133756   4.623   2.762  10.702 -1.2500 -0.0554 -0.3592
 3187TIP3    H233757   4.587   2.648  10.794  0.2993 -0.4807 -0.2552
 3188TIP3   OH233758   4.178   4.517   9.241  0.3995  0.4155  0.1677
 3188TIP3    H133759   4.190   4.484   9.151  1.0124 -1.0976  0.7585
 3188TIP3    H233760   4.266   4.511   9.279 -0.3322 -1.7083  1.7125
 3189TIP3   OH233761   0.232   6.134  10.369  0.4535  0.2113  0.1079
 3189TIP3    H133762   0.296   6.116  10.439  0.0490 -0.7951  0.2307
 3189TIP3    H233763   0.182   6.209  10.402 -0.1915 -0.6764  1.2416
 3190TIP3   OH233764   3.779   2.052  10.876  0.3295 -1.1452 -0.2148
 3190TIP3    H133765   3.792   2.120  10.810  1.0472 -0.3987  0.6725
 3190TIP3    H233766   3.790   1.970  10.827  2.2862 -0.6024 -0.7926
 3191TIP3   OH233767   5.015   2.277  10.903  0.9386  0.1492 -0.0782
 3191TIP3    H133768   5.013   2.340  10.831 -1.2454  0.6421  0.3554
 3191TIP3    H233769   5.074   2.316  10.967  2.2886  0.0802 -1.2084
 3192TIP3   OH233770   4.447   0.058   9.380  0.2504 -0.6607 -0.0991
 3192TIP3    H133771   4.433  -0.007   9.449 -2.2205  0.8208  0.9713
 3192TIP3    H233772   4.413   0.140   9.418  0.4137  0.5923 -2.4602
 3193TIP3   OH233773   0.286   5.318   9.107  0.6569 -0.2504 -0.1249
 3193TIP3    H133774   0.298   5.401   9.153  1.5442 -0.2357 -0.3725
 3193TIP3    H233775   0.369   5.273   9.117 -0.0440 -1.4471  0.6483
 3194TIP3   OH233776   4.484   2.953  10.652 -0.3491  0.2947  0.3815
 3194TIP3    H133777   4.553   3.004  10.693 -0.4915 -0.0667  1.0938
 3194TIP3    H233778   4.429   2.924  10.725 -1.6194  1.1024 -0.2101
 3195TIP3   OH233779   1.864   7.502  19.127  0.2269 -0.0590 -0.1034
 3195TIP3    H133780   1.810   7.567  19.171  1.1823  1.4179 -1.0000
 3195TIP3    H233781   1.821   7.488  19.043  1.2596  1.2772 -0.9078
 3196TIP3   OH233782   5.138   3.710   8.763  0.2380  0.1279 -0.8844
 3196TIP3    H133783   5.215   3.766   8.761  1.0861 -0.9476 -0.1130
 3196TIP3    H233784   5.147   3.660   8.844 -2.1106  1.0846  0.0766
 3197TIP3   OH233785   4.102   1.794  11.014  0.3210  0.4484  0.3680
 3197TIP3    H133786   4.187   1.778  11.056  0.2494  0.2783  0.4457
 3197TIP3    H233787   4.124   1.823  10.925  0.4683  0.6558  0.4703
 3198TIP3   OH233788   0.369   2.468  11.176  0.1926 -0.0039  0.3845
 3198TIP3    H133789   0.381   2.398  11.241 -0.4204  0.4283  0.9799
 3198TIP3    H233790   0.351   2.546  11.228  1.4794  0.7418 -0.2598
 3199TIP3   OH233791   4.993   2.767  10.149  0.1148 -0.0244  0.4083
 3199TIP3    H133792   5.010   2.790  10.058 -0.0391 -1.1099  0.0886
 3199TIP3    H233793   4.900   2.743  10.151  0.3954 -1.1799  0.5750
 3200TIP3   OH233794   0.923   3.822   8.880 -0.7357 -0.0726  0.0334
 3200TIP3    H133795   0.856   3.771   8.834  0.4335 -0.8106 -0.9162
 3200TIP3    H233796   0.887   3.910   8.884 -0.8933  0.0481 -2.4182
 3201TIP3   OH233797   3.945   0.078  11.267  0.6051  0.0672 -0.1420
 3201TIP3    H133798   3.932   0.066  11.361 -0.3734  0.3381 -0.2331
 3201TIP3    H233799   3.861   0.057  11.227  0.1029  2.7460 -0.6870
 3202TIP3   OH233800   1.012   6.554   8.651  0.5231 -0.0075 -0.0875
 3202TIP3    H133801   0.979   6.467   8.628  1.0324 -0.6534  1.4910
 3202TIP3    H233802   1.107   6.547   8.643  0.5179  0.7677 -1.0614
 3203TIP3   OH233803   3.569   4.685   8.834 -0.0572 -0.4658 -0.0047
 3203TIP3    H133804   3.503   4.649   8.774 -0.7665 -0.8213  0.9598
 3203TIP3    H233805   3.596   4.611   8.888 -1.2804  0.3096  1.7751
 3204TIP3   OH233806   4.122   7.655   9.317  0.0366 -0.0767 -0.0729
 3204TIP3    H133807   4.061   7.633   9.247 -1.0777 -0.6151  1.0363
 3204TIP3    H233808   4.110   7.749   9.331  0.6013  0.1286 -0.8976
 3205TIP3   OH233809   4.702   3.528   8.903 -0.2595 -0.0647  0.1166
 3205TIP3    H133810   4.778   3.490   8.861 -0.4504 -0.2956 -0.0232
 3205TIP3    H233811   4.693   3.615   8.865  1.0319  0.6992  1.4741
 3206TIP3   OH233812   2.528   3.841   9.225  0.3707  0.0799 -0.2694
 3206TIP3    H133813   2.461   3.906   9.249  0.2725  0.1482 -0.7221
 3206TIP3    H233814   2.600   3.894   9.192 -0.1847 -0.0840 -1.8177
 3207TIP3   OH233815   0.631   7.194  10.767 -0.1111  0.6318  0.0224
 3207TIP3    H133816   0.632   7.278  10.721 -2.9901  0.5187 -0.3850
 3207TIP3    H233817   0.623   7.129  10.697 -2.1111  0.3181  0.4977
 3208TIP3   OH233818   3.550   3.582   9.181 -0.2560  0.4790 -0.0362
 3208TIP3    H133819   3.620   3.594   9.246  1.4658 -0.9158 -1.5150
 3208TIP3    H233820   3.575   3.638   9.108 -0.5596 -0.1881 -0.6688
 3209TIP3   OH233821   2.487   0.935  10.328 -0.0344  0.3071 -0.3724
 3209TIP3    H133822   2.486   0.847  10.367  0.6522  0.4801  0.0675
 3209TIP3    H233823   2.567   0.975  10.363  0.8601  0.3300 -2.3180
 3210TIP3   OH233824   3.236   3.703  10.993  0.0928 -0.0608  0.9981
 3210TIP3    H133825   3.258   3.795  10.984  0.3422 -0.1667  0.5100
 3210TIP3    H233826   3.296   3.670  11.059 -0.9896  0.4617  2.2864
 3211TIP3   OH233827   1.970   7.494   9.144  0.1390  0.1687  0.2714
 3211TIP3    H133828   1.987   7.458   9.231 -0.5621 -0.4905  0.1494
 3211TIP3    H233829   1.922   7.575   9.161  0.6463  0.4222  0.5159
 3212TIP3   OH233830   5.476   7.303  10.546  0.3119  1.0971  0.0885
 3212TIP3    H133831   5.561   7.324  10.586  1.1173 -0.7798 -0.4918
 3212TIP3    H233832   5.451   7.382  10.500  2.3819  1.3459 -0.7290
 3213TIP3   OH233833   5.028   4.663  10.433  1.1643  0.1282  0.5967
 3213TIP3    H133834   4.970   4.650  10.508 -0.3630 -1.3148 -0.7441
 3213TIP3    H233835   4.973   4.708  10.369  1.4907 -1.2906 -0.7238
 3214TIP3   OH233836   3.926   2.922  11.263 -0.4587 -0.4381  0.3190
 3214TIP3    H133837   3.841   2.946  11.301 -1.3088 -1.0569 -1.1283
 3214TIP3    H233838   3.911   2.837  11.223  0.4771  0.0494 -1.1358
 3215TIP3   OH233839   6.368   2.772  11.221  0.5585 -0.0024 -0.3398
 3215TIP3    H133840   6.376   2.792  11.314  0.5948  2.1234 -0.7573
 3215TIP3    H233841   6.274   2.765  11.205  0.4283  1.8046 -0.5242
 3216TIP3   OH233842   4.243   7.296   9.975  0.7101 -0.0373 -0.1938
 3216TIP3    H133843   4.270   7.266   9.888  0.5601 -0.6684 -0.0286
 3216TIP3    H233844   4.226   7.216  10.024  0.9997  0.3074  0.4881
 3217TIP3   OH233845   1.924   0.478   8.259  0.0499  0.3129 -0.1242
 3217TIP3    H133846   1.969   0.558   8.231  1.1060 -0.6184 -1.1851
 3217TIP3    H233847   1.901   0.434   8.178 -3.2480  0.9354  0.3362
 3218TIP3   OH233848   6.576   5.448  10.341  0.1154  0.0276 -0.5167
 3218TIP3    H133849   6.528   5.518  10.297 -1.1686 -0.6845 -0.2975
 3218TIP3    H233850   6.589   5.382  10.273 -4.1651 -2.2570  0.5586
 3219TIP3   OH233851   2.962   4.656  11.023 -0.3088  0.0019  0.1032
 3219TIP3    H133852   2.898   4.602  11.071 -1.7315  0.9774 -0.6384
 3219TIP3    H233853   2.931   4.746  11.036  0.5915  0.4424 -0.7645
 3220TIP3   OH233854   0.403   4.227   9.921 -0.0319 -0.2274 -0.1472
 3220TIP3    H133855   0.360   4.201  10.002 -1.4752  1.3435 -0.3236
 3220TIP3    H233856   0.494   4.201   9.931 -0.1729 -0.0412  1.9867
 3221TIP3   OH233857   4.079   5.413  10.214  0.4151  0.3086 -0.5156
 3221TIP3    H133858   4.152   5.392  10.273 -0.2451 -1.5901 -0.2886
 3221TIP3    H233859   4.048   5.498  10.244  0.4038 -0.3670  1.6104
 3222TIP3   OH233860   4.367   7.453  10.302 -0.1510 -0.2745  0.6942
 3222TIP3    H133861   4.302   7.410  10.357 -2.6754  1.0024 -1.1193
 3222TIP3    H233862   4.318   7.485  10.227  2.6224  0.7134 -0.8413
 3223TIP3   OH233863   4.139   5.727  11.050 -0.5208  0.2089  0.0631
 3223TIP3    H133864   4.137   5.649  11.106  0.2729 -0.3835 -0.7046
 3223TIP3    H233865   4.232   5.745  11.037 -0.6948  0.7270 -0.5306
 3224TIP3   OH233866   1.120   2.935   9.874 -0.6885 -0.2370  0.4963
 3224TIP3    H133867   1.105   2.886   9.955 -2.2839 -0.0685  0.3445
 3224TIP3    H233868   1.034   2.971   9.852 -0.1424  0.2731 -0.9170
 3225TIP3   OH233869   5.881   6.123   8.551 -0.3419 -0.0109  0.2261
 3225TIP3    H133870   5.967   6.152   8.519  0.6016 -0.5571  2.0569
 3225TIP3    H233871   5.851   6.195   8.606 -0.9957  0.1215 -0.3046
 3226TIP3   OH233872   2.750   5.432  10.072  0.2922  0.0881  0.2784
 3226TIP3    H133873   2.758   5.409  10.165 -0.0256  0.3508  0.3750
 3226TIP3    H233874   2.776   5.353  10.025 -0.0347 -0.2141  0.5964
 3227TIP3   OH233875   3.768   2.824   9.635  0.1389 -0.4216  0.1833
 3227TIP3    H133876   3.687   2.805   9.587 -0.5389  0.5882  0.9065
 3227TIP3    H233877   3.792   2.912   9.608  0.2723 -0.2111  0.9829
 3228TIP3   OH233878   5.360   3.622  10.141  0.5355  0.0262  0.5302
 3228TIP3    H133879   5.368   3.701  10.194 -0.7770  0.6059 -0.0860
 3228TIP3    H233880   5.270   3.592  10.156  0.8776 -1.0924  0.4075
 3229TIP3   OH233881   0.731   6.823  10.682 -0.2894 -0.3045  0.0132
 3229TIP3    H133882   0.707   6.894  10.622 -1.6570 -0.6527  0.1197
 3229TIP3    H233883   0.800   6.860  10.736 -0.7114  0.8276 -0.1933
 3230TIP3   OH233884   4.507   4.686  10.019  0.3948  0.2028 -0.7680
 3230TIP3    H133885   4.422   4.643  10.017  0.5848 -0.1491 -1.7318
 3230TIP3    H233886   4.487   4.779  10.031  0.0116 -0.1777  2.4588
 3231TIP3   OH233887   4.602   6.465   9.401 -0.2259 -0.2818 -0.7114
 3231TIP3    H133888   4.638   6.549   9.428 -0.9160 -0.0726 -0.4126
 3231TIP3    H233889   4.624   6.458   9.308  0.1523  0.0623 -0.6472
 3232TIP3   OH233890   6.747   3.872   8.128  0.7075 -0.5172 -0.5342
 3232TIP3    H133891   6.840   3.858   8.146  0.0850 -3.4518  0.9844
 3232TIP3    H233892   6.726   3.806   8.062 -0.2388  0.4058 -1.1764
 3233TIP3   OH233893   2.614   4.653  10.031  0.3160 -0.4093 -0.2215
 3233TIP3    H133894   2.523   4.653  10.004  0.3086  2.5721 -0.5211
 3233TIP3    H233895   2.664   4.641   9.950  0.2136 -1.0575 -0.1920
 3234TIP3   OH233896   6.637   0.410  10.358  0.0574  0.1661  0.2589
 3234TIP3    H133897   6.595   0.324  10.363  3.5237 -1.6815  1.1115
 3234TIP3    H233898   6.667   0.426  10.447  3.3445 -0.0204 -0.6796
 3235TIP3   OH233899   5.067   1.348   9.194 -0.1560  0.8017 -0.9671
 3235TIP3    H133900   5.149   1.398   9.198  0.1095  0.9457 -4.7167
 3235TIP3    H233901   4.999   1.414   9.180 -0.8721  0.6092  1.2965
 3236TIP3   OH233902   5.121   6.311   8.647 -0.0628  0.0716  0.5244
 3236TIP3    H133903   5.117   6.404   8.625  1.5834 -0.2050 -1.1415
 3236TIP3    H233904   5.031   6.288   8.671 -0.5788  1.9680  0.5666
 3237TIP3   OH233905   1.757   6.255   9.554 -0.8140  0.0073  0.1760
 3237TIP3    H133906   1.741   6.217   9.468  0.4924 -0.0859 -0.0541
 3237TIP3    H233907   1.675   6.298   9.578 -1.8628 -1.6823 -0.2066
 3238TIP3   OH233908   0.357   4.335  10.734  0.1387  0.6717 -0.3685
 3238TIP3    H133909   0.431   4.281  10.762  0.8424  2.0528  0.5505
 3238TIP3    H233910   0.308   4.279  10.674 -0.4436 -1.8277  2.2244
 3239TIP3   OH233911   3.137   2.226   9.313  0.3610  0.2879 -0.3499
 3239TIP3    H133912   3.058   2.265   9.274  1.0345  2.1159  0.0094
 3239TIP3    H233913   3.193   2.207   9.238  0.2623  0.5906 -0.5065
 3240TIP3   OH233914   3.511   0.193   8.781  0.3281 -0.0520  0.3230
 3240TIP3    H133915   3.452   0.144   8.725  0.1702  1.4961 -0.9102
 3240TIP3    H233916   3.489   0.164   8.870 -2.8010  0.9647 -0.0152
 3241TIP3   OH233917   2.524   2.175   8.995  0.0241  0.0386 -0.8510
 3241TIP3    H133918   2.608   2.137   8.969  0.0342 -0.5410  0.0222
 3241TIP3    H233919   2.482   2.108   9.048  0.1237  1.2669  0.8780
 3242TIP3   OH233920   1.672   4.100  11.097 -0.3489 -0.6702 -0.3805
 3242TIP3    H133921   1.734   4.032  11.122 -0.6184 -0.5729  0.5853
 3242TIP3    H233922   1.592   4.052  11.074 -0.6576 -0.6679  0.6604
 3243TIP3   OH233923   7.280   2.434   9.535  0.7457 -0.4600  0.1658
 3243TIP3    H133924   7.291   2.524   9.504  2.0597  0.0059  1.7794
 3243TIP3    H233925   7.202   2.436   9.590  1.1562 -0.1116  0.7512
 3244TIP3   OH233926   0.742   7.463  10.668  0.0807 -0.1811 -0.7980
 3244TIP3    H133927   0.709   7.535  10.721 -1.7196  0.0699 -2.1566
 3244TIP3    H233928   0.813   7.425  10.720 -0.0993  1.4524  0.7245
 3245TIP3   OH233929   0.253   2.507   9.644  0.5877 -0.5398  0.2867
 3245TIP3    H133930   0.223   2.482   9.731 -0.9716  0.0362 -0.0561
 3245TIP3    H233931   0.309   2.434   9.616 -0.8593 -1.8954  0.7869
 3246TIP3   OH233932   1.258   5.080  10.735 -0.0696 -0.2156  0.3869
 3246TIP3    H133933   1.208   5.047  10.661 -2.2764 -1.4873  2.3269
 3246TIP3    H233934   1.193   5.120  10.793  1.6881  1.5472  1.2863
 3247TIP3   OH233935   7.629   0.020  10.764  0.1552  0.2902  0.0945
 3247TIP3    H133936   7.647   0.111  10.741  1.5020  0.0298  0.0580
 3247TIP3    H233937   7.564  -0.009  10.700 -0.8058  1.4100  0.5261
 3248TIP3   OH233938   5.423   3.783   9.032 -0.1421 -0.1521 -0.0675
 3248TIP3    H133939   5.357   3.715   9.046 -0.7333  0.1000 -1.5203
 3248TIP3    H233940   5.387   3.838   8.963  0.3789  1.5947  0.9867
 3249TIP3   OH233941   3.828   1.139  10.957  0.0317  0.3606  0.4800
 3249TIP3    H133942   3.882   1.174  10.886  0.0828  0.9006  0.7762
 3249TIP3    H233943   3.776   1.214  10.986  1.8048  0.8574  2.6978
 3250TIP3   OH233944   7.205   6.209  10.246 -0.2354 -0.0003 -0.5319
 3250TIP3    H133945   7.174   6.221  10.156 -1.1629 -1.2706 -0.4189
 3250TIP3    H233946   7.267   6.136  10.241 -0.6438 -0.3860 -0.0803
 3251TIP3   OH233947   6.863   0.678  10.112 -0.0491 -0.2459  0.2075
 3251TIP3    H133948   6.909   0.596  10.129  0.5058  0.4940  2.6653
 3251TIP3    H233949   6.773   0.662  10.142 -0.2378 -0.2688 -0.3468
 3252TIP3   OH233950   4.220   2.956  10.523 -0.5458 -0.0727 -0.2506
 3252TIP3    H133951   4.305   2.928  10.555 -0.0349  1.0243 -0.5988
 3252TIP3    H233952   4.184   2.878  10.479 -0.8669 -1.3292  2.0913
 3253TIP3   OH233953   5.627   2.457  10.688  0.3512 -0.4214 -0.2324
 3253TIP3    H133954   5.667   2.403  10.756  0.0270 -1.4378 -0.8340
 3253TIP3    H233955   5.533   2.442  10.697  0.2336  0.2856 -0.2128
 3254TIP3   OH233956   4.816   6.964   9.197 -0.0709 -0.0044  0.0038
 3254TIP3    H133957   4.791   6.886   9.146 -1.1397  0.4473 -0.1954
 3254TIP3    H233958   4.788   7.037   9.142 -0.3534  0.5007  0.8148
 3255TIP3   OH233959   3.601   7.331   9.703 -0.1724  0.1554  0.2060
 3255TIP3    H133960   3.641   7.252   9.739 -0.6728 -0.3270 -0.2709
 3255TIP3    H233961   3.568   7.304   9.617 -1.0638  0.6705  0.3710
 3256TIP3   OH233962   5.103   5.260  10.607  1.1090  0.3160 -0.2819
 3256TIP3    H133963   5.023   5.251  10.557  1.8267  0.6666 -1.5301
 3256TIP3    H233964   5.076   5.247  10.698 -0.5707  1.6483 -0.5417
 3257TIP3   OH233965   4.585   5.451   8.924  0.3675 -0.4284  0.0485
 3257TIP3    H133966   4.619   5.458   9.013  0.6160 -0.2605 -0.0574
 3257TIP3    H233967   4.622   5.526   8.878  0.6985 -0.8152 -0.3410
 3258TIP3   OH233968   5.344   4.308  10.635  0.2038 -0.1115  0.2552
 3258TIP3    H133969   5.339   4.325  10.729  0.3629  1.3319  0.0182
 3258TIP3    H233970   5.419   4.248  10.626  1.2398  1.0553  0.8951
 3259TIP3   OH233971   1.838   5.806  10.433 -0.4880 -0.4097 -0.5023
 3259TIP3    H133972   1.923   5.764  10.423 -0.0223  0.2087  0.6964
 3259TIP3    H233973   1.775   5.741  10.400  0.3283 -1.5002  0.0119
 3260TIP3   OH233974   4.169   5.907   9.311  0.2924  0.1412  0.2200
 3260TIP3    H133975   4.153   5.868   9.224 -1.0593  2.0801 -0.4688
 3260TIP3    H233976   4.259   5.939   9.306 -0.1268  1.2526 -0.9399
 3261TIP3   OH233977   2.433   0.117   8.755 -0.2613  0.2210 -0.1844
 3261TIP3    H133978   2.397   0.167   8.828 -0.2826 -0.4702  0.2893
 3261TIP3    H233979   2.526   0.105   8.778 -0.1371  0.4923 -0.5476
 3262TIP3   OH233980   7.476   6.932   8.398  0.5502  0.4914  0.2253
 3262TIP3    H133981   7.571   6.922   8.397  0.6417  1.3423  0.0182
 3262TIP3    H233982   7.461   7.025   8.385 -0.2984  0.4872  1.0330
 3263TIP3   OH233983   5.185   6.256   9.140  0.4002  0.2198 -0.7205
 3263TIP3    H133984   5.174   6.297   9.055  0.7280  1.5922 -0.1272
 3263TIP3    H233985   5.096   6.236   9.169  0.3564 -2.0848 -2.1939
 3264TIP3   OH233986   3.430   4.614   9.790 -0.4646 -0.3231 -0.6693
 3264TIP3    H133987   3.493   4.565   9.844  1.4036 -0.1055 -2.5297
 3264TIP3    H233988   3.465   4.702   9.786 -1.5630  0.1221 -0.7859
 3265TIP3   OH233989   4.804   7.289  10.123  0.1395  0.2287  0.2969
 3265TIP3    H133990   4.826   7.197  10.110 -1.0720  0.0441 -0.6091
 3265TIP3    H233991   4.708   7.291  10.125  0.1164  1.5642 -0.5606
 3266TIP3   OH233992   2.323   5.305   9.378 -0.1918 -0.1608 -0.2418
 3266TIP3    H133993   2.280   5.263   9.304 -1.8896 -2.4942  1.9144
 3266TIP3    H233994   2.257   5.363   9.414 -0.6727 -1.7069  1.4765
 3267TIP3   OH233995   1.414   5.907  10.532 -0.4656  0.3078 -0.5976
 3267TIP3    H133996   1.437   5.814  10.529  0.1291  0.4323 -0.1172
 3267TIP3    H233997   1.489   5.949  10.574  0.0675  1.2563 -2.4068
 3268TIP3   OH233998   2.547   3.405   8.585 -0.6254  0.1944 -0.0781
 3268TIP3    H133999   2.479   3.392   8.651 -0.9945 -0.3210 -0.5520
 3268TIP3    H234000   2.501   3.395   8.502 -0.0480  0.2576 -0.4068
 3269TIP3   OH234001   4.760   4.680  10.821 -0.2919 -0.2116 -0.0861
 3269TIP3    H134002   4.769   4.602  10.766 -2.1133 -1.5236  1.3736
 3269TIP3    H234003   4.674   4.672  10.860  0.5769  1.1325  2.2787
 3270TIP3   OH234004   3.759   7.203  11.355 -0.2080 -0.2424  0.7672
 3270TIP3    H134005   3.751   7.296  11.379 -0.2893  0.0377 -0.3038
 3270TIP3    H234006   3.850   7.180  11.376 -0.0014  0.2617  0.4424
 3271TIP3   OH234007   3.330   0.123   9.018 -0.1684  0.4827 -0.6931
 3271TIP3    H134008   3.315   0.030   9.002 -1.7679  0.6530 -0.3200
 3271TIP3    H234009   3.363   0.127   9.108  0.2319  0.2554 -0.8282
 3272TIP3   OH234010   2.970   2.382   9.151 -0.3745  0.1116 -0.6134
 3272TIP3    H134011   2.988   2.376   9.058  0.5104  0.7385 -0.4971
 3272TIP3    H234012   3.037   2.442   9.185  0.2519 -1.2458  0.6770
 3273TIP3   OH234013   5.620   7.022   9.653  0.4639  0.3015 -0.4932
 3273TIP3    H134014   5.602   7.074   9.575 -2.3839  0.2250  0.0120
 3273TIP3    H234015   5.624   7.086   9.724  1.6602  0.2316 -0.4754
 3274TIP3   OH234016   6.843   2.825  11.177 -0.0593 -0.2433  0.5470
 3274TIP3    H134017   6.874   2.805  11.265 -1.2208  0.5424  1.1683
 3274TIP3    H234018   6.907   2.888  11.143  0.9300 -1.2799  0.4288
 3275TIP3   OH234019   1.875   6.883   9.189  0.4120  0.4555  0.8372
 3275TIP3    H134020   1.831   6.829   9.255 -0.7776  1.0216  0.5340
 3275TIP3    H234021   1.879   6.827   9.111  3.2873 -0.8224  1.7762
 3276TIP3   OH234022   5.922   2.597  11.147  0.4428  0.1557 -0.1005
 3276TIP3    H134023   5.924   2.661  11.075 -1.8403  0.8298  0.3590
 3276TIP3    H234024   5.995   2.623  11.203  1.3867  0.4956 -1.4343
 3277TIP3   OH234025   6.883   5.058  10.636 -0.1855 -0.4919 -0.5433
 3277TIP3    H134026   6.913   5.125  10.574 -1.9622 -1.2679 -2.3483
 3277TIP3    H234027   6.788   5.061  10.632 -0.5941  1.0398  4.0476
 3278TIP3   OH234028   7.217   1.870  11.158  0.1442  0.1089 -0.0911
 3278TIP3    H134029   7.214   1.905  11.247  0.5715  0.5982 -0.2647
 3278TIP3    H234030   7.310   1.866  11.136  0.1407 -1.4276  0.0233
 3279TIP3   OH234031   1.577   1.184   8.790  0.6571  0.1583  0.1005
 3279TIP3    H134032   1.661   1.207   8.829  0.8437 -0.7436  0.2422
 3279TIP3    H234033   1.570   1.241   8.713  1.2140  0.5055  0.3030
 3280TIP3   OH234034   2.151   3.787  10.380 -0.2138  0.0542  0.0792
 3280TIP3    H134035   2.184   3.862  10.429  0.5697 -0.1877 -0.0540
 3280TIP3    H234036   2.064   3.772  10.414 -0.5537  1.2873 -0.1843
 3281TIP3   OH234037   1.085   5.019  10.511 -0.0525  0.5940 -0.1433
 3281TIP3    H134038   1.111   5.073  10.437 -1.1073  1.1880 -0.1011
 3281TIP3    H234039   0.991   5.007  10.500 -0.1076  0.1222  0.7353
 3282TIP3   OH234040   5.624   1.253   9.670  0.1423  0.5545  0.3686
 3282TIP3    H134041   5.650   1.223   9.758  0.8350 -1.7384 -0.5359
 3282TIP3    H234042   5.707   1.263   9.623 -0.2771  0.4194 -0.4150
 3283TIP3   OH234043   4.335   1.063  10.009  0.2707  0.0529 -0.0369
 3283TIP3    H134044   4.425   1.031  10.023 -0.0031 -0.8528 -0.3041
 3283TIP3    H234045   4.284   0.984   9.991 -0.4438  0.6421 -0.6422
 3284TIP3   OH234046   4.767   4.039   9.326  0.5624 -0.0576  0.3445
 3284TIP3    H134047   4.689   3.984   9.318  0.3665  0.2438  0.1414
 3284TIP3    H234048   4.767   4.068   9.417 -0.2785  0.9737  0.0423
 3285TIP3   OH234049   1.518   4.576  10.344 -0.0752  0.0810  0.0402
 3285TIP3    H134050   1.431   4.537  10.332  0.4658 -1.0564 -0.3161
 3285TIP3    H234051   1.500   4.666  10.372 -1.3524 -0.6987  1.8677
 3286TIP3   OH234052   6.915   1.987   9.153  0.3080  0.6937  0.2335
 3286TIP3    H134053   6.821   1.968   9.164 -0.1557  1.0888 -2.3430
 3286TIP3    H234054   6.944   2.016   9.240 -2.1796  1.4395  0.9098
 3287TIP3   OH234055   0.659   0.521  10.209 -0.2485  0.0425  0.4009
 3287TIP3    H134056   0.585   0.557  10.159  0.0819 -1.2245 -1.0692
 3287TIP3    H234057   0.618   0.463  10.273 -0.5797  0.1999  0.3347
 3288TIP3   OH234058   0.820   2.705   9.716 -0.4132 -0.2530  0.2067
 3288TIP3    H134059   0.894   2.756   9.683 -0.1724 -1.4839 -1.2469
 3288TIP3    H234060   0.858   2.648   9.783 -0.9756  2.5530  3.1963
 3289TIP3   OH234061   7.217   6.912  10.940  0.7029  0.3074 -0.3253
 3289TIP3    H134062   7.216   7.008  10.932 -0.7854  0.6057  2.2408
 3289TIP3    H234063   7.258   6.896  11.025  0.7445 -1.3462 -0.6283
 3290TIP3   OH234064   5.695   4.116   8.431  0.2959 -0.3051  0.1349
 3290TIP3    H134065   5.761   4.184   8.423  0.2031 -0.2721 -0.3606
 3290TIP3    H234066   5.670   4.095   8.341  3.2749 -3.8875 -0.1167
 3291TIP3   OH234067   1.707   1.656  10.843  0.1057 -0.1569 -0.1883
 3291TIP3    H134068   1.722   1.642  10.750 -0.2883 -1.3289 -0.0894
 3291TIP3    H234069   1.713   1.751  10.854  2.1719 -0.1511 -1.0425
 3292TIP3   OH234070   1.009   7.362  10.666  0.7871  0.1925 -0.6413
 3292TIP3    H134071   1.076   7.300  10.695 -0.6133 -1.2529 -0.3396
 3292TIP3    H234072   0.991   7.338  10.575  0.7294  0.6103 -0.7419
 3293TIP3   OH234073   1.912   4.577   9.622  0.2784  0.3258 -0.0485
 3293TIP3    H134074   1.894   4.503   9.564 -1.5486  0.6626  0.0083
 3293TIP3    H234075   1.888   4.654   9.569 -1.1513  0.6537  1.0007
 3294TIP3   OH234076   6.795   4.645   8.513 -0.0097  1.0365  0.3039
 3294TIP3    H134077   6.761   4.714   8.456  1.4723  1.6382  0.1043
 3294TIP3    H234078   6.817   4.574   8.453 -1.3063  0.4457  0.4846
 3295TIP3   OH234079   4.206   1.831  10.172  0.0560  0.7953  0.1249
 3295TIP3    H134080   4.117   1.805  10.195  0.0431  0.1033 -0.6641
 3295TIP3    H234081   4.257   1.750  10.178  0.4538  1.0124 -0.2760
 3296TIP3   OH234082   6.474   2.361   9.756 -0.2554  0.6050  0.0907
 3296TIP3    H134083   6.395   2.383   9.806 -0.0212  0.5449  0.4878
 3296TIP3    H234084   6.546   2.401   9.805  0.0702 -0.2119  0.2930
 3297TIP3   OH234085   5.905   3.646   9.232  0.1459 -0.0976  0.0571
 3297TIP3    H134086   5.994   3.612   9.238  0.0146 -0.7298 -1.2255
 3297TIP3    H234087   5.906   3.726   9.286  1.1008 -0.8293  1.1661
 3298TIP3   OH234088   6.737   5.948   8.928  0.8376 -0.9103 -0.3667
 3298TIP3    H134089   6.673   6.014   8.953 -1.6558 -3.0096 -0.7830
 3298TIP3    H234090   6.817   5.997   8.910 -0.6005  1.8401  0.3063
 3299TIP3   OH234091   3.935   2.915   9.175  0.1606  0.4678  0.0735
 3299TIP3    H134092   3.998   2.986   9.165  1.3413 -0.6225 -0.4912
 3299TIP3    H234093   3.850   2.959   9.179  0.8450  1.8937 -0.3913
 3300TIP3   OH234094   2.057   4.441  10.872  0.2538 -0.3683 -0.0304
 3300TIP3    H134095   2.001   4.390  10.931  0.7247 -1.0377 -0.1544
 3300TIP3    H234096   2.020   4.529  10.875 -0.6036 -0.7206  0.1456
 3301TIP3   OH234097   1.583   3.001   8.840 -0.0291  0.3081  0.0181
 3301TIP3    H134098   1.559   2.942   8.769  0.0989  0.9515 -0.5608
 3301TIP3    H234099   1.587   3.087   8.800 -0.4950  0.7638  0.9139
 3302TIP3   OH234100   5.429   0.690  10.486  0.8529 -0.0314  0.2660
 3302TIP3    H134101   5.466   0.631  10.420 -3.0478 -1.7806 -0.6455
 3302TIP3    H234102   5.399   0.766  10.436 -0.6611 -0.6397  0.1935
 3303TIP3   OH234103   0.600   0.194   9.475 -0.1309  0.4017  0.0405
 3303TIP3    H134104   0.592   0.245   9.555 -0.3330  1.2899 -0.5243
 3303TIP3    H234105   0.692   0.168   9.472 -0.1098  0.4161  0.5249
 3304TIP3   OH234106   7.302   4.247   9.802  0.2288  1.0017 -0.0980
 3304TIP3    H134107   7.385   4.216   9.764 -0.5457  0.3471 -1.3123
 3304TIP3    H234108   7.261   4.297   9.732 -0.0424  2.0590  0.7810
 3305TIP3   OH234109   7.008   6.502   9.671  0.4811 -0.1412 -0.3396
 3305TIP3    H134110   7.103   6.490   9.661  0.6309 -0.9453  1.5551
 3305TIP3    H234111   6.971   6.415   9.655  0.3343 -0.4011  1.2215
 3306TIP3   OH234112   6.992   7.546   9.808 -0.1369  0.7048  0.2766
 3306TIP3    H134113   6.994   7.603   9.731 -0.6608  0.0493 -0.2353
 3306TIP3    H234114   6.921   7.484   9.790 -1.7058  1.8319  2.2126
 3307TIP3   OH234115   3.316   1.802  10.898  0.4136  0.0670 -0.1226
 3307TIP3    H134116   3.289   1.894  10.906 -2.7889 -0.8912  2.0406
 3307TIP3    H234117   3.377   1.788  10.970  2.2925  0.8014 -1.4798
 3308TIP3   OH234118   3.621   6.747  10.586  0.3280  0.6272  0.1576
 3308TIP3    H134119   3.675   6.681  10.630 -1.9517 -2.2820 -1.0804
 3308TIP3    H234120   3.554   6.769  10.651 -0.7709 -0.7595 -0.4585
 3309TIP3   OH234121   4.456   1.794  10.636 -0.5450 -0.2111  0.0857
 3309TIP3    H134122   4.372   1.829  10.607  0.1251  0.1239 -1.5800
 3309TIP3    H234123   4.440   1.764  10.726 -2.5374 -0.5497 -0.3298
 3310TIP3   OH234124   6.318   3.159   9.780  0.1474  0.0936 -0.3485
 3310TIP3    H134125   6.322   3.115   9.695  0.0654  0.6171 -0.6282
 3310TIP3    H234126   6.235   3.130   9.818 -0.2869  0.6142 -0.8758
 3311TIP3   OH234127   6.800   4.445  10.648  0.0117 -0.0733  0.0061
 3311TIP3    H134128   6.725   4.387  10.633  0.4505 -0.8106  0.5905
 3311TIP3    H234129   6.793   4.511  10.579 -0.3542 -0.9625 -0.8384
 3312TIP3   OH234130   6.494   5.114   8.954  0.4834 -0.4837  0.5433
 3312TIP3    H134131   6.511   5.035   9.005  0.6229 -0.3071  0.7724
 3312TIP3    H234132   6.577   5.134   8.911  0.3871 -0.5884  0.3108
 3313TIP3   OH234133   2.765   3.503  10.897 -0.1669 -0.3391 -0.0293
 3313TIP3    H134134   2.805   3.434  10.844  0.1502  0.1047 -0.3764
 3313TIP3    H234135   2.677   3.512  10.860 -0.9906 -2.0009  1.3695
 3314TIP3   OH234136   5.396   6.744  10.960  0.7479 -0.0633 -0.7887
 3314TIP3    H134137   5.307   6.742  10.994  0.8578 -0.7182 -0.5144
 3314TIP3    H234138   5.429   6.832  10.981  0.3881 -0.0426 -0.3185
 3315TIP3   OH234139   3.444   6.658  11.484 -0.2680  0.1146  0.0312
 3315TIP3    H134140   3.494   6.581  11.514 -0.7665 -0.5329 -0.7551
 3315TIP3    H234141   3.510   6.727  11.477  0.5526 -0.7226 -0.9855
 3316TIP3   OH234142   0.096   6.957   8.406 -0.4955 -0.5988  0.3593
 3316TIP3    H134143   0.186   6.925   8.401 -0.8167 -1.6478  0.9246
 3316TIP3    H234144   0.101   7.037   8.457  0.3146  0.2344 -0.9703
 3317TIP3   OH234145   5.215   2.160  10.044 -0.2792 -0.3586 -0.0740
 3317TIP3    H134146   5.195   2.187  10.134  0.6534 -1.0929  0.3754
 3317TIP3    H234147   5.131   2.130  10.009 -0.6724  0.0245  0.5247
 3318TIP3   OH234148   6.021   5.086  10.811  0.3602 -0.3206  0.4275
 3318TIP3    H134149   5.956   5.049  10.870  1.0877 -1.0625  0.7788
 3318TIP3    H234150   6.055   5.012  10.762 -0.6989  0.3601 -1.4336
 3319TIP3   OH234151   6.244   4.095   9.150 -0.1625  0.5727  0.0688
 3319TIP3    H134152   6.245   4.113   9.244 -1.3183 -1.9695  0.6501
 3319TIP3    H234153   6.162   4.134   9.119  0.1006  1.2020  0.1550
 3320TIP3   OH234154   1.237   2.641   9.830 -0.0100  0.9484 -0.3011
 3320TIP3    H134155   1.245   2.737   9.831 -1.1387  1.0508 -0.2852
 3320TIP3    H234156   1.204   2.621   9.742 -3.1832  0.9090  0.7805
 3321TIP3   OH234157   1.833   1.223   8.839 -0.4528 -0.1620 -0.6936
 3321TIP3    H134158   1.908   1.218   8.898 -0.9620  0.5664  0.0348
 3321TIP3    H234159   1.863   1.276   8.765 -0.2812  0.2080 -0.3592
 3322TIP3   OH234160   2.532   4.853   8.720  0.0924 -0.1076  0.0292
 3322TIP3    H134161   2.521   4.759   8.708  2.1117 -0.7901  2.8005
 3322TIP3    H234162   2.619   4.864   8.756 -0.4250  2.7609  0.7017
 3323TIP3   OH234163   0.937   3.643   9.674  0.3439  0.1949  0.1239
 3323TIP3    H134164   0.894   3.615   9.593 -1.0231  0.2081  0.8076
 3323TIP3    H234165   1.018   3.593   9.676 -1.1647 -2.4444  0.4103
 3324TIP3   OH234166   0.102   7.134  10.495  0.0630 -0.4386 -0.3369
 3324TIP3    H134167   0.051   7.203  10.453 -0.3492  0.3549  1.3628
 3324TIP3    H234168   0.188   7.173  10.511  0.3605 -0.8808 -0.8359
 3325TIP3   OH234169   7.274   4.491  10.465  0.2303  0.1549 -0.3216
 3325TIP3    H134170   7.237   4.549  10.531 -0.2272 -2.2265  1.6556
 3325TIP3    H234171   7.365   4.521  10.455 -0.1742  1.6084  0.0750
 3326TIP3   OH234172   6.032   6.723  10.843 -0.3975 -0.1990  0.3245
 3326TIP3    H134173   6.043   6.675  10.761  1.9991  1.6317 -0.5226
 3326TIP3    H234174   5.937   6.724  10.857 -0.7878 -1.6125 -1.7310
 3327TIP3   OH234175   5.458   2.962  11.100 -0.1505  0.4779 -0.8440
 3327TIP3    H134176   5.505   2.881  11.078  0.3715  0.0114  1.6782
 3327TIP3    H234177   5.523   3.016  11.143 -1.4320  0.5425  1.1445
 3328TIP3   OH234178   2.876   2.511   9.773 -0.6375 -0.0070 -0.3461
 3328TIP3    H134179   2.900   2.573   9.704  0.3296  0.2449  0.2048
 3328TIP3    H234180   2.810   2.455   9.733 -1.2597  1.1344 -0.9801
 3329TIP3   OH234181   2.574   2.828  11.142  0.0910 -0.6565  0.3508
 3329TIP3    H134182   2.593   2.734  11.142  0.0382 -0.6675  0.0044
 3329TIP3    H234183   2.658   2.870  11.125 -0.0816 -0.6852 -0.6278
 3330TIP3   OH234184   5.963   2.194   9.201 -0.0066 -0.0794  0.1831
 3330TIP3    H134185   6.030   2.261   9.219  0.2083  0.0111 -0.8750
 3330TIP3    H234186   6.010   2.126   9.153 -0.6259 -0.1086 -0.3993
 3331TIP3   OH234187   1.251   7.386   8.664 -0.9390 -0.1658 -0.4838
 3331TIP3    H134188   1.306   7.382   8.586 -0.5286 -0.5684 -0.1801
 3331TIP3    H234189   1.165   7.411   8.631 -1.0332 -1.3536 -1.2046
 3332TIP3   OH234190   5.852   4.183   9.146 -0.2568  0.0228 -0.2062
 3332TIP3    H134191   5.913   4.167   9.074 -1.9493 -0.7617 -1.5382
 3332TIP3    H234192   5.865   4.275   9.169  0.1876  0.3393 -1.6673
 3333TIP3   OH234193   2.846   2.499   8.711  0.4854  0.3173 -0.0563
 3333TIP3    H134194   2.851   2.421   8.766 -0.3319  1.6592  2.0573
 3333TIP3    H234195   2.761   2.494   8.668  1.6605 -1.4042 -2.3936
 3334TIP3   OH234196   0.569   3.591   9.096  0.1653  0.4690  0.2184
 3334TIP3    H134197   0.577   3.503   9.132 -1.5986  0.4243  0.5638
 3334TIP3    H234198   0.574   3.579   9.002 -1.8247 -0.2560  0.1695
 3335TIP3   OH234199   4.977   2.334   9.311 -0.4735  0.0535 -1.0004
 3335TIP3    H134200   5.046   2.399   9.300  2.2047 -2.6828 -1.8873
 3335TIP3    H234201   4.956   2.307   9.221 -0.2920 -1.4475 -0.6132
 3336TIP3   OH234202   6.935   3.175   9.520 -0.0126  0.0395 -0.5651
 3336TIP3    H134203   7.005   3.129   9.566 -1.6874 -0.1747  1.9413
 3336TIP3    H234204   6.906   3.112   9.453 -0.2511 -1.3839  0.8092
 3337TIP3   OH234205   4.162   6.346  10.881 -0.0241  0.0727  0.2352
 3337TIP3    H134206   4.078   6.303  10.896  0.3114 -0.3201  1.0096
 3337TIP3    H234207   4.140   6.423  10.829 -0.4712 -1.8029 -2.5786
 3338TIP3   OH234208   3.731   1.792   9.016 -0.0805  0.6435  0.4396
 3338TIP3    H134209   3.823   1.800   8.989  0.7703  1.5931  3.2733
 3338TIP3    H234210   3.703   1.882   9.033 -1.0897  0.2417  1.0073
 3339TIP3   OH234211   6.752   2.885   8.869 -0.1266  0.5060  0.6809
 3339TIP3    H134212   6.795   2.802   8.851  1.1672  0.7607  2.3583
 3339TIP3    H234213   6.699   2.902   8.791 -0.6154 -1.9728  0.3884
 3340TIP3   OH234214   4.824   2.841   9.207 -0.7018 -0.2961 -0.6230
 3340TIP3    H134215   4.836   2.819   9.299  0.9153  0.6780 -0.5648
 3340TIP3    H234216   4.832   2.757   9.161 -1.0070 -0.7152  0.0676
 3341TIP3   OH234217   3.429   1.569   7.983 -0.2837  0.3910  0.0722
 3341TIP3    H134218   3.452   1.661   7.969  0.9404  0.1595  0.4463
 3341TIP3    H234219   3.414   1.534   7.895  1.7164  0.3552 -0.3052
 3342TIP3   OH234220   5.029   1.719   8.825 -0.6078 -0.8158  0.1726
 3342TIP3    H134221   5.046   1.695   8.734  0.4832 -1.7810  0.6035
 3342TIP3    H234222   4.935   1.706   8.836 -1.0607  0.9107 -1.2510
 3343TIP3   OH234223   4.699   1.485   9.202  0.5693 -0.6693  0.0576
 3343TIP3    H134224   4.729   1.403   9.241 -1.6205 -1.5343  0.0669
 3343TIP3    H234225   4.664   1.535   9.275 -1.2667 -1.2435 -0.3705
 3344TIP3   OH234226   0.149   5.539  10.392 -0.1688 -0.4515  0.6770
 3344TIP3    H134227   0.193   5.534  10.308 -0.0623 -0.1021  0.7097
 3344TIP3    H234228   0.098   5.620  10.388  0.9119  0.3113  1.4505
 3345TIP3   OH234229   3.484   4.644   9.405 -0.3426 -0.0431  0.1983
 3345TIP3    H134230   3.562   4.695   9.428 -0.4806 -0.1516  0.9144
 3345TIP3    H234231   3.411   4.699   9.432 -0.4911 -1.0729  2.0447
 3346TIP3   OH234232   7.150   0.854   9.568  0.1813  0.5354  0.0949
 3346TIP3    H134233   7.171   0.829   9.658 -0.5401 -1.6771 -0.3139
 3346TIP3    H234234   7.235   0.857   9.524  0.3600 -0.6222  0.3286
 3347TIP3   OH234235   2.006   3.642   9.127  0.0874  0.6829 -0.6413
 3347TIP3    H134236   1.949   3.651   9.051  0.7200  2.6177 -0.9264
 3347TIP3    H234237   1.950   3.667   9.201  0.0915  0.9522 -0.7281
 3348TIP3   OH234238   4.447   0.865   8.546 -0.1642 -0.5889 -0.2579
 3348TIP3    H134239   4.403   0.789   8.583 -1.2160 -0.2571 -0.8015
 3348TIP3    H234240   4.475   0.917   8.622  1.4943 -1.9908  0.1591
 3349TIP3   OH234241   5.236   6.455  10.918 -0.0839 -0.0451 -0.3939
 3349TIP3    H134242   5.205   6.546  10.915  0.7370  0.2876  0.8163
 3349TIP3    H234243   5.156   6.403  10.923 -0.5749  0.5776 -1.3404
 3350TIP3   OH234244   4.985   6.318  10.939  0.4336 -0.5656  0.1097
 3350TIP3    H134245   4.932   6.394  10.964  0.2048  0.3410 -2.7223
 3350TIP3    H234246   4.921   6.256  10.902  0.8248 -1.5068  0.9535
 3351TIP3   OH234247   3.794   0.391   9.047 -0.2823 -0.0937  0.1714
 3351TIP3    H134248   3.743   0.313   9.070  1.5726 -0.9552  1.6550
 3351TIP3    H234249   3.737   0.465   9.068 -1.3061 -1.0278  0.7768
 3352TIP3   OH234250   0.248   1.492   9.228  0.0719  0.3825 -0.8882
 3352TIP3    H134251   0.199   1.473   9.148 -1.1896 -1.9052  0.3164
 3352TIP3    H234252   0.188   1.543   9.281  0.2256  0.3583 -0.6908
 3353TIP3   OH234253   0.872   5.624  10.313  0.5764  0.5166  0.1770
 3353TIP3    H134254   0.916   5.540  10.326  0.3718  0.5678  1.2430
 3353TIP3    H234255   0.806   5.606  10.246 -0.7024 -0.6636  1.6734
 3354TIP3   OH234256   3.822   4.049   8.045 -0.6352  1.1341 -0.1913
 3354TIP3    H134257   3.807   3.974   8.102  0.5013  1.4833  0.6104
 3354TIP3    H234258   3.740   4.098   8.047 -0.3009  1.6923  2.0121
 3355TIP3   OH234259   5.615   3.154  10.446  0.0200  0.1797  0.0767
 3355TIP3    H134260   5.530   3.111  10.441 -0.7578  1.5112  0.9868
 3355TIP3    H234261   5.667   3.097  10.502 -0.6233 -0.1290  0.3819
 3356TIP3   OH234262   3.750   2.395   9.808 -0.3336  0.2995 -0.0888
 3356TIP3    H134263   3.798   2.383   9.890  0.1399 -1.1764 -0.5593
 3356TIP3    H234264   3.777   2.482   9.778 -2.2802  1.9214  2.4199
 3357TIP3   OH234265   7.395   5.100  10.165 -0.3986  0.6124  0.0750
 3357TIP3    H134266   7.387   5.195  10.155  0.8500  0.7569  0.2021
 3357TIP3    H234267   7.438   5.088  10.251  1.0110  0.0454 -0.6641
 3358TIP3   OH234268   6.599   3.138   9.854 -0.4177  0.2496 -0.0769
 3358TIP3    H134269   6.507   3.164   9.847 -0.2578  0.7079 -0.5242
 3358TIP3    H234270   6.618   3.096   9.771 -1.3723 -3.7031  1.4979
 3359TIP3   OH234271   5.168   2.038  11.056 -0.8556  0.3646 -0.5027
 3359TIP3    H134272   5.146   2.103  10.990  1.5161 -0.9683 -2.7780
 3359TIP3    H234273   5.088   1.986  11.066 -1.5807  1.2527 -1.5066
 3360TIP3   OH234274   5.299   6.597  10.206  0.0476  0.3986 -0.3302
 3360TIP3    H134275   5.358   6.627  10.138  0.1438  1.3040  0.1292
 3360TIP3    H234276   5.324   6.647  10.284 -1.2278  0.7239 -0.0961
 3361TIP3   OH234277   7.067   4.193   9.982  0.3333 -0.5328  0.0387
 3361TIP3    H134278   7.153   4.197  10.024 -0.0634  0.2672  0.7949
 3361TIP3    H234279   7.070   4.112   9.930  1.9183  0.0415 -0.8236
 3362TIP3   OH234280   6.284   4.866   8.078  0.1316  0.3123 -0.8193
 3362TIP3    H134281   6.217   4.845   8.013  1.2911 -0.1436 -1.9159
 3362TIP3    H234282   6.304   4.782   8.119 -1.0598  0.7001  0.6404
 3363TIP3   OH234283   4.321   2.522   8.798 -0.2353  0.1579  0.4268
 3363TIP3    H134284   4.329   2.583   8.725  1.5937 -0.0530  0.4040
 3363TIP3    H234285   4.378   2.559   8.866 -0.8734 -0.3491  1.2522
 3364TIP3   OH234286   3.519   4.520   8.424  0.4414 -0.1794 -0.6153
 3364TIP3    H134287   3.479   4.466   8.355 -1.3911 -0.6176  0.7304
 3364TIP3    H234288   3.447   4.543   8.482  1.5552  2.0133  0.0114
 3365TIP3   OH234289   0.008   3.351   9.378  0.6051 -0.1039  0.4541
 3365TIP3    H134290  -0.061   3.398   9.331  0.4131 -1.8790 -1.1284
 3365TIP3    H234291  -0.020   3.353   9.470 -0.5230  0.9027  0.1145
 3366TIP3   OH234292   0.598   5.252   8.862  0.1849  0.2436  0.0462
 3366TIP3    H134293   0.540   5.230   8.789  0.7072 -0.5512 -0.1355
 3366TIP3    H234294   0.564   5.336   8.894 -1.3455 -0.4191  0.2548
 3367TIP3   OH234295   0.517   3.790  10.711  0.2550 -0.2446  0.1204
 3367TIP3    H134296   0.531   3.840  10.631 -0.8229 -0.8057 -0.4420
 3367TIP3    H234297   0.448   3.836  10.758 -2.2885 -2.2396 -1.4128
 3368TIP3   OH234298   7.636   4.753  10.258  0.3498  0.3581 -0.0946
 3368TIP3    H134299   7.673   4.822  10.202  0.4704  0.0458 -0.3975
 3368TIP3    H234300   7.669   4.671  10.221  1.7395  0.2129  1.3691
 3369TIP3   OH234301   0.585   2.812  11.089  0.6387 -0.4059 -0.3705
 3369TIP3    H134302   0.509   2.762  11.118  0.2708 -0.0853 -0.7683
 3369TIP3    H234303   0.603   2.779  11.001  0.0987  0.4876 -0.8249
 3370TIP3   OH234304   6.334   5.397   8.898  0.5591  0.0488 -0.5929
 3370TIP3    H134305   6.248   5.437   8.882  0.5418  0.1887 -0.1547
 3370TIP3    H234306   6.321   5.345   8.977  0.8027 -0.1646 -0.6926
 3371TIP3   OH234307   4.995   1.005   9.271 -0.3628  0.3308 -0.3446
 3371TIP3    H134308   5.086   1.013   9.243 -0.7257  1.3772 -1.3152
 3371TIP3    H234309   4.995   1.034   9.362  0.7993 -2.8797  0.8081
 3372TIP3   OH234310   7.533   0.860   9.279 -0.4305  0.7681  0.4129
 3372TIP3    H134311   7.492   0.883   9.363  0.0134  0.2389  0.7801
 3372TIP3    H234312   7.622   0.835   9.302 -0.6873 -0.6468 -0.0432
 3373TIP3   OH234313   1.231   5.362   9.527 -0.3010  0.0864  0.1033
 3373TIP3    H134314   1.325   5.366   9.507  0.1236  0.1903  1.9855
 3373TIP3    H234315   1.190   5.343   9.442  1.1689  2.4409 -1.2548
 3374TIP3   OH234316   4.827   0.528   9.808 -0.6458 -0.0028  0.3156
 3374TIP3    H134317   4.848   0.617   9.837  2.0041 -0.5544  0.3682
 3374TIP3    H234318   4.847   0.473   9.884 -0.6359 -0.7978 -0.2463
 3375TIP3   OH234319   0.468   1.701  11.248  0.2820  0.1491  0.1400
 3375TIP3    H134320   0.469   1.645  11.171  2.1026  1.5599 -0.9475
 3375TIP3    H234321   0.558   1.698  11.281  0.2416  1.7992  0.4972
 3376TIP3   OH234322   4.102   3.452   9.859 -0.0447  0.7692 -0.1776
 3376TIP3    H134323   4.151   3.407   9.790  0.0840 -0.5139  0.7040
 3376TIP3    H234324   4.142   3.421   9.940 -1.0386  1.2404  0.5128
 3377TIP3   OH234325   2.735   6.399  10.720 -0.1927 -0.1061 -0.7501
 3377TIP3    H134326   2.826   6.426  10.708  0.3733 -1.0154  1.1820
 3377TIP3    H234327   2.731   6.310  10.685 -0.3951 -0.0130 -0.9728
 3378TIP3   OH234328   7.248   0.142   9.346 -0.5035  0.0493 -0.0501
 3378TIP3    H134329   7.322   0.115   9.292  0.2417 -0.2559  1.0982
 3378TIP3    H234330   7.210   0.059   9.377 -0.1787  0.2341  0.8687
 3379TIP3   OH234331   5.142   2.679  10.958 -0.2709 -0.2108  0.0124
 3379TIP3    H134332   5.214   2.708  10.902  0.8791  2.7661  2.7624
 3379TIP3    H234333   5.063   2.714  10.915  0.3049  0.0074 -0.9076
 3380TIP3   OH234334   5.813   1.757   9.543  0.3374 -0.0130 -0.1646
 3380TIP3    H134335   5.841   1.825   9.604  0.9556 -0.1999 -0.2360
 3380TIP3    H234336   5.738   1.796   9.497 -2.0629 -0.9284  2.6943
 3381TIP3   OH234337   2.493   4.488   9.780 -0.2547  0.3901 -0.1589
 3381TIP3    H134338   2.515   4.417   9.719 -1.3205  0.9561 -1.2371
 3381TIP3    H234339   2.458   4.444   9.857 -1.7958 -0.2599 -1.1853
 3382TIP3   OH234340   5.646   0.355   9.747 -0.1461  0.0335 -0.3384
 3382TIP3    H134341   5.732   0.387   9.717 -0.2288  1.9080  1.2091
 3382TIP3    H234342   5.595   0.434   9.761 -2.0908 -1.0505 -0.9965
 3383TIP3   OH234343   2.775   3.510   8.973  0.4977  0.5924 -0.2850
 3383TIP3    H134344   2.702   3.463   8.932  1.2715 -1.5290  0.6240
 3383TIP3    H234345   2.777   3.594   8.928 -0.5669 -0.4589 -2.5031
 3384TIP3   OH234346   4.050   2.878   9.434 -0.4814 -0.1672 -0.1135
 3384TIP3    H134347   3.982   2.835   9.382  0.2758 -0.1573 -1.1593
 3384TIP3    H234348   4.132   2.838   9.404  0.0881  0.7628  0.1403
 3385TIP3   OH234349   0.464   7.487  10.254 -0.0327 -0.0009  0.1747
 3385TIP3    H134350   0.406   7.561  10.233 -0.4321 -0.7378 -1.5087
 3385TIP3    H234351   0.551   7.517  10.228  0.0575  0.4235  0.9427
 3386TIP3   OH234352   6.948   2.004  10.797 -0.0761  0.5487  0.3169
 3386TIP3    H134353   6.854   2.022  10.798 -0.5676 -1.3105 -2.0595
 3386TIP3    H234354   6.960   1.946  10.721  2.5185 -1.7042  2.2404
 3387TIP3   OH234355   5.997   5.060   8.603 -0.1543 -0.2005 -0.1869
 3387TIP3    H134356   5.976   4.975   8.642  0.5705 -0.3975 -0.2104
 3387TIP3    H234357   6.050   5.039   8.526  0.2802  0.2853 -0.0231
 3388TIP3   OH234358   0.583   5.074  10.760 -0.1350 -0.1820  0.2995
 3388TIP3    H134359   0.509   5.031  10.719 -0.4822 -0.1815  0.9111
 3388TIP3    H234360   0.599   5.024  10.840  1.7879 -1.3845 -0.7727
 3389TIP3   OH234361   2.550   5.390   9.251  0.4212 -0.1096 -0.4815
 3389TIP3    H134362   2.608   5.320   9.223  0.9948  0.3420 -0.4365
 3389TIP3    H234363   2.483   5.346   9.304 -0.5388 -0.9394 -2.2822
 3390TIP3   OH234364   1.012   6.081   9.611  0.0365 -0.0178  0.3579
 3390TIP3    H134365   0.969   6.082   9.696 -1.4393 -0.4776 -0.3428
 3390TIP3    H234366   1.016   6.173   9.584  1.8772  0.3002  1.5307
 3391TIP3   OH234367   2.716   0.139   9.532 -0.2522  0.0905 -0.0305
 3391TIP3    H134368   2.698   0.165   9.622 -0.1717  0.0509 -0.0026
 3391TIP3    H234369   2.786   0.074   9.539 -1.4215 -1.2032  0.0219
 3392TIP3   OH234370   3.619   3.447   9.856 -0.4890 -0.6348  0.0361
 3392TIP3    H134371   3.547   3.456   9.919 -1.4335 -1.0938 -0.9374
 3392TIP3    H234372   3.698   3.448   9.910 -1.1099  1.4949  1.0120
 3393TIP3   OH234373   1.767   1.518   8.730  0.4479 -0.6278  0.5019
 3393TIP3    H134374   1.698   1.463   8.693 -0.4865  0.8569 -0.0458
 3393TIP3    H234375   1.849   1.477   8.700 -0.2442 -0.9990 -0.9606
 3394TIP3   OH234376   2.214   2.962   8.812  0.5679 -0.7367 -0.0052
 3394TIP3    H134377   2.171   2.912   8.742 -0.2381 -1.2851  0.8515
 3394TIP3    H234378   2.207   3.053   8.785 -1.3557 -0.7904  0.1978
 3395TIP3   OH234379   6.801   4.360   9.175  0.4960 -0.0389 -0.2372
 3395TIP3    H134380   6.719   4.405   9.157 -0.1532 -0.5380  1.2894
 3395TIP3    H234381   6.860   4.388   9.106 -0.0084  2.7681  0.3586
 3396TIP3   OH234382   3.663   0.848  10.667  0.0587 -0.1171  0.2967
 3396TIP3    H134383   3.594   0.782  10.674 -0.6232  0.6435  0.9957
 3396TIP3    H234384   3.744   0.797  10.658 -0.2736 -1.1256  2.3093
 3397TIP3   OH234385   6.483   0.024   8.469 -0.0496  0.2014  0.2590
 3397TIP3    H134386   6.415  -0.004   8.531 -0.7305 -1.1901 -1.0801
 3397TIP3    H234387   6.508  -0.055   8.423  1.3872  0.9897 -0.3683
 3398TIP3   OH234388   6.796   6.684   9.518  0.1772 -0.2244 -0.1964
 3398TIP3    H134389   6.855   6.737   9.465 -0.3501  0.7130  0.1410
 3398TIP3    H234390   6.751   6.746   9.574  0.5718 -1.1623  1.2378
 3399TIP3   OH234391   5.223   6.256  10.314  0.2935 -0.2429 -0.2571
 3399TIP3    H134392   5.271   6.220  10.240  0.5298  1.5258 -1.0094
 3399TIP3    H234393   5.259   6.344  10.325 -1.8940  0.6867 -0.0459
 3400TIP3   OH234394   0.168   0.268  11.000 -0.3038 -0.2062  0.2060
 3400TIP3    H134395   0.123   0.187  11.025 -1.5626  0.6427  0.8085
 3400TIP3    H234396   0.201   0.251  10.912 -2.7321 -0.5642 -0.7216
 3401TIP3   OH234397   1.385   3.514  10.400 -0.2154 -0.6328 -0.2001
 3401TIP3    H134398   1.397   3.432  10.449  0.7953 -0.2241  0.2565
 3401TIP3    H234399   1.354   3.485  10.314 -1.7326 -1.3775  0.5620
 3402TIP3   OH234400   6.698   0.229  11.232 -0.1379  0.0167 -0.2353
 3402TIP3    H134401   6.764   0.262  11.293  1.4537  0.2863 -2.0100
 3402TIP3    H234402   6.730   0.142  11.209 -1.6020 -0.7478  0.5270
 3403TIP3   OH234403   5.041   6.596   8.611 -0.2364  0.0157  0.3208
 3403TIP3    H134404   5.103   6.609   8.683  0.0663  0.5687 -0.0360
 3403TIP3    H234405   5.001   6.682   8.598  0.3518  0.1347 -0.7591
 3404TIP3   OH234406   2.255   0.619  10.897 -0.2887  0.2341  0.3703
 3404TIP3    H134407   2.210   0.557  10.840 -0.2278 -0.6421  1.2452
 3404TIP3    H234408   2.186   0.656  10.952 -0.1819  0.1700  0.5484
 3405TIP3   OH234409   7.635   4.402  10.923 -0.0320 -0.2970 -0.2166
 3405TIP3    H134410   7.651   4.469  10.989 -1.8728  1.1702 -1.1577
 3405TIP3    H234411   7.551   4.426  10.884  0.7771 -1.2998 -2.8308
 3406TIP3   OH234412   2.588   7.413  10.054 -0.5329 -0.0101 -0.4206
 3406TIP3    H134413   2.644   7.339  10.031  0.4321  0.7310 -0.5296
 3406TIP3    H234414   2.531   7.424   9.978 -0.8660 -0.7881 -0.2974
 3407TIP3   OH234415   2.607   2.458   9.189  0.1878  0.6104  0.3092
 3407TIP3    H134416   2.599   2.416   9.104 -0.4510 -1.1374  1.1951
 3407TIP3    H234417   2.543   2.529   9.187 -2.5957 -1.6910  0.5807
 3408TIP3   OH234418   4.086   1.719   8.638 -0.3206 -0.9065 -0.0647
 3408TIP3    H134419   4.133   1.650   8.592 -0.9145 -1.3214 -0.0634
 3408TIP3    H234420   4.039   1.766   8.569  0.6596 -0.0256 -0.1567
 3409TIP3   OH234421   5.918   1.153  10.442  0.3643  0.4971  0.6792
 3409TIP3    H134422   5.930   1.157  10.347 -0.8046  1.8099  0.5445
 3409TIP3    H234423   5.968   1.076  10.470  2.8566  1.4834 -0.6590
 3410TIP3   OH234424   0.629   1.845  10.079  0.4394  0.5827 -0.3474
 3410TIP3    H134425   0.571   1.912  10.041  1.2184  1.3029 -0.2985
 3410TIP3    H234426   0.578   1.810  10.153  1.1168  3.3030  1.5850
 3411TIP3   OH234427   1.495   3.774   9.476  0.0946  0.0005 -0.1265
 3411TIP3    H134428   1.495   3.706   9.544 -0.0222 -2.1065 -2.1250
 3411TIP3    H234429   1.538   3.849   9.517  0.7656 -1.4544  1.9877
 3412TIP3   OH234430   3.266   6.511   9.487 -1.2700  0.4937 -0.1134
 3412TIP3    H134431   3.194   6.573   9.471 -1.8207  0.3969  1.8150
 3412TIP3    H234432   3.291   6.526   9.578  0.3629 -0.3209 -0.3961
 3413TIP3   OH234433   2.291   1.991   9.083 -0.3667  0.0040 -0.8088
 3413TIP3    H134434   2.212   1.937   9.091 -0.7359  0.5974 -0.2810
 3413TIP3    H234435   2.309   1.995   8.989 -1.2262  0.2139 -0.9758
 3414TIP3   OH234436   0.573   2.559  10.470  0.3406 -0.3139 -0.0892
 3414TIP3    H134437   0.564   2.467  10.446 -0.2011 -1.3933  3.6384
 3414TIP3    H234438   0.485   2.594  10.463  0.3908 -0.2832 -0.6558
 3415TIP3   OH234439   5.773   0.377   9.169  0.0113 -0.0108 -0.0910
 3415TIP3    H134440   5.746   0.308   9.109 -0.8183  1.1002 -1.0489
 3415TIP3    H234441   5.727   0.358   9.251 -0.7421 -0.2236 -0.5602
 3416TIP3   OH234442   0.029   5.787  10.396  0.2228 -0.2255  0.0565
 3416TIP3    H134443  -0.019   5.868  10.379  2.6324  1.4205  0.5876
 3416TIP3    H234444   0.066   5.799  10.483  0.6704 -1.8978  0.1233
 3417TIP3   OH234445   5.736   5.083  10.371  0.5451  0.5867  0.7655
 3417TIP3    H134446   5.697   5.169  10.385 -0.2039  0.5320 -0.7683
 3417TIP3    H234447   5.661   5.026  10.354  1.1608  0.0609 -0.2526
 3418TIP3   OH234448   0.221   1.735   8.943 -0.0834 -0.6256 -0.1353
 3418TIP3    H134449   0.157   1.705   9.007  1.1698 -0.4826  1.2466
 3418TIP3    H234450   0.285   1.784   8.994  0.5803  0.1197 -1.6231
 3419TIP3   OH234451   3.367   3.101   8.574  0.4018 -0.6938  0.4060
 3419TIP3    H134452   3.445   3.122   8.522  1.0423 -1.8824  0.8571
 3419TIP3    H234453   3.363   3.171   8.639  0.9373 -0.4736  0.2118
 3420TIP3   OH234454   3.291   4.956  10.698 -0.2994  0.7317  0.5568
 3420TIP3    H134455   3.331   4.877  10.734 -0.4904 -0.0219 -0.8401
 3420TIP3    H234456   3.365   5.017  10.686  0.2505 -0.1363 -0.6642
 3421TIP3   OH234457   3.122   6.644   9.040  0.2865 -0.1967  0.0606
 3421TIP3    H134458   3.080   6.729   9.034  1.3750  0.3576  0.0116
 3421TIP3    H234459   3.204   6.661   9.087  0.5802 -1.1831 -0.0742
 3422TIP3   OH234460   7.160   1.921   8.836 -0.0122 -0.1284 -0.1037
 3422TIP3    H134461   7.217   1.900   8.910  1.9248  1.3295 -1.1192
 3422TIP3    H234462   7.103   1.991   8.869 -0.3049 -0.6396  0.4950
 3423TIP3   OH234463   1.841   2.463   9.434  0.4633 -0.0611  0.7249
 3423TIP3    H134464   1.867   2.443   9.524  1.2107  1.3663  0.8481
 3423TIP3    H234465   1.784   2.540   9.442 -1.8460 -1.6179  0.2147
 3424TIP3   OH234466   5.996   4.611   9.759  0.4032  0.3255  0.3933
 3424TIP3    H134467   5.957   4.561   9.687  1.2268 -2.4243  1.6932
 3424TIP3    H234468   5.922   4.640   9.812 -0.0965 -0.9679  0.4478
 3425TIP3   OH234469   5.298   1.125  11.282 -0.0115  0.1516  0.0887
 3425TIP3    H134470   5.323   1.072  11.206  0.6810 -2.2106  1.8556
 3425TIP3    H234471   5.367   1.192  11.287 -0.9469  1.4175 -2.2316
 3426TIP3   OH234472   2.727   1.041  10.358  0.2563  0.3979  0.2767
 3426TIP3    H134473   2.767   1.121  10.325  1.8632 -1.3002 -2.2457
 3426TIP3    H234474   2.791   1.005  10.419  1.7289 -1.1661 -2.0445
 3427TIP3   OH234475   1.479   6.659   9.858  0.0316  0.0501  0.2032
 3427TIP3    H134476   1.526   6.576   9.855  0.1997  0.1531 -0.0224
 3427TIP3    H234477   1.453   6.675   9.767  0.6265  0.6048  0.1211
 3428TIP3   OH234478   4.135   4.749   9.369  0.5870  0.3588 -0.3830
 3428TIP3    H134479   4.153   4.660   9.339  0.5713  0.4049 -0.5284
 3428TIP3    H234480   4.040   4.756   9.371  0.5882  0.3549 -0.3232
 3429TIP3   OH234481   1.293   1.185  10.937 -0.4181  0.0386  0.0322
 3429TIP3    H134482   1.385   1.161  10.930 -1.1140 -2.4336 -2.5584
 3429TIP3    H234483   1.246   1.110  10.900 -3.5428  0.9337  1.8216
 3430TIP3   OH234484   3.699   3.900  11.256  0.6619  0.1459 -0.0744
 3430TIP3    H134485   3.747   3.980  11.273  1.9150 -0.4506 -0.6476
 3430TIP3    H234486   3.652   3.917  11.174 -0.3682  0.8377  0.6488
 3431TIP3   OH234487   7.535   3.114   9.110  0.2721  0.2034 -0.0079
 3431TIP3    H134488   7.597   3.071   9.051 -2.3861 -2.0425 -1.4472
 3431TIP3    H234489   7.501   3.043   9.165 -0.3989  1.4944  1.2989
 3432TIP3   OH234490   6.111   2.110  10.516  0.1619  0.0302  0.0665
 3432TIP3    H134491   6.177   2.179  10.514  1.0796 -0.8272  0.0699
 3432TIP3    H234492   6.081   2.101  10.425  0.7108 -0.1876 -0.0968
 3433TIP3   OH234493   4.380   1.866   9.552  0.4650  0.2126 -0.1245
 3433TIP3    H134494   4.348   1.778   9.533 -1.3256  1.1970 -2.0349
 3433TIP3    H234495   4.434   1.855   9.630 -2.5754 -2.0606  1.9190
 3434TIP3   OH234496   3.372   1.278   8.352 -0.1933  0.7449 -0.6637
 3434TIP3    H134497   3.339   1.261   8.440  0.2663 -2.4987 -0.9720
 3434TIP3    H234498   3.312   1.232   8.294 -0.7419  3.1909 -2.1688
 3435TIP3   OH234499   2.189   6.434  15.571  0.1161 -0.4412  0.0730
 3435TIP3    H134500   2.270   6.454  15.617 -0.0043  1.3569 -0.4335
 3435TIP3    H234501   2.121   6.437  15.638  0.2466 -0.1846  0.1956
 3436TIP3   OH234502   3.855   5.318  11.129 -0.4017  0.9600 -0.1366
 3436TIP3    H134503   3.865   5.401  11.082  0.9771  0.9464  0.0840
 3436TIP3    H234504   3.942   5.300  11.164 -0.8586 -0.2129  0.4537
 3437TIP3   OH234505   4.274   5.955  10.042 -0.1513  0.1973  0.1452
 3437TIP3    H134506   4.290   5.883   9.981  0.9738 -0.5974  1.3284
 3437TIP3    H234507   4.264   6.032   9.986  1.7382 -0.3389 -1.0228
 3438TIP3   OH234508   0.882   1.723   8.774  0.6182 -0.2133  0.2352
 3438TIP3    H134509   0.883   1.782   8.849  0.1626 -0.5419  0.5026
 3438TIP3    H234510   0.945   1.762   8.712  1.8315 -0.5308  1.2266
 3439TIP3   OH234511   1.362   6.049   8.948 -0.4689  0.8175  0.2306
 3439TIP3    H134512   1.424   6.003   8.891  0.1507  1.9084 -0.0188
 3439TIP3    H234513   1.278   6.041   8.904 -0.0219  1.5407 -0.7933
 3440TIP3   OH234514   5.126   2.471  10.243 -0.3096 -0.4384 -0.7664
 3440TIP3    H134515   5.118   2.376  10.252  0.1182 -0.3137  1.5585
 3440TIP3    H234516   5.090   2.506  10.325 -0.2863  1.4003 -1.5040
 3441TIP3   OH234517   7.370   6.294   9.184  0.3361 -1.0719 -0.0748
 3441TIP3    H134518   7.322   6.267   9.262  0.1047 -1.7642 -0.4449
 3441TIP3    H234519   7.319   6.368   9.148  1.2402  0.2296  1.2102
 3442TIP3   OH234520   5.419   0.377  11.240  0.2461 -0.1938 -0.0671
 3442TIP3    H134521   5.395   0.296  11.286  1.3377 -0.6722 -0.3022
 3442TIP3    H234522   5.506   0.358  11.203  0.1677  0.8136 -0.7898
 3443TIP3   OH234523   7.553   0.914  10.472 -0.4991  0.1139  0.0203
 3443TIP3    H134524   7.610   0.924  10.548  0.3035  1.1109 -0.6719
 3443TIP3    H234525   7.497   0.991  10.473  1.2062  1.4999 -1.7076
 3444TIP3   OH234526   1.760   6.776  10.032 -0.3232 -0.1529 -0.4233
 3444TIP3    H134527   1.737   6.860  10.072  2.0666 -0.4379  1.8602
 3444TIP3    H234528   1.679   6.725  10.036 -0.6885  0.4452  2.7336
 3445TIP3   OH234529   0.808   3.383   9.762 -0.3232 -0.2339 -0.4733
 3445TIP3    H134530   0.813   3.478   9.750  0.4634 -0.4232 -1.7968
 3445TIP3    H234531   0.884   3.349   9.715 -0.8823 -1.5591 -0.4445
 3446TIP3   OH234532   3.983   4.531  10.275  0.6481  0.4306  0.1213
 3446TIP3    H134533   3.990   4.616  10.319  0.5116  0.0710  0.8493
 3446TIP3    H234534   3.928   4.547  10.199  1.3314  1.1823 -0.2205
 3447TIP3   OH234535   0.164   7.342  11.068 -0.1323  0.0335 -0.7120
 3447TIP3    H134536   0.127   7.269  11.018 -0.2735 -0.7323  0.4588
 3447TIP3    H234537   0.258   7.339  11.050 -0.3467  0.7066 -2.0810
 3448TIP3   OH234538   4.183   6.143  10.634  0.2791 -0.4849 -0.2737
 3448TIP3    H134539   4.141   6.059  10.657  2.1733 -1.4764 -0.2580
 3448TIP3    H234540   4.259   6.149  10.692 -0.0379  1.4796  0.0072
 3449TIP3   OH234541   3.640   7.547  10.957 -0.5564 -0.0167  0.2344
 3449TIP3    H134542   3.631   7.462  11.001  0.7367 -0.6884 -0.6921
 3449TIP3    H234543   3.684   7.525  10.875 -0.6893  1.5073 -0.2622
 3450TIP3   OH234544   1.002   6.739   9.436  0.5990  0.2568 -0.0249
 3450TIP3    H134545   1.093   6.753   9.461  0.6722  1.4179 -0.8990
 3450TIP3    H234546   1.004   6.723   9.342 -0.0331 -0.5144  0.0744
 3451TIP3   OH234547   1.441   6.870   9.324  0.2510 -0.1301  0.1348
 3451TIP3    H134548   1.412   6.904   9.239 -2.0465  0.0915  0.9421
 3451TIP3    H234549   1.486   6.944   9.365 -0.4187  0.4099 -0.0912
 3452TIP3   OH234550   7.037   2.167   8.594  0.7130 -0.1318 -0.4795
 3452TIP3    H134551   6.992   2.222   8.659 -1.6893 -1.0270 -1.2746
 3452TIP3    H234552   7.062   2.228   8.524 -0.9794  0.1735 -0.8684
 3453TIP3   OH234553   4.633   0.990   8.344  0.0989  0.6355  0.5875
 3453TIP3    H134554   4.709   0.995   8.286 -0.2489  0.7612  0.1457
 3453TIP3    H234555   4.664   0.937   8.418  0.3453 -0.0527 -0.0019
 3454TIP3   OH234556   7.595   1.571  10.659 -0.4823 -0.0716  0.4030
 3454TIP3    H134557   7.501   1.581  10.676 -0.4302  1.0819  0.1374
 3454TIP3    H234558   7.623   1.658  10.630  0.9753  0.0229  1.9016
 3455TIP3   OH234559   4.762   0.181   9.743 -0.4113 -0.1905  0.6057
 3455TIP3    H134560   4.738   0.236   9.817 -0.1591  0.4523  0.2214
 3455TIP3    H234561   4.857   0.187   9.738 -0.3241 -1.1654  0.9383
 3456TIP3   OH234562   6.350   4.331   8.987 -0.1430  0.0651  0.2070
 3456TIP3    H134563   6.290   4.386   8.936 -1.2348 -0.6238  0.7100
 3456TIP3    H234564   6.308   4.245   8.988  1.6489 -0.8761 -0.7796
 3457TIP3   OH234565   0.680   7.269   9.048  0.4673 -0.2214 -0.3312
 3457TIP3    H134566   0.713   7.283   8.959 -0.0502 -0.3856 -0.5549
 3457TIP3    H234567   0.618   7.196   9.039 -1.7202  1.5438 -0.3550
 3458TIP3   OH234568   3.185   2.314   8.934 -0.3093  0.9235 -0.5455
 3458TIP3    H134569   3.098   2.306   8.894  0.4367 -1.5593 -1.8636
 3458TIP3    H234570   3.226   2.386   8.887 -0.1839 -0.6374 -2.9957
 3459TIP3   OH234571   6.596   4.260  10.874 -0.0503  0.2821  0.6857
 3459TIP3    H134572   6.660   4.306  10.929  0.7245  0.6537 -0.4966
 3459TIP3    H234573   6.542   4.330  10.838  0.3722  0.1731 -0.1728
 3460TIP3   OH234574   1.684   7.274   9.015  0.2518 -0.2590 -0.4785
 3460TIP3    H134575   1.624   7.199   9.014  1.3387 -1.1964  0.9706
 3460TIP3    H234576   1.749   7.251   9.080  1.2612  1.4786 -0.8314
 3461TIP3   OH234577   5.731   6.937  10.988  0.0383  0.0178 -0.4634
 3461TIP3    H134578   5.810   6.982  10.958 -0.4368  3.0837  2.3624
 3461TIP3    H234579   5.726   6.957  11.082 -1.6109 -4.0719  0.5561
 3462TIP3   OH234580   0.580   3.870   9.623 -0.0914  0.0706  0.4830
 3462TIP3    H134581   0.545   3.813   9.691  0.3582  0.0449  0.6979
 3462TIP3    H234582   0.575   3.958   9.660 -1.4808  0.2905 -0.1305
 3463TIP3   OH234583   2.135   7.160   9.304 -0.0256 -0.1437  0.5108
 3463TIP3    H134584   2.218   7.206   9.314  0.2963 -0.8087  0.9000
 3463TIP3    H234585   2.138   7.089   9.368  0.9028 -2.7614 -2.1936
 3464TIP3   OH234586   3.137   3.230  11.547 -0.2316  0.1756  0.3475
 3464TIP3    H134587   3.128   3.326  11.547  0.3644  0.2632 -1.1803
 3464TIP3    H234588   3.192   3.211  11.623 -0.8715  0.9767  1.0296
 3465TIP3   OH234589   6.899   5.453  10.720 -0.2161 -0.2876 -0.0854
 3465TIP3    H134590   6.835   5.488  10.658  0.1324  0.3372 -0.1051
 3465TIP3    H234591   6.930   5.372  10.679  1.5004  1.1086 -1.7604
 3466TIP3   OH234592   3.773   2.121   9.721 -0.1973 -0.8026  0.3171
 3466TIP3    H134593   3.689   2.083   9.694 -0.1063 -0.7507 -0.0530
 3466TIP3    H234594   3.757   2.215   9.727  0.2286 -0.5767 -1.3813
 3467TIP3   OH234595   2.013   6.229  10.277 -0.2960 -0.8626 -0.2951
 3467TIP3    H134596   1.933   6.273  10.248  1.2980  1.7451 -1.0840
 3467TIP3    H234597   1.996   6.207  10.369 -2.0462 -0.8135 -0.5652
 3468TIP3   OH234598   2.305   7.250   8.596  0.0894  0.1151  0.0920
 3468TIP3    H134599   2.307   7.275   8.689 -0.5792 -1.3352  0.5226
 3468TIP3    H234600   2.286   7.156   8.597 -1.8827  0.4251 -1.5481
 3469TIP3   OH234601   3.833   5.715  10.614  0.1669  0.5545  0.0631
 3469TIP3    H134602   3.768   5.782  10.594 -1.1345 -0.5527  0.4159
 3469TIP3    H234603   3.797   5.635  10.576  1.7911  0.0672 -0.5489
 3470TIP3   OH234604   6.182   4.933   8.861 -0.1253 -0.7709 -0.1988
 3470TIP3    H134605   6.101   4.925   8.811  0.8307  0.3091 -2.0774
 3470TIP3    H234606   6.238   4.864   8.826  0.2467 -0.5803  0.0123
 3471TIP3   OH234607   4.330   1.010  10.524  0.0908 -0.0739 -0.0435
 3471TIP3    H134608   4.357   0.934  10.575  1.6441 -0.9497 -2.0252
 3471TIP3    H234609   4.323   1.081  10.588 -1.3878 -1.8182  1.8623
 3472TIP3   OH234610   5.495   0.163  11.016 -0.3503  0.1219  0.4235
 3472TIP3    H134611   5.571   0.183  11.070 -0.0320 -0.9365  0.3930
 3472TIP3    H234612   5.504   0.219  10.939  0.3953  0.0017  0.4217
 3473TIP3   OH234613   7.577   1.252  11.438  0.0784  0.2508 -0.5778
 3473TIP3    H134614   7.636   1.200  11.493  0.1834 -0.1491 -1.0563
 3473TIP3    H234615   7.626   1.332  11.421  1.0178 -0.5667 -1.9585
 3474TIP3   OH234616   2.248   4.989   8.717  0.0299 -0.0764 -0.3677
 3474TIP3    H134617   2.226   4.897   8.700 -0.1024  0.1254 -1.3258
 3474TIP3    H234618   2.328   5.004   8.668 -0.1909  0.4371 -0.5736
 3475TIP3   OH234619   3.018   7.552  10.547 -1.1831  0.5641 -0.2191
 3475TIP3    H134620   3.068   7.575  10.626  2.0833 -3.9151 -0.5930
 3475TIP3    H234621   2.930   7.533  10.580 -0.9131  2.2300  1.6806
 3476TIP3   OH234622   2.243   6.959  11.203  0.3440 -0.0595  0.1975
 3476TIP3    H134623   2.327   6.963  11.248  0.5834  0.2896 -0.2708
 3476TIP3    H234624   2.229   7.048  11.169 -1.1780  0.4487  1.9933
 3477TIP3   OH234625   3.988   2.500  10.391  0.4789  0.0403  0.1018
 3477TIP3    H134626   3.912   2.519  10.446 -0.4622  0.7478 -1.3826
 3477TIP3    H234627   3.965   2.418  10.346  0.5005  0.3564 -0.4956
 3478TIP3   OH234628   0.412   3.055  11.111  0.4896 -0.0529 -0.0761
 3478TIP3    H134629   0.437   3.147  11.102  0.3646 -0.0782 -0.7382
 3478TIP3    H234630   0.495   3.007  11.117  0.5570  0.0893  0.1217
 3479TIP3   OH234631   1.119   2.539   9.561 -0.4180 -0.0764 -0.3288
 3479TIP3    H134632   1.072   2.456   9.561 -0.3741 -0.1179  0.5396
 3479TIP3    H234633   1.186   2.529   9.494 -1.1211 -0.3183 -1.0078
 3480TIP3   OH234634   2.676   3.334   9.852  0.0876  0.2674 -0.3632
 3480TIP3    H134635   2.768   3.353   9.868  0.0007 -0.6036  1.3205
 3480TIP3    H234636   2.629   3.379   9.922 -0.8156  0.9510 -1.3711
 3481TIP3   OH234637   6.217   3.814   9.097 -0.4512 -0.1104 -0.1361
 3481TIP3    H134638   6.159   3.815   9.020 -2.6791  0.5078  1.4456
 3481TIP3    H234639   6.225   3.906   9.123 -1.1254 -0.4333  1.3195
 3482TIP3   OH234640   6.176   0.703  10.421 -0.0080 -0.2038  0.4526
 3482TIP3    H134641   6.230   0.748  10.487 -0.7942 -1.9691  2.4284
 3482TIP3    H234642   6.232   0.632  10.389 -0.4461 -0.8251  1.0392
 3483TIP3   OH234643   4.689   3.229  11.021  0.0739 -0.0943 -0.2055
 3483TIP3    H134644   4.667   3.153  11.074  0.4389 -0.2578 -0.2785
 3483TIP3    H234645   4.617   3.290  11.034  0.4102  0.0881  0.8879
 3484TIP3   OH234646   1.944   6.206   9.817  0.2208 -0.3689  0.0302
 3484TIP3    H134647   1.961   6.290   9.774  0.5126 -0.1568  0.5651
 3484TIP3    H234648   1.848   6.203   9.825 -0.1320 -1.6653 -3.1821
 3485TIP3   OH234649   3.301   4.844   9.470  0.8824  0.6815  0.3073
 3485TIP3    H134650   3.233   4.845   9.538  0.7079 -0.6785  0.1953
 3485TIP3    H234651   3.264   4.897   9.399 -0.7482 -1.1551 -0.3294
 3486TIP3   OH234652   5.162   2.555   9.306 -0.5481 -0.3561 -0.9486
 3486TIP3    H134653   5.153   2.648   9.284  2.3337  0.1295 -0.5774
 3486TIP3    H234654   5.211   2.555   9.389 -0.7574 -2.2158 -0.7829
 3487TIP3   OH234655   3.160   2.096  10.356  0.4076  0.1643 -0.5118
 3487TIP3    H134656   3.134   2.123  10.268 -1.0199  1.3316  0.2189
 3487TIP3    H234657   3.082   2.112  10.410  0.4976 -2.5635  0.5947
 3488TIP3   OH234658   4.692   6.445  10.825 -0.2264  0.2901 -0.2024
 3488TIP3    H134659   4.696   6.351  10.839  1.9691  0.5595  1.6385
 3488TIP3    H234660   4.609   6.472  10.865  0.7076 -0.4978  2.5207
 3489TIP3   OH234661   2.326   1.545   9.041 -0.2326  0.4601  0.1071
 3489TIP3    H134662   2.397   1.581   8.987 -0.6749  1.7866  0.3875
 3489TIP3    H234663   2.333   1.450   9.028  0.4557  0.6691 -1.2882
 3490TIP3   OH234664   2.310   2.369   8.965 -0.7777 -0.0447  0.4498
 3490TIP3    H134665   2.264   2.318   8.899 -0.1421  1.1557 -0.9706
 3490TIP3    H234666   2.390   2.319   8.983 -1.4962 -0.9699  1.2423
 3491TIP3   OH234667   7.310   5.879  10.002 -0.5684  0.2888  0.0059
 3491TIP3    H134668   7.352   5.955  10.042 -1.9015  0.4290  1.2556
 3491TIP3    H234669   7.345   5.875   9.914 -0.3688  2.2945 -0.0552
 3492TIP3   OH234670   3.129   7.177  10.338  0.3921  0.1688 -0.6330
 3492TIP3    H134671   3.076   7.190  10.416 -0.6127 -0.7186 -1.1591
 3492TIP3    H234672   3.079   7.219  10.267 -0.3429 -1.8798 -1.3885
 3493TIP3   OH234673   7.640   1.775  11.235  0.2312 -0.1742  0.0996
 3493TIP3    H134674   7.723   1.783  11.281  0.7396 -2.4182 -0.2914
 3493TIP3    H234675   7.613   1.684  11.249 -1.7856  0.2745 -0.4268
 3494TIP3   OH234676   0.602   7.105   9.443  0.1512  0.6045 -0.0547
 3494TIP3    H134677   0.592   7.042   9.371 -5.0952  0.9080  0.0697
 3494TIP3    H234678   0.644   7.054   9.513  0.6274 -1.2205 -1.5782
 3495TIP3   OH234679   4.202   1.315  10.082  0.1931 -0.0892  0.0872
 3495TIP3    H134680   4.274   1.277  10.131  1.0537  1.6352  0.2566
 3495TIP3    H234681   4.183   1.251  10.013  1.0578 -1.1198  0.7772
 3496TIP3   OH234682   1.209   3.295   8.711  0.1742  0.0529  0.0232
 3496TIP3    H134683   1.199   3.336   8.625 -0.1065 -0.1745 -0.0567
 3496TIP3    H234684   1.302   3.272   8.716  0.5562  1.5746  0.4787
 3497TIP3   OH234685   1.667   3.991  10.225  0.2679  0.0398  0.3793
 3497TIP3    H134686   1.685   3.993  10.319 -1.3969  3.0245  0.7883
 3497TIP3    H234687   1.579   3.953  10.219  0.5190 -0.4811 -0.0166
 3498TIP3   OH234688   4.532   3.957  10.865 -0.2998 -0.5162 -0.4509
 3498TIP3    H134689   4.540   4.043  10.825 -2.3287  0.8729  1.8328
 3498TIP3    H234690   4.457   3.965  10.925  0.0940 -3.5543  0.6367
 3499TIP3   OH234691   1.083   6.056   8.521 -0.0153  0.2305 -0.3514
 3499TIP3    H134692   1.128   6.047   8.605  1.0660  1.2620 -0.7861
 3499TIP3    H234693   1.030   5.977   8.513  4.6138 -3.2135 -1.5341
 3500TIP3   OH234694   4.806   2.147  10.652 -0.7238 -0.2055 -0.5294
 3500TIP3    H134695   4.711   2.153  10.646 -0.8180 -2.2500 -1.9690
 3500TIP3    H234696   4.822   2.114  10.741 -1.3925 -0.5071 -0.5140
 3501TIP3   OH234697   2.465   6.905  10.444 -0.0192  0.7349  0.2736
 3501TIP3    H134698   2.481   6.842  10.375 -0.8709 -1.0308  1.6037
 3501TIP3    H234699   2.482   6.857  10.525 -1.3302  1.9955  1.3619
 3502TIP3   OH234700   3.014   6.388  10.782  0.4187 -0.0900  0.0452
 3502TIP3    H134701   3.065   6.468  10.773 -0.3054  0.3984  0.1951
 3502TIP3    H234702   2.947   6.410  10.847 -1.3386 -0.0128 -1.7000
 3503TIP3   OH234703   0.127   3.603  10.469  0.6471 -0.1203 -0.2226
 3503TIP3    H134704   0.038   3.570  10.480  0.4722  0.2834 -0.4155
 3503TIP3    H234705   0.148   3.644  10.553  1.8821 -3.0586  1.0330
 3504TIP3   OH234706   5.746   6.374  10.591 -0.2226  0.0843 -0.4374
 3504TIP3    H134707   5.772   6.318  10.664 -0.9875 -0.0594 -0.2718
 3504TIP3    H234708   5.767   6.322  10.513 -0.1056 -0.0651 -0.3071
 3505TIP3   OH234709   0.384   2.362  10.043 -0.5153 -0.0069 -0.2260
 3505TIP3    H134710   0.391   2.295   9.975 -2.5947  0.2020 -0.7085
 3505TIP3    H234711   0.428   2.438  10.005 -2.0054  0.2372 -1.5864
 3506TIP3   OH234712   7.460   5.123   8.577 -0.2184  0.1385  0.2630
 3506TIP3    H134713   7.473   5.029   8.589 -1.6088 -0.4327 -1.9729
 3506TIP3    H234714   7.541   5.163   8.608 -0.1689 -1.6367  2.6450
 3507TIP3   OH234715   0.425   2.752   9.423 -0.2541 -0.0470 -0.4065
 3507TIP3    H134716   0.510   2.714   9.398 -0.1675 -0.4633  0.4924
 3507TIP3    H234717   0.366   2.676   9.426  0.3111 -0.5291  3.2062
 3508TIP3   OH234718   5.361   1.436   9.314  0.0511 -0.5394  0.0580
 3508TIP3    H134719   5.378   1.444   9.220  1.7989  0.2974  0.4236
 3508TIP3    H234720   5.293   1.501   9.331  1.8203  1.4506 -0.1345
 3509TIP3   OH234721   4.465   2.939   9.495  0.3535  0.1140  0.1989
 3509TIP3    H134722   4.444   2.888   9.574  0.0687 -1.8602 -1.0962
 3509TIP3    H234723   4.413   2.898   9.426  2.7704 -0.1031 -1.5998
 3510TIP3   OH234724   2.279   4.659   9.011  0.9820 -0.6925 -0.0003
 3510TIP3    H134725   2.349   4.654   8.947  0.2473 -0.5596 -0.8317
 3510TIP3    H234726   2.215   4.719   8.973 -0.0168 -1.5217  0.3145
 3511TIP3   OH234727   5.475   3.085   8.462 -0.1734 -0.0524  0.4176
 3511TIP3    H134728   5.449   2.993   8.462  0.2810 -0.2093 -1.1583
 3511TIP3    H234729   5.412   3.128   8.519  0.0435 -1.4476  1.7721
 3512TIP3   OH234730   0.845   7.574  11.078 -0.2620  0.2190  0.0418
 3512TIP3    H134731   0.895   7.632  11.135  0.1383 -0.5096  0.4477
 3512TIP3    H234732   0.902   7.498  11.065 -1.1396 -0.4981  0.2824
 3513TIP3   OH234733   2.234   1.307  11.045  0.0158  0.0543 -0.4121
 3513TIP3    H134734   2.294   1.262  11.104 -0.6816  1.5595  1.5815
 3513TIP3    H234735   2.286   1.381  11.011 -0.2688  0.5864  0.2719
 3514TIP3   OH234736   4.072   7.526   8.274 -0.1433 -0.3680 -0.8998
 3514TIP3    H134737   3.983   7.517   8.241 -0.7298 -0.6121  0.6778
 3514TIP3    H234738   4.083   7.620   8.288  0.0923 -0.2683 -1.7097
 3515TIP3   OH234739   6.256   3.133  10.433 -0.0950 -0.3369  0.5143
 3515TIP3    H134740   6.262   3.212  10.379 -1.0408 -0.8406 -0.3861
 3515TIP3    H234741   6.215   3.068  10.375 -4.5774  0.0657  2.7363
 3516TIP3   OH234742   1.637   2.886   9.784  0.0294 -0.0540  0.1177
 3516TIP3    H134743   1.679   2.925   9.860  1.0303 -0.8214 -0.0307
 3516TIP3    H234744   1.604   2.802   9.816  0.0740 -0.1871 -0.1874
 3517TIP3   OH234745   7.018   2.188   8.919 -0.2114  0.1613 -0.1781
 3517TIP3    H134746   7.033   2.198   9.013 -0.0741 -1.1078 -0.0542
 3517TIP3    H234747   6.975   2.269   8.893  0.4047  0.8337  0.8364
 3518TIP3   OH234748   3.332   4.990   9.756  0.1704  0.4386 -0.5274
 3518TIP3    H134749   3.276   5.062   9.728 -1.2359 -1.0750 -1.8820
 3518TIP3    H234750   3.364   5.016   9.843 -1.2382  2.1456 -0.4625
 3519TIP3   OH234751   6.170   5.695  10.714  0.4753  0.0198  0.3710
 3519TIP3    H134752   6.098   5.739  10.757  0.2671  1.0520 -0.9775
 3519TIP3    H234753   6.136   5.608  10.691 -0.2419  0.3915  0.0216
 3520TIP3   OH234754   0.992   1.579   9.060 -0.0928 -0.1780  0.3030
 3520TIP3    H134755   1.047   1.526   9.002 -0.4973 -0.6136  0.3056
 3520TIP3    H234756   0.903   1.550   9.042 -0.3364  0.6187  0.2005
 3521TIP3   OH234757   1.308   0.021   8.932 -0.0232 -0.3296 -0.3779
 3521TIP3    H134758   1.312  -0.075   8.931  2.8342 -0.3669  1.8602
 3521TIP3    H234759   1.313   0.046   8.840 -1.9319 -2.2727 -1.0970
 3522TIP3   OH234760   6.607   6.513  10.319  0.3872 -0.6134  0.2636
 3522TIP3    H134761   6.615   6.562  10.238  1.5407  2.2713  1.9708
 3522TIP3    H234762   6.696   6.513  10.356 -0.1298 -1.7054  1.6062
 3523TIP3   OH234763   2.923   2.016  10.049  0.2687 -0.4993 -0.0309
 3523TIP3    H134764   2.887   2.000   9.961 -2.7033 -2.0952  1.3041
 3523TIP3    H234765   2.898   2.107  10.069 -0.1110 -0.5206 -0.3913
 3524TIP3   OH234766   6.960   2.756  10.392  0.3566  0.1191  0.4107
 3524TIP3    H134767   6.886   2.695  10.397  0.4774  0.0314  1.3535
 3524TIP3    H234768   6.920   2.841  10.373  0.1228 -0.1205 -0.1930
 3525TIP3   OH234769   3.605   6.600  10.341  0.1820  0.0456  0.4198
 3525TIP3    H134770   3.671   6.532  10.327 -2.1903 -2.3846  0.2269
 3525TIP3    H234771   3.624   6.634  10.429  1.7830 -0.4096  0.2811
 3526TIP3   OH234772   4.162   3.599   8.963 -0.1289  0.4990 -0.4025
 3526TIP3    H134773   4.085   3.592   8.905 -1.5987 -0.5737  1.5607
 3526TIP3    H234774   4.126   3.591   9.051  2.3281 -0.7110  0.5668
 3527TIP3   OH234775   2.703   6.225  11.103  0.1897 -0.5584  0.4204
 3527TIP3    H134776   2.788   6.245  11.064 -0.9794  1.9893 -1.1210
 3527TIP3    H234777   2.709   6.258  11.193  1.1709 -1.4641  0.6993
 3528TIP3   OH234778   2.332   1.829   9.992 -0.4533  0.6157 -0.3900
 3528TIP3    H134779   2.304   1.746   9.954  1.2893 -1.0473  1.6833
 3528TIP3    H234780   2.415   1.849   9.948 -0.2712  0.6024 -0.0604
 3529TIP3   OH234781   3.898   3.890   8.936 -0.1798  0.0015 -0.1349
 3529TIP3    H134782   3.834   3.858   9.000 -0.6809  0.8164 -0.2175
 3529TIP3    H234783   3.957   3.816   8.922 -0.7901 -0.5851  0.3477
 3530TIP3   OH234784   7.081   4.804   9.775  0.4577 -0.1329 -0.3928
 3530TIP3    H134785   6.993   4.785   9.744  0.4841 -0.9973  0.0344
 3530TIP3    H234786   7.070   4.871   9.843  0.3172  1.1131 -1.6090
 3531TIP3   OH234787   3.846   3.297  10.742 -0.2252  0.6960 -0.1942
 3531TIP3    H134788   3.908   3.338  10.681 -1.5621 -1.8172 -3.5505
 3531TIP3    H234789   3.886   3.212  10.763  0.1666  1.4687  2.5522
 3532TIP3   OH234790   6.353   0.749   9.889 -0.1186  0.0036 -0.1663
 3532TIP3    H134791   6.334   0.842   9.902 -0.7923 -0.2415  0.7369
 3532TIP3    H234792   6.279   0.716   9.837 -0.1098 -0.1142 -0.1047
 3533TIP3   OH234793   4.363   1.242  10.678 -0.1224  0.2717  0.1826
 3533TIP3    H134794   4.435   1.199  10.726  0.9113  1.6761 -0.0513
 3533TIP3    H234795   4.395   1.331  10.662 -1.0338  0.2868 -1.8431
 3534TIP3   OH234796   0.709   6.257   9.537 -0.3079 -0.1863  0.4964
 3534TIP3    H134797   0.635   6.204   9.566 -1.5726  0.5018 -1.2948
 3534TIP3    H234798   0.671   6.342   9.514  1.0492  0.2214 -0.3787
 3535TIP3   OH234799   6.710   0.783   9.482 -0.6487  0.0705  0.1083
 3535TIP3    H134800   6.749   0.823   9.560  0.4475 -0.1914 -0.2805
 3535TIP3    H234801   6.767   0.810   9.410 -0.8882 -0.7585 -0.4103
 3536TIP3   OH234802   4.083   0.708  11.215  0.1392  0.1636  0.6172
 3536TIP3    H134803   4.141   0.762  11.162  0.1451 -0.2045  0.2374
 3536TIP3    H234804   4.010   0.766  11.237  1.3433  1.0905  2.3761
 3537TIP3   OH234805   7.030   6.666  10.503 -0.1795 -0.7395 -0.0140
 3537TIP3    H134806   7.021   6.735  10.569 -0.6340 -0.8335  0.0233
 3537TIP3    H234807   7.115   6.683  10.462 -0.3718 -0.0453 -0.1305
 3538TIP3   OH234808   6.439   2.272   9.492  0.1778  0.0437 -0.6606
 3538TIP3    H134809   6.480   2.185   9.489  0.3411  0.1241 -0.7362
 3538TIP3    H234810   6.455   2.303   9.581 -0.6750 -0.3882 -0.3387
 3539TIP3   OH234811   1.483   7.644   9.330 -0.2647  0.0482 -0.4031
 3539TIP3    H134812   1.528   7.592   9.263 -0.2960 -0.8016  0.2201
 3539TIP3    H234813   1.516   7.609   9.413 -1.1476  0.2622  0.0396
 3540TIP3   OH234814   2.185   3.358  11.412 -0.0657  0.2197  0.2980
 3540TIP3    H134815   2.234   3.407  11.346  1.5930 -1.1310  0.4356
 3540TIP3    H234816   2.143   3.287  11.362 -0.2182  0.1997  0.4544
 3541TIP3   OH234817   2.242   4.441   8.651  0.2568  0.0286  0.7790
 3541TIP3    H134818   2.158   4.397   8.662 -0.6474  1.3379 -0.4760
 3541TIP3    H234819   2.258   4.440   8.556  0.5410  1.7189  0.7688
 3542TIP3   OH234820   7.221   7.183  10.283  0.3491  0.0664  0.3554
 3542TIP3    H134821   7.143   7.238  10.287  1.8635  2.2996  1.2151
 3542TIP3    H234822   7.291   7.242  10.254  1.8297 -1.7214  0.0825
 3543TIP3   OH234823   1.193   6.897   8.924 -0.6297 -0.7658  0.4604
 3543TIP3    H134824   1.220   6.982   8.889  2.0380 -0.4599  2.9008
 3543TIP3    H234825   1.098   6.897   8.917 -0.5441  1.1038 -2.3701
 3544TIP3   OH234826   3.917   1.384   8.330 -0.2042 -0.4831  0.1720
 3544TIP3    H134827   3.930   1.325   8.256 -0.6826 -0.3644 -0.0130
 3544TIP3    H234828   3.831   1.360   8.365  0.2790 -0.9575  1.0808
 3545TIP3   OH234829   2.233   2.448   9.230  0.1996 -0.1203  0.0200
 3545TIP3    H134830   2.167   2.389   9.267 -0.3204  0.8644  0.7210
 3545TIP3    H234831   2.259   2.407   9.148 -1.4066 -0.4568 -0.3614
 3546TIP3   OH234832   1.744   4.244  10.253 -0.2031 -0.6498  0.1196
 3546TIP3    H134833   1.779   4.170  10.204 -1.0582  0.1248 -1.7852
 3546TIP3    H234834   1.652   4.222  10.267 -0.6790  0.3597 -1.2002
 3547TIP3   OH234835   4.010   0.963  10.582  0.0661 -0.6220 -0.1305
 3547TIP3    H134836   4.012   0.953  10.487 -2.6188  0.5208 -0.3947
 3547TIP3    H234837   3.975   0.880  10.614 -1.5472 -0.1006 -0.4314
 3548TIP3   OH234838   2.588   3.307  10.136 -0.3575  0.1117 -0.2574
 3548TIP3    H134839   2.496   3.333  10.140 -0.8304 -1.4268 -0.5282
 3548TIP3    H234840   2.587   3.212  10.142  1.2769  0.1010  0.4782
 3549TIP3   OH234841   1.711   6.006   9.239 -0.2186 -0.2350 -0.3724
 3549TIP3    H134842   1.778   6.070   9.262  0.8204 -1.3407 -0.2344
 3549TIP3    H234843   1.736   5.976   9.151  0.1459 -1.4740  0.1307
 3550TIP3   OH234844   6.734   7.052   9.849  0.4922 -0.2560 -0.1410
 3550TIP3    H134845   6.747   7.146   9.861  0.0186 -0.1834 -0.1657
 3550TIP3    H234846   6.818   7.020   9.817  0.3898  0.3116 -1.0205
 3551TIP3   OH234847   2.267   4.959  10.960  0.4880  0.1825 -1.1239
 3551TIP3    H134848   2.225   4.897  10.900  0.6116  0.7880 -1.8447
 3551TIP3    H234849   2.242   5.045  10.927 -1.5751  0.5775  1.1863
 3552TIP3   OH234850   4.915   1.734   9.598 -0.1355 -0.2342 -0.1589
 3552TIP3    H134851   4.972   1.807   9.575  0.3484 -0.9124 -1.2613
 3552TIP3    H234852   4.831   1.754   9.556 -0.4196  0.3187  0.6698
 3553TIP3   OH234853   2.206   2.304  10.220  0.2979  0.3717 -0.0367
 3553TIP3    H134854   2.135   2.280  10.162 -0.3816  0.4948  0.7242
 3553TIP3    H234855   2.285   2.296  10.167  0.0323 -2.4309 -0.1490
 3554TIP3   OH234856   0.406   2.315   8.370 -0.1912 -0.1227  0.3193
 3554TIP3    H134857   0.436   2.370   8.442 -1.4630  1.3461 -0.2001
 3554TIP3    H234858   0.485   2.294   8.320  0.5185 -0.0456  1.3850
 3555TIP3   OH234859   4.390   1.588   8.380  0.3097  0.2833  0.2941
 3555TIP3    H134860   4.466   1.530   8.394  0.4206  0.0545 -1.0733
 3555TIP3    H234861   4.338   1.542   8.314 -0.6164  0.8236  0.6461
 3556TIP3   OH234862   2.574   4.837  10.811 -0.5433  0.3950 -0.3171
 3556TIP3    H134863   2.528   4.753  10.811  2.9742 -1.8711  2.7912
 3556TIP3    H234864   2.555   4.875  10.726 -3.9248 -2.5686 -1.1162
 3557TIP3   OH234865   3.500   5.957  11.099  0.0207 -0.0740 -0.0817
 3557TIP3    H134866   3.545   6.017  11.040  0.2856 -0.7199 -0.5483
 3557TIP3    H234867   3.555   5.955  11.177 -1.1061  1.9593  0.8426
 3558TIP3   OH234868   5.493   0.705  10.736  0.0879 -0.4339 -0.4772
 3558TIP3    H134869   5.399   0.692  10.750  0.0610 -3.0695 -2.3012
 3558TIP3    H234870   5.501   0.720  10.642  1.4991 -0.1555 -0.3289
 3559TIP3   OH234871   1.213   0.429   9.361  0.2153 -0.6233  0.0390
 3559TIP3    H134872   1.226   0.392   9.273 -0.4185 -0.5004 -0.1079
 3559TIP3    H234873   1.191   0.353   9.415 -0.9344 -0.4955 -0.2318
 3560TIP3   OH234874   5.380   1.284  10.887 -0.4879 -0.4873 -0.4621
 3560TIP3    H134875   5.408   1.372  10.914 -1.5632  0.0288 -0.9696
 3560TIP3    H234876   5.459   1.230  10.895 -0.2607  0.0491  1.8324
 3561TIP3   OH234877   4.223   2.300   9.508  0.4943  0.3218  0.3718
 3561TIP3    H134878   4.155   2.366   9.522 -1.0806 -1.7576  3.7916
 3561TIP3    H234879   4.303   2.341   9.542 -0.4876  0.4727  2.6417
 3562TIP3   OH234880   5.860   5.113   8.256 -0.4201 -0.1334  0.1200
 3562TIP3    H134881   5.873   5.172   8.181 -0.5704  1.8424  1.5663
 3562TIP3    H234882   5.787   5.057   8.229 -0.5687  0.6142 -1.1622
 3563TIP3   OH234883   0.972   0.443   8.487 -0.3762 -0.8734 -1.0860
 3563TIP3    H134884   0.890   0.490   8.498  0.2461 -0.1104  0.7345
 3563TIP3    H234885   0.981   0.391   8.567  1.0092 -0.7378 -1.1191
 3564TIP3   OH234886   1.237   0.096  10.537  0.9001  0.1328  0.0733
 3564TIP3    H134887   1.159   0.054  10.573  0.7099  0.6012  0.2252
 3564TIP3    H234888   1.307   0.032  10.548  0.1626 -1.0786 -1.8625
 3565TIP3   OH234889   7.532   6.456  10.254 -0.5005  0.2259 -0.6434
 3565TIP3    H134890   7.450   6.441  10.207 -1.5456 -0.2186  1.2164
 3565TIP3    H234891   7.535   6.551  10.267  0.7546  0.6082 -3.1438
 3566TIP3   OH234892   3.963   7.573   9.110  0.3938  0.5429  0.2441
 3566TIP3    H134893   4.034   7.512   9.087 -0.3154 -0.5482  0.8692
 3566TIP3    H234894   3.901   7.565   9.037 -0.0061  0.0085  0.6324
 3567TIP3   OH234895   5.090   2.442  10.644 -0.2567  0.0004  0.3496
 3567TIP3    H134896   5.123   2.523  10.603 -2.8061  0.8223 -0.2340
 3567TIP3    H234897   5.032   2.404  10.579  0.5287 -2.0990  0.8163
 3568TIP3   OH234898   3.291   1.115   9.150  0.1912 -0.5502 -0.5587
 3568TIP3    H134899   3.283   1.123   9.245  1.6755 -1.7936 -0.2811
 3568TIP3    H234900   3.301   1.021   9.135  5.0686 -0.1479 -1.3941
 3569TIP3   OH234901   6.283   0.395  10.285 -0.5781 -0.0112  0.4451
 3569TIP3    H134902   6.266   0.468  10.226  0.5669 -0.8642 -0.9989
 3569TIP3    H234903   6.330   0.435  10.359  0.3548  0.6764 -0.4844
 3570TIP3   OH234904   4.064   2.527   9.556  0.4187 -0.2868  0.0683
 3570TIP3    H134905   3.980   2.536   9.600 -0.3381 -1.7319 -1.0047
 3570TIP3    H234906   4.126   2.573   9.613 -0.7276 -1.0024  1.9847
 3571TIP3   OH234907   6.698   7.619  10.106 -0.5045 -0.2239 -0.3722
 3571TIP3    H134908   6.648   7.690  10.144 -0.6699 -0.5029 -0.0614
 3571TIP3    H234909   6.726   7.651  10.020  1.4577  1.1555  0.6927
 3572TIP3   OH234910   1.568   1.279  10.857 -0.1494  0.5435 -0.0504
 3572TIP3    H134911   1.634   1.243  10.798  0.8566  1.1264  0.7023
 3572TIP3    H234912   1.505   1.322  10.799 -0.0404 -0.2717 -0.7918
 3573TIP3   OH234913   5.835   7.415  10.318 -0.1984  0.2784 -0.3902
 3573TIP3    H134914   5.874   7.343  10.368 -0.3805  1.2532  1.2288
 3573TIP3    H234915   5.909   7.461  10.279  0.0589  0.4023  0.2461
 3574TIP3   OH234916   3.530   6.045  10.151 -0.0917 -0.0459 -0.2023
 3574TIP3    H134917   3.508   6.091  10.070 -0.2334  0.0076 -0.1321
 3574TIP3    H234918   3.524   6.112  10.219 -1.4245 -0.4281  0.0681
 3575TIP3   OH234919   3.204   2.770  11.205 -0.5001 -0.4276 -0.3531
 3575TIP3    H134920   3.207   2.805  11.294 -0.0325 -0.5961 -0.3022
 3575TIP3    H234921   3.271   2.819  11.157 -0.6617 -0.4267 -0.5790
 3576TIP3   OH234922   2.115   1.798   9.658  0.7078  0.0260 -0.0187
 3576TIP3    H134923   2.095   1.747   9.580  0.9661 -0.2254  0.0786
 3576TIP3    H234924   2.168   1.740   9.712  0.7498  0.2899  0.2279
 3577TIP3   OH234925   4.938   6.138   9.220 -0.7520 -0.2527  0.3206
 3577TIP3    H134926   4.844   6.147   9.203 -0.8701  2.4562  1.8556
 3577TIP3    H234927   4.943   6.093   9.304 -0.7688  0.8151  0.9120
 3578TIP3   OH234928   4.836   6.657  10.950  0.2235 -0.7249  0.6003
 3578TIP3    H134929   4.843   6.737  10.897  1.0499 -0.5918  0.8916
 3578TIP3    H234930   4.797   6.593  10.891  1.9897 -0.8631 -0.5228
 3579TIP3   OH234931   1.761   5.585  10.634 -0.1968  0.1711  0.4407
 3579TIP3    H134932   1.848   5.560  10.663 -0.5988 -2.9078 -0.6035
 3579TIP3    H234933   1.768   5.591  10.539 -0.6775  2.1131  0.4866
 3580TIP3   OH234934   7.468   2.331   9.787 -0.5377 -0.3719 -0.2649
 3580TIP3    H134935   7.493   2.276   9.861 -0.0066  0.3453  0.1038
 3580TIP3    H234936   7.474   2.273   9.711  0.7742 -0.6411  0.0095
 3581TIP3   OH234937   0.262   6.780   8.647 -0.0242  0.1677 -0.0990
 3581TIP3    H134938   0.323   6.793   8.720 -1.3871  0.6083  1.0099
 3581TIP3    H234939   0.302   6.827   8.574  0.3455  1.5729  0.9502
 3582TIP3   OH234940   0.859   4.686  10.337  0.0583  0.3802 -0.0636
 3582TIP3    H134941   0.877   4.774  10.305  0.2803  0.1436 -0.5992
 3582TIP3    H234942   0.795   4.699  10.406 -0.8611  0.8522 -0.9811
 3583TIP3   OH234943   0.271   5.209  10.531  0.8364  0.3563  0.3496
 3583TIP3    H134944   0.289   5.217  10.438  0.1668 -1.0705  0.0688
 3583TIP3    H234945   0.306   5.290  10.569  2.9951  0.0590 -0.8248
 3584TIP3   OH234946   3.840   1.242  10.147  0.2207  0.1698  0.0845
 3584TIP3    H134947   3.795   1.158  10.139  0.3711 -0.1219  1.9426
 3584TIP3    H234948   3.824   1.286  10.063 -1.0193 -1.1314 -0.3950
 3585TIP3   OH234949   1.985   7.576   9.841  0.1000  0.4527 -0.1920
 3585TIP3    H134950   2.003   7.525   9.920  0.3750 -0.3072 -0.7291
 3585TIP3    H234951   1.965   7.664   9.873  1.7681  0.5711  0.6195
 3586TIP3   OH234952   3.436   0.912  10.262 -0.6124  0.0513 -0.3613
 3586TIP3    H134953   3.413   0.886  10.351 -0.1967  0.7762 -0.0218
 3586TIP3    H234954   3.532   0.903  10.259 -0.4607  1.3059 -0.2690
 3587TIP3   OH234955   5.063   3.099   8.741  0.7879 -0.0209  0.6248
 3587TIP3    H134956   5.037   3.022   8.791  1.8983  0.0011  1.2692
 3587TIP3    H234957   5.031   3.173   8.793 -0.7573 -0.0179 -0.2617
 3588TIP3   OH234958   5.306   7.262   8.817  0.4156 -0.1886  0.3319
 3588TIP3    H134959   5.396   7.273   8.848  0.8792  0.0770 -0.9974
 3588TIP3    H234960   5.290   7.341   8.764 -0.2910 -0.6256 -0.1152
 3589TIP3   OH234961   2.549   5.071   8.530  0.5074  0.1697  0.5223
 3589TIP3    H134962   2.539   4.990   8.580 -1.7102 -0.3534 -0.6252
 3589TIP3    H234963   2.626   5.055   8.475  0.0803 -1.2419  0.2707
 3590TIP3   OH234964   6.738   3.561   9.258 -0.5224  0.0107 -0.1047
 3590TIP3    H134965   6.796   3.631   9.229 -0.3953  0.1353  0.4523
 3590TIP3    H234966   6.701   3.592   9.340 -1.4628 -0.0249 -0.5049
 3591TIP3   OH234967   2.647   6.047  10.918 -0.4522 -0.1016 -0.3230
 3591TIP3    H134968   2.668   5.956  10.943 -1.4316 -0.2489  0.0057
 3591TIP3    H234969   2.666   6.098  10.997 -0.1910 -0.0589 -0.4120
 3592TIP3   OH234970   4.894   3.422   8.455 -0.1813 -0.5881  0.0281
 3592TIP3    H134971   4.896   3.405   8.361  1.8322 -1.6597  0.2027
 3592TIP3    H234972   4.827   3.363   8.489  0.0574 -1.2142 -0.5671
 3593TIP3   OH234973   7.194   7.168   9.624  0.2592  0.2520 -0.5302
 3593TIP3    H134974   7.247   7.097   9.588  0.4952  0.1613 -0.0066
 3593TIP3    H234975   7.244   7.200   9.699 -0.2956  0.3495 -0.1967
 3594TIP3   OH234976   1.583   1.354   8.571 -0.3256 -0.0585  0.4382
 3594TIP3    H134977   1.524   1.429   8.580  1.7393  1.9673 -1.7020
 3594TIP3    H234978   1.541   1.298   8.506 -0.9261  0.2486  0.5535
 3595TIP3   OH234979   3.042   0.785   7.774 -0.8334 -0.2078 -0.0191
 3595TIP3    H134980   3.026   0.826   7.689  1.6264  1.4966  0.2213
 3595TIP3    H234981   3.043   0.691   7.756 -0.4611  0.1069 -1.8798
 3596TIP3   OH234982   0.896   0.515   9.623 -0.2058 -0.2907  0.1628
 3596TIP3    H134983   0.877   0.603   9.655  0.4123  0.1655 -0.6784
 3596TIP3    H234984   0.926   0.528   9.533 -2.2681 -1.5612 -0.7722
 3597TIP3   OH234985   2.418   3.180   9.812  0.4689 -0.3436  0.1140
 3597TIP3    H134986   2.505   3.211   9.838  0.9000  0.1680 -1.8126
 3597TIP3    H234987   2.430   3.147   9.723 -1.0008 -1.6915  0.3702
 3598TIP3   OH234988   7.334   1.109  10.258  0.1392  0.0310  0.4474
 3598TIP3    H134989   7.417   1.074  10.224  1.2005  0.5200  2.3765
 3598TIP3    H234990   7.268   1.047  10.227  1.2607 -0.6157 -0.7936
 3599TIP3   OH234991   7.341   5.223   8.847 -0.0780 -0.1085 -0.0449
 3599TIP3    H134992   7.277   5.266   8.790 -0.1265 -0.7445 -0.4822
 3599TIP3    H234993   7.392   5.168   8.788  0.7993  0.2973  0.3263
 3600TIP3   OH234994   7.276   1.394  10.563 -0.2291  0.3442 -0.3718
 3600TIP3    H134995   7.320   1.424  10.483 -1.4194 -0.0789 -1.2204
 3600TIP3    H234996   7.217   1.466  10.586 -0.3754  0.1917 -0.2697
 3601TIP3   OH234997   0.084   4.927  10.098  0.0669  0.1484 -0.1042
 3601TIP3    H134998   0.163   4.884  10.063  0.8707  2.1588 -0.9244
 3601TIP3    H234999   0.059   4.990  10.030 -0.9923  1.0367  1.0623
 3602TIP3   OH235000   6.742   2.607  10.349 -0.5478 -0.4597  0.7031
 3602TIP3    H135001   6.679   2.679  10.358  1.4263  1.3635  0.5222
 3602TIP3    H235002   6.722   2.568  10.264  0.0180  1.6004 -0.4317
 3603TIP3   OH235003   4.715   5.632   9.985 -0.6628 -0.1728  0.7416
 3603TIP3    H135004   4.808   5.649  10.001 -0.1751 -0.5539 -1.4498
 3603TIP3    H235005   4.696   5.678   9.903 -2.1161 -1.0814  0.5474
 3604TIP3   OH235006   5.697   3.282  10.227  0.2345 -0.2034  1.2294
 3604TIP3    H135007   5.623   3.320  10.179  1.8018  1.0848 -0.3025
 3604TIP3    H235008   5.660   3.257  10.311 -2.0456 -0.0290  0.3591
 3605TIP3   OH235009   7.124   1.272  11.223  0.1661 -0.3415  0.4266
 3605TIP3    H135010   7.200   1.287  11.280  1.4259 -0.1157 -1.2370
 3605TIP3    H235011   7.153   1.299  11.136 -1.7214 -0.6070 -0.3414
 3606TIP3   OH235012   5.281   2.366  11.047  0.3811 -0.4322 -0.0972
 3606TIP3    H135013   5.364   2.365  11.095  0.8078  1.0519 -0.7549
 3606TIP3    H235014   5.224   2.420  11.101 -0.5526 -2.2932  0.8943
 3607TIP3   OH235015   4.046   1.470  10.243 -0.1688 -0.2739  0.0056
 3607TIP3    H135016   4.014   1.409  10.309  1.3126  0.8502  1.8890
 3607TIP3    H235017   4.095   1.416  10.181 -1.0605 -1.2862  0.1640
 3608TIP3   OH235018   5.269   4.376  10.073  0.4064  0.5103 -0.5732
 3608TIP3    H135019   5.248   4.402  10.162 -1.2516 -0.0074 -0.7647
 3608TIP3    H235020   5.315   4.292  10.082  0.3313  0.5094 -0.2009
 3609TIP3   OH235021   6.789   7.318   9.915 -0.7304  0.8821 -0.2727
 3609TIP3    H135022   6.755   7.342  10.001 -0.4199 -2.1297  0.8261
 3609TIP3    H235023   6.884   7.312   9.927 -0.8245 -1.3434 -0.2270
 3610TIP3   OH235024   2.141   5.154   9.997  0.4840  0.4724 -0.5725
 3610TIP3    H135025   2.225   5.113  10.019  0.3295  1.5277  2.4714
 3610TIP3    H235026   2.151   5.244  10.026 -1.3143  0.9408 -1.3042
 3611TIP3   OH235027   3.255   6.802   9.708 -0.2368 -0.6238 -0.1153
 3611TIP3    H135028   3.162   6.789   9.725 -0.1164  0.1603  1.3562
 3611TIP3    H235029   3.299   6.758   9.782  0.4431  1.1970  0.6085
 3612TIP3   OH235030   3.339   3.068  11.252 -0.7791  0.8880  0.1466
 3612TIP3    H135031   3.321   3.079  11.158  0.0593  2.8933  0.1659
 3612TIP3    H235032   3.302   3.146  11.292 -0.7463  0.2558  1.4487
 3613TIP3   OH235033   2.798   2.043   9.779 -0.5203 -0.9127 -0.0868
 3613TIP3    H135034   2.741   2.020   9.705  0.1287  0.9385 -1.2440
 3613TIP3    H235035   2.834   2.129   9.755  0.7160 -0.8468  1.8173
 3614TIP3   OH235036   5.924   1.833  11.258  0.2934  0.4486 -0.0939
 3614TIP3    H135037   5.870   1.803  11.332  0.5647  0.6619  0.1957
 3614TIP3    H235038   5.930   1.756  11.201  1.0630 -0.1022  0.6917
 3615TIP3   OH235039   1.953   3.566   8.556  0.1950 -0.9904 -0.0765
 3615TIP3    H135040   2.009   3.510   8.609 -0.6944  0.7667  2.9452
 3615TIP3    H235041   1.982   3.655   8.577 -1.3665 -0.1691 -1.2421
 3616TIP3   OH235042   4.275   4.223   8.117 -0.3084 -0.1648  0.4431
 3616TIP3    H135043   4.317   4.181   8.042  0.1591 -1.5562  1.4342
 3616TIP3    H235044   4.323   4.305   8.128 -0.0831 -0.1629 -0.5014
 3617TIP3   OH235045   5.379   5.024   9.088  0.1471 -0.3346 -0.3240
 3617TIP3    H135046   5.295   5.048   9.129 -0.8383 -2.1177 -1.1802
 3617TIP3    H235047   5.360   5.022   8.994  1.0244 -1.2370 -0.4919
 3618TIP3   OH235048   0.219   2.997  11.330 -0.1386 -0.6093  0.2923
 3618TIP3    H135049   0.267   3.027  11.253 -0.0133 -0.3056  0.4840
 3618TIP3    H235050   0.278   3.016  11.403 -0.8624  0.5091  0.6117
 3619TIP3   OH235051   7.032   2.556   8.587  0.5232 -0.0068 -0.3297
 3619TIP3    H135052   6.971   2.490   8.554  1.9915 -1.5983 -0.0703
 3619TIP3    H235053   6.977   2.625   8.623 -1.1811 -2.0714  1.3365
 3620TIP3   OH235054   2.803   7.291   9.550  0.6260 -0.0548  0.2044
 3620TIP3    H135055   2.830   7.238   9.625 -0.0794 -1.2968 -0.3971
 3620TIP3    H235056   2.861   7.265   9.479  1.4663  1.3055  0.3502
 3621TIP3   OH235057   3.915   2.425  10.751 -0.0916  0.3299 -0.0688
 3621TIP3    H135058   3.981   2.390  10.691 -0.4026  0.0266 -0.2376
 3621TIP3    H235059   3.899   2.515  10.720  0.2511  0.4120 -0.0148
 3622TIP3   OH235060   4.166   7.409   9.009  0.0072 -0.0420  0.5390
 3622TIP3    H135061   4.258   7.404   9.035  0.1220  1.6904  0.6137
 3622TIP3    H235062   4.141   7.319   8.989  0.7592 -1.0788  3.7273
 3623TIP3   OH235063   5.047   0.500  10.131 -0.2701  0.3296  0.2294
 3623TIP3    H135064   4.982   0.437  10.098  1.9902 -1.4119 -1.2746
 3623TIP3    H235065   5.046   0.488  10.226 -1.7103 -0.0729  0.1888
 3624TIP3   OH235066   7.046   3.665   9.034  0.0921  0.0941 -0.1943
 3624TIP3    H135067   6.965   3.694   9.077 -0.0540  1.2036 -1.1655
 3624TIP3    H235068   7.098   3.744   9.024  0.7971 -0.4138 -0.6384
 3625TIP3   OH235069   1.638   6.427   9.892 -0.1485 -0.1887 -0.2577
 3625TIP3    H135070   1.681   6.460   9.814 -0.6787 -1.0395 -0.9263
 3625TIP3    H235071   1.648   6.332   9.886 -1.0798 -0.3234  0.1923
 3626TIP3   OH235072   3.526   3.870   9.921 -0.0806  0.3302 -0.3198
 3626TIP3    H135073   3.563   3.929   9.986 -0.4872  0.2205  0.0107
 3626TIP3    H235074   3.528   3.920   9.839  0.3312  0.5022 -0.2078
 3627TIP3   OH235075   2.211   3.250  11.154  0.1272 -0.3442 -0.1582
 3627TIP3    H135076   2.242   3.161  11.136  1.9864  0.3140 -0.3932
 3627TIP3    H235077   2.272   3.307  11.107 -1.5874  1.0674 -0.8331
 3628TIP3   OH235078   3.438   2.550   9.562 -0.0915  0.6219  0.2876
 3628TIP3    H135079   3.442   2.455   9.551  0.9404  0.7274 -0.3376
 3628TIP3    H235080   3.477   2.585   9.482 -2.4024  1.6405 -0.5048
 3629TIP3   OH235081   7.630   6.301   9.308 -0.2538  0.0459 -0.0886
 3629TIP3    H135082   7.540   6.317   9.280 -0.3862  1.3237  0.9596
 3629TIP3    H235083   7.645   6.365   9.378  0.9573 -1.1846  0.8221
 3630TIP3   OH235084   0.076   0.754  10.964 -0.1074 -0.1318  0.4396
 3630TIP3    H135085   0.169   0.738  10.980  0.1540  0.5288 -0.3452
 3630TIP3    H235086   0.031   0.684  11.011  0.7544 -0.1294  1.2967
 3631TIP3   OH235087   1.000   5.835   9.011  0.5088 -0.2812 -0.3345
 3631TIP3    H135088   1.061   5.784   8.958  1.9315  1.0812 -0.0874
 3631TIP3    H235089   1.024   5.816   9.101  0.0487 -0.3413 -0.2242
 3632TIP3   OH235090   2.035   6.272   9.073 -0.4520 -0.0692 -0.5576
 3632TIP3    H135091   1.982   6.351   9.062 -1.6486 -0.9953 -1.8239
 3632TIP3    H235092   2.117   6.293   9.028 -1.1004  0.1641 -1.6871
 3633TIP3   OH235093   2.335   7.336   8.845  0.5764  0.3469  0.1247
 3633TIP3    H135094   2.372   7.406   8.900 -0.3170 -0.4218  1.7488
 3633TIP3    H235095   2.243   7.333   8.868  0.4745 -0.9671 -0.3869
 3634TIP3   OH235096   0.716   0.161   8.495 -0.4972 -0.0208 -0.1087
 3634TIP3    H135097   0.766   0.085   8.523 -1.1355 -0.4191 -0.0088
 3634TIP3    H235098   0.720   0.159   8.399  0.4392  0.4801 -0.0814
 3635TIP3   OH235099   3.531   5.639   9.009  0.7311  0.0896  0.1086
 3635TIP3    H135100   3.460   5.634   8.945  1.3518 -0.5915 -0.5425
 3635TIP3    H235101   3.602   5.684   8.964  0.5791  1.1635  0.9008
 3636TIP3   OH235102   7.320   5.372  10.140 -0.3798  0.1668  0.4810
 3636TIP3    H135103   7.242   5.407  10.097 -0.4414 -0.4342  0.1072
 3636TIP3    H235104   7.392   5.396  10.082 -0.4456 -0.5065  0.1175
 3637TIP3   OH235105   4.508   3.303   8.956 -0.0817  0.3519 -0.5242
 3637TIP3    H135106   4.490   3.214   8.926 -0.8718 -1.1845  3.8170
 3637TIP3    H235107   4.599   3.319   8.930  0.4090 -2.1255 -0.5726
 3638TIP3   OH235108   5.952   2.246  11.032  0.0915 -0.2967 -0.0060
 3638TIP3    H135109   5.913   2.313  11.088 -0.5063 -1.0889  0.5463
 3638TIP3    H235110   5.891   2.172  11.035 -0.1492 -0.2387 -2.0172
 3639TIP3   OH235111   3.652   2.880  11.346 -0.1955 -0.1399 -0.4035
 3639TIP3    H135112   3.630   2.852  11.435  1.3444  0.1657  0.1025
 3639TIP3    H235113   3.611   2.814  11.290 -0.5389 -0.7743  0.5550
 3640TIP3   OH235114   2.859   5.949  10.544 -0.2961 -0.2578  0.4668
 3640TIP3    H135115   2.939   5.899  10.525 -0.1035  0.0102  0.5572
 3640TIP3    H235116   2.891   6.037  10.566 -0.5804 -0.2861  1.0170
 3641TIP3   OH235117   6.532   1.203   9.596  0.3532  0.4829  0.9661
 3641TIP3    H135118   6.611   1.163   9.559  0.1742  0.1717  0.9196
 3641TIP3    H235119   6.519   1.157   9.679 -0.2935 -0.0974  0.5522
 3642TIP3   OH235120   1.230   1.358  10.419 -0.8202  0.1883  0.2865
 3642TIP3    H135121   1.155   1.312  10.381 -3.4960  1.0309  3.9219
 3642TIP3    H235122   1.197   1.446  10.436  1.7653  1.2508  0.1709
 3643TIP3   OH235123   2.781   3.536   8.556  0.0059 -0.4754 -0.0950
 3643TIP3    H135124   2.699   3.486   8.557 -1.2210  1.3809 -1.0165
 3643TIP3    H235125   2.760   3.616   8.605  1.5709 -0.3559  0.4247
 3644TIP3   OH235126   3.042   3.856   9.115 -0.4978  0.1221  0.2606
 3644TIP3    H135127   3.048   3.941   9.159  0.1824  0.4361 -0.4259
 3644TIP3    H235128   3.097   3.798   9.169  0.1343  0.4483 -0.0189
 3645TIP3   OH235129   5.296   3.232   8.650 -0.2010  0.1802 -0.1677
 3645TIP3    H135130   5.242   3.311   8.654  0.6383  0.7244  1.5347
 3645TIP3    H235131   5.236   3.161   8.674 -0.7035  0.4398 -0.6334
 3646TIP3   OH235132   6.633   5.274   9.820 -0.4826 -0.1164 -0.5408
 3646TIP3    H135133   6.617   5.290   9.727  0.7718 -1.6639 -1.0700
 3646TIP3    H235134   6.677   5.189   9.822  1.5861  0.8912  1.2447
 3647TIP3   OH235135   1.129   3.501   9.460 -0.5414 -0.7935  0.1178
 3647TIP3    H135136   1.141   3.580   9.406 -0.4272 -0.2918  0.8584
 3647TIP3    H235137   1.210   3.451   9.447 -0.3289 -0.4651  0.1527
 3648TIP3   OH235138   1.504   5.285  10.096  0.3807  0.2459  0.3254
 3648TIP3    H135139   1.526   5.313  10.007  0.9923  0.7838  0.6378
 3648TIP3    H235140   1.446   5.210  10.084  0.8490  0.0094 -0.5284
 3649TIP3   OH235141   7.104   0.909   9.107 -0.2884  0.0331 -0.0826
 3649TIP3    H135142   7.025   0.880   9.062 -1.2103  0.4899  1.1636
 3649TIP3    H235143   7.106   1.004   9.092 -0.3232  0.1110  0.3762
 3650TIP3   OH235144   2.401   0.174  10.813  0.0819  0.1361  0.3172
 3650TIP3    H135145   2.453   0.094  10.813 -0.2104 -0.1384 -2.0769
 3650TIP3    H235146   2.311   0.144  10.822  0.0005  0.1922 -0.2420
 3651TIP3   OH235147   1.765   1.910  10.806  0.0830 -0.5572 -0.3772
 3651TIP3    H135148   1.775   1.929  10.713  1.0298 -0.5278 -0.2849
 3651TIP3    H235149   1.815   1.979  10.850 -0.6011 -0.3981  0.1692
 3652TIP3   OH235150   7.280   3.260  10.300 -0.4827  0.4865  0.5056
 3652TIP3    H135151   7.289   3.174  10.258  0.9711  1.3888 -1.1785
 3652TIP3    H235152   7.239   3.241  10.384  0.8375 -2.0184  0.6963
 3653TIP3   OH235153   7.574   6.889   8.941 -0.3275  0.5363 -0.0515
 3653TIP3    H135154   7.578   6.958   8.875 -1.0830  0.6448  0.0105
 3653TIP3    H235155   7.526   6.818   8.899  2.1132 -0.7740 -0.8225
 3654TIP3   OH235156   5.393   7.019   9.853  0.1212 -0.2265  0.3180
 3654TIP3    H135157   5.320   6.982   9.902 -0.6039  1.2798  0.4443
 3654TIP3    H235158   5.442   7.070   9.918 -0.2838  0.9793 -0.3048
 3655TIP3   OH235159   3.314   4.031  10.167 -0.6701  0.0257  0.3276
 3655TIP3    H135160   3.403   4.052  10.139 -0.3281  0.4877  1.6493
 3655TIP3    H235161   3.287   3.959  10.111  2.0146 -2.8582  2.3614
 3656TIP3   OH235162   2.579   6.761   8.614 -0.0707 -0.4472  0.2569
 3656TIP3    H135163   2.561   6.733   8.704 -0.4281  0.4005  0.4645
 3656TIP3    H235164   2.610   6.682   8.570  2.1809 -0.4433  1.6649
 3657TIP3   OH235165   4.772   6.645   9.235 -0.7885  0.4507 -0.1482
 3657TIP3    H135166   4.770   6.682   9.323  0.2710 -0.4471  0.2860
 3657TIP3    H235167   4.865   6.623   9.221 -0.9695  0.4326 -1.4251
 3658TIP3   OH235168   3.239   4.662  10.033  0.2955 -0.1815  1.0609
 3658TIP3    H135169   3.262   4.580   9.991 -0.0996  0.0628  0.3613
 3658TIP3    H235170   3.145   4.656  10.049 -0.2229  1.0584 -1.1261
 3659TIP3   OH235171   0.430   4.385   9.501 -0.1396 -0.2743 -0.2941
 3659TIP3    H135172   0.525   4.398   9.498 -0.1770 -0.0076 -0.3727
 3659TIP3    H235173   0.394   4.473   9.495 -0.4188 -0.4539 -1.4517
 3660TIP3   OH235174   7.578   4.142   9.077 -0.1693  0.0986  0.1583
 3660TIP3    H135175   7.571   4.067   9.136 -1.8596 -0.6396 -0.9088
 3660TIP3    H235176   7.672   4.160   9.072  0.1037 -0.6337  2.0290
 3661TIP3   OH235177   7.170   3.870  10.942  0.1789 -0.6448  0.5795
 3661TIP3    H135178   7.242   3.931  10.962 -0.5241 -0.1104  1.5408
 3661TIP3    H235179   7.205   3.814  10.873  1.1823  0.2374  0.3435
 3662TIP3   OH235180   7.151   7.006   9.343  0.0170 -0.5376 -0.1098
 3662TIP3    H135181   7.204   7.005   9.422  0.0569  2.6997  0.0327
 3662TIP3    H235182   7.209   6.975   9.274  0.8819 -0.6665  0.6710
 3663TIP3   OH235183   2.778   1.335   8.291 -0.3178  0.1252 -0.0982
 3663TIP3    H135184   2.856   1.299   8.249  1.9192  0.9491  2.9459
 3663TIP3    H235185   2.788   1.429   8.283 -1.7649  0.2347 -0.8289
 3664TIP3   OH235186   4.708   1.087  11.052 -0.3331  0.0486 -0.4976
 3664TIP3    H135187   4.693   1.181  11.064 -0.4972 -0.1331  0.8061
 3664TIP3    H235188   4.802   1.076  11.066 -0.2937  0.0254 -0.7679
 3665TIP3   OH235189   1.482   3.284   8.693  0.2320  0.3969  0.0886
 3665TIP3    H135190   1.511   3.320   8.777 -1.1220  0.6439  0.4821
 3665TIP3    H235191   1.525   3.338   8.627  2.1610 -0.4636  0.5614
 3666TIP3   OH235192   3.543   2.718  10.497  0.4046  0.4361 -0.0640
 3666TIP3    H135193   3.591   2.679  10.571  0.1096  0.1249 -0.0340
 3666TIP3    H235194   3.468   2.760  10.537 -0.1987 -0.4264 -0.2529
 3667TIP3   OH235195   5.831   0.132  10.837 -0.1012 -0.5120  0.2220
 3667TIP3    H135196   5.877   0.188  10.899  1.4493 -0.4355 -0.9273
 3667TIP3    H235197   5.828   0.183  10.756  0.3115 -1.6068 -0.5147
 3668TIP3   OH235198   3.677   4.074  10.346  0.4513  0.6175 -0.2436
 3668TIP3    H135199   3.723   4.158  10.352 -1.0676  1.5768 -1.1688
 3668TIP3    H235200   3.593   4.089  10.389  1.0912 -1.2290  1.8328
 3669TIP3   OH235201   4.200   1.780  10.483 -0.3117 -0.3948  0.3647
 3669TIP3    H135202   4.187   1.831  10.403 -0.0592  0.2311  0.7156
 3669TIP3    H235203   4.214   1.690  10.452  1.3552  0.0953 -0.4019
 3670TIP3   OH235204   0.923   6.917   8.972  0.6578  0.3811 -0.3992
 3670TIP3    H135205   0.830   6.914   8.995  0.4730  0.1119 -1.1411
 3670TIP3    H235206   0.927   6.980   8.900  0.8515 -0.5263 -1.2048
 3671TIP3   OH235207   1.576   0.592   9.112  0.4480 -0.4896 -0.0348
 3671TIP3    H135208   1.575   0.608   9.018 -0.2681 -2.5988 -0.4617
 3671TIP3    H235209   1.483   0.593   9.137  0.5832 -0.7151  0.4877
 3672TIP3   OH235210   4.936   0.838  10.195 -0.0617  0.2515  0.3935
 3672TIP3    H135211   4.908   0.920  10.235  1.7236  0.7923  0.6114
 3672TIP3    H235212   4.896   0.770  10.249 -1.2204  0.9565  0.4557
 3673TIP3   OH235213   3.453   5.473  10.219  0.0696  0.0362 -0.1329
 3673TIP3    H135214   3.503   5.398  10.188 -0.1578 -0.5322  0.8378
 3673TIP3    H235215   3.365   5.439  10.235 -0.1378  0.6009 -0.0426
 3674TIP3   OH235216   7.455   5.329   9.074  0.0391 -0.5769 -0.0829
 3674TIP3    H135217   7.531   5.273   9.087  1.8914  1.9320  0.5798
 3674TIP3    H235218   7.410   5.291   8.998  2.0461 -2.0306 -0.6168
 3675TIP3   OH235219   2.877   2.918   9.103  0.0189 -0.2335 -0.0510
 3675TIP3    H135220   2.872   3.011   9.082  0.7101  0.0462  0.9608
 3675TIP3    H235221   2.810   2.877   9.047 -1.8980  1.1553  1.1115
 3676TIP3   OH235222   4.751   0.039  11.104 -0.5189 -0.2886 -0.2221
 3676TIP3    H135223   4.701   0.117  11.129  0.3382  0.1743  0.0787
 3676TIP3    H235224   4.842   0.067  11.109 -0.1884 -1.4385  0.2916
 3677TIP3   OH235225   3.985   6.859  10.307 -0.3293  0.2492  0.0042
 3677TIP3    H135226   4.037   6.839  10.384  0.2807  0.9665 -0.2049
 3677TIP3    H235227   3.995   6.954  10.295  2.7056 -0.2442 -3.1152
 3678TIP3   OH235228   4.487   1.097  10.865  0.1271 -0.1791  0.2026
 3678TIP3    H135229   4.428   1.022  10.865  0.5491 -0.5221  0.5996
 3678TIP3    H235230   4.558   1.071  10.924 -0.1078  0.8350  0.9586
 3679TIP3   OH235231   7.070   6.781   9.557 -0.1936 -0.2497  0.3176
 3679TIP3    H135232   7.135   6.787   9.628 -1.1426 -0.0338  1.1902
 3679TIP3    H235233   7.008   6.715   9.587 -0.5212 -0.2645 -0.3893
 3680TIP3   OH235234   7.556   7.293   9.196  0.3368  0.0425 -0.2828
 3680TIP3    H135235   7.490   7.338   9.249  1.0887  2.3151 -1.1615
 3680TIP3    H235236   7.632   7.350   9.198  1.6281 -1.5654 -0.9148
 3681TIP3   OH235237   0.208   3.938  10.475 -0.2946  0.1812  0.5883
 3681TIP3    H135238   0.267   3.884  10.423  0.5675  0.7776  0.9215
 3681TIP3    H235239   0.170   3.878  10.539 -1.9466 -0.7322 -1.1439
 3682TIP3   OH235240   1.239   7.535   9.483 -0.0745 -0.0587  0.1921
 3682TIP3    H135241   1.149   7.512   9.508 -0.7810  0.6581 -1.4988
 3682TIP3    H235242   1.263   7.606   9.543 -0.2120 -0.9630  1.3491
 3683TIP3   OH235243   7.361   1.763  10.679 -0.1307 -0.1390  0.6730
 3683TIP3    H135244   7.357   1.858  10.680  0.7524 -0.0516 -0.7260
 3683TIP3    H235245   7.347   1.740  10.587 -1.7518 -1.4613  1.1929
 3684TIP3   OH235246   7.016   5.838  10.314  0.1626  0.7505  0.2383
 3684TIP3    H135247   7.081   5.898  10.348 -0.1622 -0.1219  2.6096
 3684TIP3    H235248   7.055   5.751  10.325 -1.0306  0.2707  0.9309
 3685TIP3   OH235249   4.921   7.030   9.446  0.3310  0.1448 -0.0095
 3685TIP3    H135250   4.904   6.996   9.358 -0.3668 -1.5340  0.7208
 3685TIP3    H235251   4.890   7.121   9.443  1.4225  0.5047 -1.7994
 3686TIP3   OH235252   2.721   4.067  11.180  0.4614  0.4202  0.3737
 3686TIP3    H135253   2.629   4.089  11.162 -0.3459 -3.0431 -0.5419
 3686TIP3    H235254   2.770   4.117  11.114 -0.9924  0.5503 -0.6698
 3687TIP3   OH235255   6.483   4.092  10.227 -0.1168 -0.2417 -0.8675
 3687TIP3    H135256   6.573   4.119  10.241  0.7469 -2.7395 -0.9922
 3687TIP3    H235257   6.488   4.024  10.159 -2.2664  0.4597 -1.8285
 3688TIP3   OH235258   2.631   2.754   9.901 -0.3595  0.5252  0.6306
 3688TIP3    H135259   2.622   2.724   9.810 -2.5904  0.9398  0.6591
 3688TIP3    H235260   2.547   2.734   9.941  0.7818 -0.1655  2.8147
 3689TIP3   OH235261   1.044   5.172   9.685  0.4442  0.3314 -0.3439
 3689TIP3    H135262   0.950   5.179   9.703  0.4558  0.0171 -0.1512
 3689TIP3    H235263   1.083   5.246   9.731  0.2638  0.5895 -0.6087
 3690TIP3   OH235264   1.666   6.723   8.485 -0.3306 -0.0672  0.3823
 3690TIP3    H135265   1.711   6.680   8.412  1.0923  0.6819  0.7855
 3690TIP3    H235266   1.587   6.671   8.498  0.5100 -1.5647 -0.2140
 3691TIP3   OH235267   7.450   4.698   9.163 -0.2165 -0.2223 -0.1670
 3691TIP3    H135268   7.386   4.636   9.129 -1.1274  0.0670  0.9297
 3691TIP3    H235269   7.535   4.664   9.134 -0.9089  0.4828 -3.4157
 3692TIP3   OH235270   6.325   1.754   8.618 -0.3632 -0.4743 -0.2014
 3692TIP3    H135271   6.270   1.680   8.644  0.9068 -0.6542  2.2442
 3692TIP3    H235272   6.402   1.715   8.578  1.8589 -0.9281  3.9293
 3693TIP3   OH235273   4.843   0.122  10.218 -0.6721  0.1840  0.5364
 3693TIP3    H135274   4.914   0.093  10.276 -0.0909  1.9500  0.7814
 3693TIP3    H235275   4.775   0.056  10.229  0.2757 -0.6746  1.5852
 3694TIP3   OH235276   4.143   2.515  11.023 -0.2150  0.1594  0.2558
 3694TIP3    H135277   4.102   2.550  10.944  0.4186 -0.0269 -0.1686
 3694TIP3    H235278   4.162   2.423  11.002  0.5110  0.2684  0.3898
 3695TIP3   OH235279   1.064   0.643  10.726 -0.4595  0.0004  0.2633
 3695TIP3    H135280   1.122   0.577  10.764  0.3090  0.3939 -0.1941
 3695TIP3    H235281   1.010   0.672  10.800 -1.8036 -2.1101  0.1949
 3696TIP3   OH235282   6.297   1.362  11.054 -0.1262  0.0599 -0.1099
 3696TIP3    H135283   6.381   1.406  11.043 -0.1393 -0.6367 -6.0009
 3696TIP3    H235284   6.232   1.432  11.054  0.2707  0.4398  1.1187
 3697TIP3   OH235285   4.249   2.165   8.316  0.1292 -0.1328 -0.3721
 3697TIP3    H135286   4.303   2.211   8.252  0.2773  0.8469  0.4276
 3697TIP3    H235287   4.235   2.229   8.386 -0.3446 -1.0506  0.3981
 3698TIP3   OH235288   5.376   4.927  10.412 -0.0517 -0.0262  0.4941
 3698TIP3    H135289   5.370   5.022  10.400 -0.7938 -0.1857 -0.6106
 3698TIP3    H235290   5.451   4.901  10.359 -0.0899 -0.0980  0.4745
 3699TIP3   OH235291   2.400   7.649   9.647  0.0531  0.3196  0.5734
 3699TIP3    H135292   2.448   7.567   9.630 -1.1493 -0.1087 -1.0011
 3699TIP3    H235293   2.371   7.677   9.560 -1.0666  1.4764  1.3039
 3700TIP3   OH235294   4.955   7.654  10.801 -0.3597  0.1477 -0.0566
 3700TIP3    H135295   4.865   7.638  10.831 -0.4181  1.7001  0.7011
 3700TIP3    H235296   5.002   7.682  10.879  0.5530  0.2651 -0.6366
 3701TIP3   OH235297   3.851   0.900   8.663  0.6820 -0.2582 -0.6513
 3701TIP3    H135298   3.846   0.945   8.579  0.4145 -2.6706 -2.0107
 3701TIP3    H235299   3.898   0.818   8.645  0.1031 -1.1345  1.4226
 3702TIP3   OH235300   2.748   3.647   9.926  0.5232  0.2194 -0.3756
 3702TIP3    H135301   2.801   3.590   9.981  1.9848 -1.3376 -3.1813
 3702TIP3    H235302   2.658   3.619   9.942  0.9003 -0.2333  1.1053
 3703TIP3   OH235303   6.755   5.804  10.003  0.5314  0.2064 -0.4843
 3703TIP3    H135304   6.849   5.799   9.987  0.6672 -0.9700  0.5365
 3703TIP3    H235305   6.746   5.865  10.077  0.4576  0.6123 -0.8270
 3704TIP3   OH235306   5.734   2.020   8.962  0.0317  0.4099 -0.2853
 3704TIP3    H135307   5.826   2.001   8.942 -0.1336 -1.5500  0.6448
 3704TIP3    H235308   5.685   1.983   8.888 -0.2812 -2.9954  1.4657
 3705TIP3   OH235309   3.975   2.612   8.428 -0.0660  0.2157 -0.2262
 3705TIP3    H135310   3.987   2.691   8.375  1.0704 -0.1436 -0.5278
 3705TIP3    H235311   4.037   2.548   8.391 -0.4196 -0.5719  0.4960
 3706TIP3   OH235312   4.935   7.160  10.577 -0.1197  0.2779 -0.0178
 3706TIP3    H135313   4.842   7.153  10.600  0.1052 -1.4377  0.5406
 3706TIP3    H235314   4.936   7.205  10.493 -1.3970  1.1206  0.3959
 3707TIP3   OH235315   0.830   0.766   9.718  0.4872 -0.2226 -0.5324
 3707TIP3    H135316   0.789   0.813   9.646  1.6180  0.3249 -0.8476
 3707TIP3    H235317   0.759   0.746   9.778 -0.5453 -1.0039 -1.9549
 3708TIP3   OH235318   4.708   4.640   9.771  0.3210  0.0413  0.3038
 3708TIP3    H135319   4.718   4.688   9.853 -0.2476 -0.2979  0.5854
 3708TIP3    H235320   4.691   4.550   9.799 -0.7984  0.0981 -0.1565
 3709TIP3   OH235321   1.381   1.582  10.766  0.5523 -0.6182  0.0275
 3709TIP3    H135322   1.415   1.599  10.853  1.1902 -0.0993 -0.3185
 3709TIP3    H235323   1.435   1.511  10.732  1.0185 -0.0786 -0.3620
 3710TIP3   OH235324   1.365   2.905   9.708  0.2308  0.2841 -0.2082
 3710TIP3    H135325   1.450   2.944   9.726 -0.2947  1.4628 -0.1119
 3710TIP3    H235326   1.303   2.958   9.759 -0.5327 -0.7167 -0.0556
 3711TIP3   OH235327   0.532   5.718  10.343 -0.2877 -0.6233 -0.0828
 3711TIP3    H135328   0.529   5.791  10.281 -2.8895 -0.6750 -0.1526
 3711TIP3    H235329   0.477   5.747  10.416  0.6741 -1.5681  1.0543
 3712TIP3   OH235330   1.890   7.553  10.901  0.1425 -0.2269  0.0456
 3712TIP3    H135331   1.803   7.557  10.861 -0.4100  0.2699  1.2424
 3712TIP3    H235332   1.893   7.468  10.945 -0.2376  0.2661  1.0550
 3713TIP3   OH235333   1.815   1.965  10.098  0.0099  0.3700 -0.0539
 3713TIP3    H135334   1.856   2.001  10.020 -0.0440  0.6717  0.0586
 3713TIP3    H235335   1.878   1.983  10.169 -0.6084  1.4181  0.2381
 3714TIP3   OH235336   2.883   3.010  10.718  0.1742  0.4904  0.0127
 3714TIP3    H135337   2.916   2.968  10.798 -0.4342 -1.8394 -0.8709
 3714TIP3    H235338   2.801   2.964  10.700  0.3530  0.8922 -2.0149
 3715TIP3   OH235339   5.038   7.644   9.556  0.3971 -0.1615  0.7947
 3715TIP3    H135340   5.017   7.732   9.585 -2.1387 -0.4917  0.1700
 3715TIP3    H235341   4.969   7.589   9.593  2.1195 -2.0063  1.5096
 3716TIP3   OH235342   3.862   0.889  11.225 -0.0312  0.0472 -0.7639
 3716TIP3    H135343   3.781   0.930  11.253  0.0373 -0.3138 -0.0113
 3716TIP3    H235344   3.876   0.921  11.136 -0.9232  0.2199 -0.8496
 3717TIP3   OH235345   5.433   1.692   9.752 -0.1961  0.7339 -0.1305
 3717TIP3    H135346   5.514   1.673   9.704 -0.4437  0.3055 -0.3949
 3717TIP3    H235347   5.400   1.773   9.713 -0.2196  0.5694 -0.4568
 3718TIP3   OH235348   2.616   7.522   9.297  0.1248  0.3954 -0.2437
 3718TIP3    H135349   2.618   7.575   9.218  0.9636 -0.3421 -0.7299
 3718TIP3    H235350   2.532   7.543   9.338 -0.2137  0.9557 -1.2019
 3719TIP3   OH235351   4.541   0.453   8.335 -0.7454  0.1497  0.9117
 3719TIP3    H135352   4.520   0.377   8.281 -0.6641 -0.5347  1.8045
 3719TIP3    H235353   4.609   0.499   8.287 -0.5808 -0.5175  0.4957
 3720TIP3   OH235354   7.036   5.872  10.047  0.4718  0.0317  0.0924
 3720TIP3    H135355   7.127   5.847  10.030  0.0935 -0.4413 -1.4995
 3720TIP3    H235356   7.018   5.840  10.135  1.5154 -0.9063 -0.0079
 3721TIP3   OH235357   0.495   4.492  10.182  0.6732 -0.0165  0.9780
 3721TIP3    H135358   0.552   4.477  10.107 -1.2846  1.8352 -1.0555
 3721TIP3    H235359   0.518   4.580  10.213 -1.0813  0.8471 -0.0002
 3722TIP3   OH235360   2.241   5.414   9.632 -0.2330  0.2095  0.3223
 3722TIP3    H135361   2.224   5.322   9.654  0.7581  0.2946  1.5670
 3722TIP3    H235362   2.214   5.462   9.711  0.0467  0.9091 -0.0067
 3723TIP3   OH235363   3.065   7.313   8.702 -0.3864  0.0592 -0.8648
 3723TIP3    H135364   3.014   7.274   8.631  1.1976 -0.7405 -1.6217
 3723TIP3    H235365   3.156   7.304   8.674  0.4317 -1.7003  1.9188
 3724TIP3   OH235366   7.604   2.554   9.864  0.0289 -0.0920  0.4774
 3724TIP3    H135367   7.548   2.486   9.827 -0.0242  0.6854 -0.9282
 3724TIP3    H235368   7.693   2.523   9.849  0.0220  0.5739 -1.0496
 3725TIP3   OH235369   3.644   3.165   9.994  0.3532  0.3393 -0.3617
 3725TIP3    H135370   3.691   3.246   9.975  0.9012 -0.3351 -2.0812
 3725TIP3    H235371   3.562   3.193  10.034  0.3064  1.7651 -1.3933
 3726TIP3   OH235372   4.056   5.671   8.837  0.5315  0.0210 -0.0479
 3726TIP3    H135373   4.148   5.670   8.810  0.3753 -0.4870 -0.5556
 3726TIP3    H235374   4.022   5.585   8.812 -0.6671  0.9742 -1.8930
 3727TIP3   OH235375   3.796   5.679  10.123  0.0894 -0.3166  0.0532
 3727TIP3    H135376   3.782   5.613  10.055  0.6906  0.9544 -1.3443
 3727TIP3    H235377   3.891   5.688  10.129  0.0241  0.0633  0.5935
 3728TIP3   OH235378   6.923   4.419   9.795 -0.2846  0.1257  0.4870
 3728TIP3    H135379   6.830   4.397   9.803 -0.3301  0.0210 -0.2272
 3728TIP3    H235380   6.967   4.362   9.859 -0.8777  1.5446  2.2068
 3729TIP3   OH235381   1.598   3.329  10.082  0.0476  0.3745  0.9246
 3729TIP3    H135382   1.669   3.350  10.021 -0.1142 -1.6263 -0.0453
 3729TIP3    H235383   1.519   3.360  10.039  0.0517  0.0191  0.6583
 3730TIP3   OH235384   1.158   4.452   9.796 -0.2462  0.2619 -0.0958
 3730TIP3    H135385   1.204   4.497   9.866 -1.3840  0.4090  0.5871
 3730TIP3    H235386   1.142   4.519   9.730  0.4150  0.2298 -0.2964
 3731TIP3   OH235387   7.095   0.225  10.743 -0.1976  1.0889  0.0249
 3731TIP3    H135388   7.171   0.212  10.686  0.1929 -0.3608  0.8116
 3731TIP3    H235389   7.104   0.315  10.774  1.5257  0.7871  0.5183
 3732TIP3   OH235390   7.632   4.370   9.876 -0.1341  0.4201 -0.9097
 3732TIP3    H135391   7.715   4.341   9.838 -0.0250 -0.5729  0.0212
 3732TIP3    H235392   7.597   4.291   9.919 -0.8577  1.1708 -0.0834
 3733TIP3   OH235393   2.437   3.924  10.037 -0.6225 -0.3890 -0.0708
 3733TIP3    H135394   2.499   3.874  10.090 -0.3174 -1.9268 -1.8136
 3733TIP3    H235395   2.425   4.006  10.087  2.6892 -0.0528  0.4298
 3734TIP3   OH235396   2.862   1.775   9.669 -0.5264  0.3936  0.2193
 3734TIP3    H135397   2.937   1.754   9.725 -1.7601 -2.2475  1.0443
 3734TIP3    H235398   2.836   1.863   9.695  0.1739  0.0099  2.3756
 3735TIP3   OH235399   6.590   0.664   9.730  0.1108 -0.0881 -0.0308
 3735TIP3    H135400   6.500   0.684   9.757  1.1207  1.7117  2.2626
 3735TIP3    H235401   6.599   0.706   9.645 -1.3641 -0.8168 -0.5898
 3736TIP3   OH235402   2.418   5.568   9.084 -0.5874  0.5411 -0.5657
 3736TIP3    H135403   2.482   5.533   9.146 -0.4676  1.2258 -0.2925
 3736TIP3    H235404   2.437   5.522   9.002 -1.0650 -0.7246  0.0040
 3737TIP3   OH235405   0.614   7.667   9.900  0.0443  0.0866 -0.4559
 3737TIP3    H135406   0.519   7.663   9.909  0.0703  1.5349  0.8270
 3737TIP3    H235407   0.632   7.621   9.818 -1.8664  0.7818 -1.3225
 3738TIP3   OH235408   6.194   5.619   9.454  0.0419 -0.0175  0.0934
 3738TIP3    H135409   6.148   5.578   9.381 -2.3547  0.0815  1.4287
 3738TIP3    H235410   6.279   5.575   9.457 -0.6633 -1.5758 -1.3860
 3739TIP3   OH235411   4.586   3.355   9.667 -0.0059 -0.1636 -0.0721
 3739TIP3    H135412   4.636   3.374   9.588 -1.8520 -1.0994 -1.5713
 3739TIP3    H235413   4.628   3.277   9.704  1.1391  0.5344  0.1401
 3740TIP3   OH235414   7.559   3.337  10.261  0.2272  0.4056  0.4286
 3740TIP3    H135415   7.585   3.303  10.175  2.6328  0.5969  1.0131
 3740TIP3    H235416   7.474   3.295  10.279  0.8458 -1.5848 -0.9524
 3741TIP3   OH235417   1.395   7.220  10.482 -0.6012  0.7691 -0.6998
 3741TIP3    H135418   1.390   7.159  10.409 -1.2723 -1.0999  0.8207
 3741TIP3    H235419   1.316   7.203  10.533  0.8813  0.4069  1.6299
 3742TIP3   OH235420   2.985   3.770   9.822 -0.1696  0.3909  0.1687
 3742TIP3    H135421   2.900   3.740   9.855 -0.0555 -0.5408 -0.3597
 3742TIP3    H235422   2.978   3.762   9.727  0.7219 -0.3047  0.1495
 3743TIP3   OH235423   6.650   6.624   9.860  0.0232  0.0074  0.2838
 3743TIP3    H135424   6.642   6.709   9.817  1.2964  0.0843  0.1689
 3743TIP3    H235425   6.618   6.640   9.949 -1.7624  0.0669 -0.3414
 3744TIP3   OH235426   6.785   3.618   8.582 -0.1144  0.3889  0.0105
 3744TIP3    H135427   6.797   3.713   8.586  0.3908  0.3091  0.4931
 3744TIP3    H235428   6.813   3.587   8.668  1.4632 -0.3735 -0.7463
 3745TIP3   OH235429   6.914   4.063  10.606  1.0348  0.6531 -0.3960
 3745TIP3    H135430   6.984   4.011  10.567  1.6751  1.4352 -0.3121
 3745TIP3    H235431   6.952   4.150  10.619  0.1291  1.0250 -0.1122
 3746TIP3   OH235432   3.659   2.469   9.078 -0.1596 -0.2852  0.2766
 3746TIP3    H135433   3.729   2.405   9.090 -1.5332 -1.5243  2.3377
 3746TIP3    H235434   3.705   2.551   9.060  1.6868 -1.5497 -1.1356
 3747TIP3   OH235435   0.046   6.864  10.380  0.0038  0.3829 -0.0271
 3747TIP3    H135436  -0.023   6.893  10.319  1.1561  0.4605 -1.3426
 3747TIP3    H235437   0.080   6.946  10.417  0.8153  0.4970 -0.9994
 3748TIP3   OH235438   0.829   0.957   9.471 -0.0708 -0.2518  0.4551
 3748TIP3    H135439   0.743   0.919   9.492 -0.5780  0.6916  0.1537
 3748TIP3    H235440   0.864   0.901   9.403 -1.1485  0.2391 -0.5325
 3749TIP3   OH235441   2.301   6.056   9.243  0.2628 -0.1528  0.1052
 3749TIP3    H135442   2.320   6.090   9.156  0.1771  0.1193  0.1934
 3749TIP3    H235443   2.342   6.119   9.303 -1.0024  0.5030  0.3063
 3750TIP3   OH235444   6.979   1.994   9.475 -0.4784  0.0339 -0.4214
 3750TIP3    H135445   7.002   2.046   9.552 -3.3464 -1.5922  1.7819
 3750TIP3    H235446   7.045   1.925   9.471  0.9874  1.4152 -0.8717
 3751TIP3   OH235447   2.786   1.024  11.074  0.0347 -0.6234 -0.4585
 3751TIP3    H135448   2.741   1.074  11.006 -0.5955 -1.2666 -0.5257
 3751TIP3    H235449   2.725   0.954  11.096  0.8472 -1.2762 -0.2625
 3752TIP3   OH235450   1.967   5.469  10.182  0.1837 -0.0960  0.5573
 3752TIP3    H135451   1.958   5.564  10.189  2.2717  0.1585  0.2235
 3752TIP3    H235452   2.050   5.456  10.137  1.0740 -2.1203  2.6159
 3753TIP3   OH235453   6.480   0.114  10.820 -0.0383  0.1165 -0.3331
 3753TIP3    H135454   6.476   0.066  10.737 -0.9028  1.6396 -1.2199
 3753TIP3    H235455   6.574   0.130  10.833  0.6339 -4.0191  1.4056
 3754TIP3   OH235456   3.833   2.992   9.943  0.1112 -0.0788  0.2428
 3754TIP3    H135457   3.761   3.029   9.994  0.8470 -0.2284  1.4219
 3754TIP3    H235458   3.865   3.064   9.889 -1.1802 -0.1227 -0.6174
 3755TIP3   OH235459   1.204   4.826   9.398  0.6540 -0.1176 -0.1989
 3755TIP3    H135460   1.195   4.911   9.441  0.4423 -0.1120 -0.2515
 3755TIP3    H235461   1.291   4.828   9.359  0.0619  0.7203 -1.5787
 3756TIP3   OH235462   4.470   7.052  10.670 -0.0428  0.4171  0.1117
 3756TIP3    H135463   4.466   6.978  10.608 -2.8920  0.8821 -0.3846
 3756TIP3    H235464   4.435   7.016  10.752  0.3243  0.7535  0.4180
 3757TIP3   OH235465   6.676   6.623   8.462 -0.0046  0.3492 -0.0521
 3757TIP3    H135466   6.704   6.708   8.429  2.2864 -0.7673 -1.2240
 3757TIP3    H235467   6.608   6.595   8.401 -0.6862  1.2553  0.2696
 3758TIP3   OH235468   5.540   1.246  11.256  0.1512 -0.6207 -0.3853
 3758TIP3    H135469   5.562   1.316  11.193 -1.1646 -1.2150 -1.5592
 3758TIP3    H235470   5.596   1.264  11.332  1.9115  0.0512 -1.7600
 3759TIP3   OH235471   1.227   5.819   9.926 -0.8474  0.2524  0.9759
 3759TIP3    H135472   1.276   5.751   9.880 -2.1903  0.1596 -0.3827
 3759TIP3    H235473   1.152   5.773   9.964 -1.0537  0.7413  1.1720
 3760TIP3   OH235474   3.119   4.989   9.302 -0.0260  0.1667 -0.0309
 3760TIP3    H135475   3.116   4.975   9.207  1.9711 -2.0457  0.1304
 3760TIP3    H235476   3.028   5.005   9.327 -1.1103 -2.3620 -1.9317
 3761TIP3   OH235477   3.698   3.977   9.704 -0.3329 -0.1289 -0.1006
 3761TIP3    H135478   3.708   3.882   9.705 -1.5331 -0.2871 -0.7517
 3761TIP3    H235479   3.654   3.996   9.621 -2.6963  0.6730  1.2292
 3762TIP3   OH235480   0.509   0.265   8.880 -0.4568 -0.3753 -0.4756
 3762TIP3    H135481   0.503   0.332   8.948  0.5660  0.0106 -0.7442
 3762TIP3    H235482   0.582   0.293   8.825 -0.0359 -1.6749 -0.6202
 3763TIP3   OH235483   4.206   4.188  10.666 -0.2493 -0.0924 -0.0740
 3763TIP3    H135484   4.209   4.236  10.749  2.0332 -0.6503  0.2367
 3763TIP3    H235485   4.203   4.256  10.599 -1.3113  0.3708  0.4171
 3764TIP3   OH235486   5.368   2.466  11.495  0.1079  0.3438 -0.2421
 3764TIP3    H135487   5.341   2.472  11.587 -0.3661 -0.7945 -0.2836
 3764TIP3    H235488   5.298   2.508  11.447  0.4422  1.1017 -0.0781
 3765TIP3   OH235489   7.531   6.258  10.446 -0.0606  0.4131  0.3090
 3765TIP3    H135490   7.522   6.314  10.369 -2.7473 -1.8695 -1.1996
 3765TIP3    H235491   7.566   6.176  10.412 -1.4604 -0.7118  1.4406
 3766TIP3   OH235492   4.830   7.424   9.903  0.5779 -0.0336  0.0876
 3766TIP3    H135493   4.812   7.362   9.973  0.1959  0.8136  0.7588
 3766TIP3    H235494   4.911   7.468   9.930  1.3556 -0.8427 -0.8288
 3767TIP3   OH235495   2.715   4.804   9.542 -0.5614 -0.2421 -0.2691
 3767TIP3    H135496   2.793   4.752   9.563 -0.1453  0.5818  0.2611
 3767TIP3    H235497   2.660   4.798   9.621 -1.0259 -0.7902 -0.6253
 3768TIP3   OH235498   1.213   3.841  10.967  0.0258 -0.2872 -0.4073
 3768TIP3    H135499   1.151   3.794  11.022 -1.9889  2.1671 -0.4072
 3768TIP3    H235500   1.204   3.802  10.880  0.2234 -1.4804  0.1018
 3769TIP3   OH235501   0.624   4.653   9.180  0.0206 -0.2416  0.4436
 3769TIP3    H135502   0.684   4.674   9.109 -0.2281 -0.1428  0.2629
 3769TIP3    H235503   0.634   4.725   9.242  1.5651 -1.1983  1.3791
 3770TIP3   OH235504   4.250   5.842  10.504  0.1119 -0.0534 -0.5275
 3770TIP3    H135505   4.300   5.900  10.562 -2.1941  1.8649 -0.3309
 3770TIP3    H235506   4.309   5.825  10.430  2.4323 -1.0575  1.4083
 3771TIP3   OH235507   3.264   0.945   7.851  0.2767 -0.3867  0.1389
 3771TIP3    H135508   3.220   0.865   7.822 -0.4246  1.1266 -3.4839
 3771TIP3    H235509   3.201   0.986   7.911 -0.1991 -1.5479  0.4647
 3772TIP3   OH235510   6.315   7.332  10.796  0.0633  0.0535  0.2809
 3772TIP3    H135511   6.313   7.268  10.867  0.1935  0.1945  0.4118
 3772TIP3    H235512   6.223   7.349  10.777 -0.0470  1.8836  2.1018
 3773TIP3   OH235513   7.651   5.813  10.816 -0.1869  0.3592 -0.3325
 3773TIP3    H135514   7.593   5.738  10.828  0.1391 -0.1813 -1.9458
 3773TIP3    H235515   7.659   5.851  10.904  0.3967 -2.0364  0.7343
 3774TIP3   OH235516   0.610   4.758  10.120  0.0135 -0.1543 -0.2474
 3774TIP3    H135517   0.617   4.851  10.138  1.8156 -0.6324  1.9404
 3774TIP3    H235518   0.695   4.735  10.083 -0.4109 -0.9442 -0.7577
 3775TIP3   OH235519   6.186   1.063   9.285 -0.0937  0.2438  0.9865
 3775TIP3    H135520   6.131   1.074   9.208 -1.5085 -0.0316  1.9205
 3775TIP3    H235521   6.247   1.137   9.282  0.1797 -0.0225 -0.6203
 3776TIP3   OH235522   6.627   4.188   9.401  0.8797 -0.1009 -0.1555
 3776TIP3    H135523   6.554   4.248   9.388  2.0944  1.1538 -1.7686
 3776TIP3    H235524   6.702   4.245   9.420  1.7463 -1.2301 -0.0637
 3777TIP3   OH235525   7.022   0.480  10.167 -0.2080 -0.2520 -0.0665
 3777TIP3    H135526   6.941   0.434  10.187 -0.5879  0.8272  1.0135
 3777TIP3    H235527   7.049   0.447  10.081 -0.1664 -2.8636  0.8715
 3778TIP3   OH235528   5.109   6.698  10.998 -0.0213  0.5042  0.3760
 3778TIP3    H135529   5.023   6.655  11.000  0.1065  0.1423 -0.8686
 3778TIP3    H235530   5.090   6.790  11.013 -1.0763  0.9805 -2.9719
 3779TIP3   OH235531   2.667   5.539   8.540  0.5501  0.4932  0.0687
 3779TIP3    H135532   2.620   5.622   8.540 -1.6899 -0.6460 -1.7696
 3779TIP3    H235533   2.730   5.547   8.469  1.2031  1.0409  0.7029
 3780TIP3   OH235534   6.857   2.765   8.579  0.2891  0.2157 -0.2470
 3780TIP3    H135535   6.820   2.853   8.583  0.3486  0.4151 -2.5347
 3780TIP3    H235536   6.784   2.707   8.601 -0.2256  0.7872 -0.4270
 3781TIP3   OH235537   7.642   2.600   9.465  0.7049  0.3604  0.1594
 3781TIP3    H135538   7.601   2.681   9.495 -1.3053 -0.5590  0.0121
 3781TIP3    H235539   7.724   2.595   9.515 -0.0594  1.5035  1.6095
 3782TIP3   OH235540   4.452   4.092   8.921 -0.5010  0.3541 -0.1864
 3782TIP3    H135541   4.517   4.080   8.990 -0.2733  2.1770 -0.0573
 3782TIP3    H235542   4.460   4.013   8.868  1.0236  0.0217  0.4715
 3783TIP3   OH235543   7.409   3.552   9.302  0.3810  0.5811  0.1734
 3783TIP3    H135544   7.330   3.604   9.285 -1.2037 -1.8378 -0.3980
 3783TIP3    H235545   7.407   3.536   9.396  0.3749  0.7932  0.2097
 3784TIP3   OH235546   6.076   5.829  10.254  0.1780  0.0360 -0.7560
 3784TIP3    H135547   6.081   5.915  10.212 -2.1338  2.3903  3.2099
 3784TIP3    H235548   6.122   5.841  10.337  0.0736 -2.7216 -0.2274
 3785TIP3   OH235549   5.218   1.742  10.425 -0.2264 -0.8195  0.0531
 3785TIP3    H135550   5.294   1.692  10.393 -1.4645 -2.0844 -1.0986
 3785TIP3    H235551   5.164   1.676  10.470  0.1484  0.4035  2.4373
 3786TIP3   OH235552   2.807   1.614   8.216  0.0019 -0.1797  0.2334
 3786TIP3    H135553   2.880   1.592   8.158  2.1302  2.3089  1.7362
 3786TIP3    H235554   2.787   1.705   8.196 -0.7992  0.0248  1.8166
 3787TIP3   OH235555   5.757   3.220   9.396  0.2779 -0.7887  0.1527
 3787TIP3    H135556   5.667   3.190   9.409 -0.1332  0.9125  1.8089
 3787TIP3    H235557   5.804   3.143   9.364 -1.5140 -2.0342  0.3546
 3788TIP3   OH235558   1.031   7.636  10.629  0.5307 -0.0030 -0.5982
 3788TIP3    H135559   0.961   7.625  10.564  1.4316  0.4792 -1.6644
 3788TIP3    H235560   1.047   7.547  10.661 -2.2127  0.0994  1.4991
 3789TIP3   OH235561   1.025   5.811  11.000  0.6246 -0.2430 -0.0800
 3789TIP3    H135562   0.981   5.832  11.083  1.2694  1.0562 -0.0509
 3789TIP3    H235563   0.953   5.797  10.938  0.1429 -0.6810  0.5580
 3790TIP3   OH235564   4.268   7.176   9.349  0.0939  0.2387  0.3740
 3790TIP3    H135565   4.268   7.271   9.338  0.7942  0.5525  2.6025
 3790TIP3    H235566   4.342   7.145   9.297  1.6826  1.2830  1.9220
 3791TIP3   OH235567   3.198   2.698   9.668  0.2856 -0.1363  0.2624
 3791TIP3    H135568   3.251   2.635   9.619 -0.8554 -1.3054  0.4577
 3791TIP3    H235569   3.109   2.681   9.640 -0.4008 -0.7383  2.5395
 3792TIP3   OH235570   3.379   1.679   8.969  0.1564 -0.0787  0.2699
 3792TIP3    H135571   3.418   1.747   8.914  1.3878 -1.5498 -0.7773
 3792TIP3    H235572   3.319   1.725   9.027  1.1119  1.9079 -0.2560
 3793TIP3   OH235573   0.409   2.051  10.093 -0.4375 -0.2299 -0.7098
 3793TIP3    H135574   0.351   2.101  10.036  1.1786  0.8642 -1.4742
 3793TIP3    H235575   0.357   2.034  10.172 -1.4247  1.6937 -0.8981
 3794TIP3   OH235576   1.410   0.338   8.986  0.4066  0.2794  0.1333
 3794TIP3    H135577   1.487   0.334   9.043 -0.2359  1.6903  1.1347
 3794TIP3    H235578   1.424   0.267   8.923  2.7475  0.7619  0.0016
 3795TIP3   OH235579   3.105   5.653  11.079  0.3119  0.0235  0.0039
 3795TIP3    H135580   3.172   5.717  11.052  0.3730  0.4110  1.0298
 3795TIP3    H235581   3.028   5.707  11.100  0.1870 -0.2935  0.3571
 3796TIP3   OH235582   5.511   3.766   9.697 -0.6248  0.0130  0.0671
 3796TIP3    H135583   5.541   3.677   9.678 -0.6087  0.2132 -0.9031
 3796TIP3    H235584   5.417   3.762   9.685 -0.5420  0.2951 -0.6959
 3797TIP3   OH235585   2.992   7.645   9.073  0.1365 -0.7617  0.2283
 3797TIP3    H135586   2.966   7.571   9.127 -0.8347 -1.1588 -0.7548
 3797TIP3    H235587   3.007   7.608   8.986 -0.0646  0.1459 -0.2113
 3798TIP3   OH235588   5.919   7.158   9.787  0.2072 -0.1476  0.0771
 3798TIP3    H135589   5.935   7.140   9.695  1.4748 -0.6152  0.3634
 3798TIP3    H235590   5.908   7.253   9.791 -0.7150 -0.2142 -0.6577
 3799TIP3   OH235591   2.442   4.123  10.240 -0.3614 -0.4191  0.0395
 3799TIP3    H135592   2.390   4.101  10.317 -1.0105  0.5230 -0.1068
 3799TIP3    H235593   2.526   4.150  10.275 -0.1767 -1.3348  0.3237
 3800TIP3   OH235594   0.394   6.488  10.500  0.3517 -0.2271 -0.0264
 3800TIP3    H135595   0.413   6.486  10.594  0.1874  0.4566  0.0275
 3800TIP3    H235596   0.398   6.581  10.477 -0.0328 -0.3497 -0.6046
 3801TIP3   OH235597   6.696   5.637  10.536  0.0064  0.5563  0.0612
 3801TIP3    H135598   6.698   5.578  10.460 -1.5740  0.7416 -0.1549
 3801TIP3    H235599   6.611   5.621  10.577  0.8255  0.4713  1.8175
 3802TIP3   OH235600   4.881   1.932  10.117  0.0791  0.2035 -0.2469
 3802TIP3    H135601   4.882   2.012  10.171  1.7901  0.2693 -0.3294
 3802TIP3    H235602   4.973   1.909  10.107 -0.3085 -0.8585 -1.6162
 3803TIP3   OH235603   7.484   6.327   9.765 -0.3186 -0.0426  0.5838
 3803TIP3    H135604   7.566   6.280   9.781 -0.5305  0.1015  2.3304
 3803TIP3    H235605   7.457   6.357   9.852 -1.5991  0.9591 -0.1305
 3804TIP3   OH235606   0.900   0.453   9.889  0.7732  0.7547  0.2995
 3804TIP3    H135607   0.814   0.411   9.885  0.1114  1.6140  2.9806
 3804TIP3    H235608   0.916   0.485   9.800 -0.9934 -0.6820 -0.6000
 3805TIP3   OH235609   3.863   2.022   8.684 -0.3403 -0.4663 -0.4392
 3805TIP3    H135610   3.913   2.096   8.649  0.5089 -1.9227 -2.4334
 3805TIP3    H235611   3.786   2.016   8.627  0.0740 -1.6753 -0.8956
 3806TIP3   OH235612   2.233   1.189   9.549 -0.5274  0.4833 -0.1860
 3806TIP3    H135613   2.201   1.099   9.553  0.8216 -0.0113 -0.1384
 3806TIP3    H235614   2.190   1.227   9.473 -2.0579  0.2014  0.4917
 3807TIP3   OH235615   4.394   3.009   9.129 -0.1131 -0.4759  0.7751
 3807TIP3    H135616   4.455   3.032   9.199  0.4305 -0.6591  0.3701
 3807TIP3    H235617   4.445   3.021   9.049 -1.2668  1.6244  0.2633
 3808TIP3   OH235618   4.873   0.444   9.556  0.4970 -0.3613  0.0518
 3808TIP3    H135619   4.861   0.489   9.640 -2.0865 -0.8154  0.0180
 3808TIP3    H235620   4.917   0.509   9.500  1.0267  0.4306  1.3287
 3809TIP3   OH235621   1.985   5.990  10.768  0.0095 -0.2689 -0.4140
 3809TIP3    H135622   1.922   5.919  10.766  1.2219 -1.3846 -0.4866
 3809TIP3    H235623   2.062   5.954  10.812  1.1624  0.5246 -1.6538
 3810TIP3   OH235624   2.308   0.225  10.435 -0.0820  0.3374 -0.1753
 3810TIP3    H135625   2.302   0.236  10.341 -1.6498  0.6719 -0.0642
 3810TIP3    H235626   2.352   0.141  10.447 -0.2921  0.0693 -1.2156
 3811TIP3   OH235627   6.351   1.591   9.346  0.2786  0.5335  0.4588
 3811TIP3    H135628   6.419   1.579   9.280  0.8739 -0.1530  1.1738
 3811TIP3    H235629   6.396   1.578   9.429 -1.1922 -2.5695  0.9153
 3812TIP3   OH235630   7.014   2.096   9.987  0.4255  0.2297  0.5494
 3812TIP3    H135631   7.085   2.051   9.940 -0.9419 -1.7555  0.2544
 3812TIP3    H235632   7.007   2.181   9.943  0.5051 -0.7924 -1.5933
 3813TIP3   OH235633   6.797   3.002  10.358  0.2754 -0.3203  0.0750
 3813TIP3    H135634   6.808   3.046  10.274  1.0173  0.3701  0.5140
 3813TIP3    H235635   6.712   3.033  10.391  0.3648  0.0663 -0.0490
 3814TIP3   OH235636   0.940   1.809  10.856 -0.0823  0.2227 -0.1931
 3814TIP3    H135637   0.999   1.734  10.844  0.2576  0.7961 -2.7146
 3814TIP3    H235638   0.999   1.883  10.868 -0.3312  0.5323 -0.8715
 3815TIP3   OH235639   5.499   6.237  10.128  0.1836 -0.1011 -0.1370
 3815TIP3    H135640   5.439   6.311  10.126  2.6993  2.1244  0.6000
 3815TIP3    H235641   5.479   6.188  10.048 -1.1760  1.7147 -0.9875
 3816TIP3   OH235642   1.930   6.175  10.546  0.2761  0.3854  0.0344
 3816TIP3    H135643   1.958   6.139  10.630 -1.1395  1.0362  0.8187
 3816TIP3    H235644   1.898   6.262  10.567  1.8336  1.4052 -1.5302
 3817TIP3   OH235645   7.495   0.411  10.228 -0.2089  0.2547  0.6623
 3817TIP3    H135646   7.553   0.385  10.299 -0.2361 -1.3347  0.1337
 3817TIP3    H235647   7.407   0.409  10.267 -0.1039  0.6591  0.9203
 3818TIP3   OH235648   2.893   6.340   9.594  0.1067  0.0612  0.6616
 3818TIP3    H135649   2.935   6.258   9.567 -0.0228 -0.1619  1.1319
 3818TIP3    H235650   2.836   6.363   9.521  0.3496 -0.1263  0.4117
 3819TIP3   OH235651   2.520   0.497   9.517 -0.4474  0.0057  0.0238
 3819TIP3    H135652   2.595   0.486   9.575 -0.5720  0.1240  0.2067
 3819TIP3    H235653   2.449   0.447   9.559 -0.7651  0.7545  0.3949
 3820TIP3   OH235654   3.632   0.665  11.035  0.1261  0.1863 -0.3893
 3820TIP3    H135655   3.699   0.718  10.993 -1.1338  1.0856 -1.3374
 3820TIP3    H235656   3.563   0.728  11.059 -0.5800 -0.7620  0.1481
 3821TIP3   OH235657   5.167   4.952   8.858 -0.3053 -0.0432 -0.1328
 3821TIP3    H135658   5.239   5.009   8.831  0.3038 -1.5234 -1.9353
 3821TIP3    H235659   5.089   5.007   8.853  0.3616  0.8588 -1.0131
 3822TIP3   OH235660   5.688   5.677   8.686 -0.2561  0.6105  0.2376
 3822TIP3    H135661   5.654   5.765   8.668 -1.4088 -0.1088 -1.2693
 3822TIP3    H235662   5.782   5.685   8.670 -0.5408  1.2591 -1.3904
 3823TIP3   OH235663   4.678   2.046   9.259 -0.0438  0.4603  0.4666
 3823TIP3    H135664   4.718   2.120   9.305 -0.4351 -0.5626  2.6209
 3823TIP3    H235665   4.599   2.027   9.310  1.5605 -3.2831  1.9105
 3824TIP3   OH235666   4.349   2.877  10.867  0.1179 -0.1245 -0.3018
 3824TIP3    H135667   4.352   2.965  10.903  0.1850  0.0503 -0.7303
 3824TIP3    H235668   4.382   2.821  10.937  0.4188  0.2352 -0.1556
 3825TIP3   OH235669   1.153   2.238   9.716  0.1238  0.3924 -0.6744
 3825TIP3    H135670   1.179   2.319   9.760 -1.3397  0.1231  0.7947
 3825TIP3    H235671   1.200   2.169   9.764  1.1083  0.3050 -1.7106
 3826TIP3   OH235672   3.096   7.553  10.853 -0.2293 -0.2728 -0.6063
 3826TIP3    H135673   3.145   7.543  10.935 -2.6909 -1.6558  0.8095
 3826TIP3    H235674   3.038   7.627  10.868 -0.6464 -0.4865 -1.1123
 3827TIP3   OH235675   4.792   1.987   9.783 -0.0374  0.5259  0.3872
 3827TIP3    H135676   4.706   2.022   9.806  0.3672  0.7073  1.6565
 3827TIP3    H235677   4.774   1.897   9.756 -0.4103 -0.1315  2.6703
 3828TIP3   OH235678   0.568   4.887  10.427 -0.0647  0.1308  0.1927
 3828TIP3    H135679   0.574   4.927  10.340 -0.7099  0.5816  0.3474
 3828TIP3    H235680   0.480   4.908  10.457  0.2300  0.1841  1.0569
 3829TIP3   OH235681   7.633   0.068  11.060  0.1145  0.0776  0.1808
 3829TIP3    H135682   7.622   0.041  10.969  2.3229 -1.8670  0.4020
 3829TIP3    H235683   7.583   0.150  11.067 -1.6607 -0.6915 -2.2362
 3830TIP3   OH235684   4.991   4.341  10.861 -0.0839 -0.4392 -0.5408
 3830TIP3    H135685   4.983   4.290  10.941  1.5556 -2.7617 -1.7419
 3830TIP3    H235686   4.912   4.319  10.811 -1.5435  1.6768  0.6807
 3831TIP3   OH235687   6.210   0.528  11.572 -0.2381 -0.1704  0.0802
 3831TIP3    H135688   6.193   0.548  11.664 -1.6674 -0.4201 -0.1043
 3831TIP3    H235689   6.147   0.582  11.524  1.3586  0.9501 -0.8508
 3832TIP3   OH235690   6.131   2.342   8.795 -0.2908 -0.0519  0.6063
 3832TIP3    H135691   6.217   2.299   8.791 -0.2195 -0.2427  2.8115
 3832TIP3    H235692   6.075   2.288   8.739  1.1846  0.6026 -1.6321
 3833TIP3   OH235693   3.722   0.892   9.587 -0.3373 -0.1313 -0.1342
 3833TIP3    H135694   3.660   0.964   9.584 -0.1516  0.0028 -2.7047
 3833TIP3    H235695   3.794   0.919   9.530  0.5486 -1.6353  0.2105
 3834TIP3   OH235696   0.428   1.739   9.437  0.5172  0.0017 -0.1412
 3834TIP3    H135697   0.421   1.826   9.477  1.4126  1.0757 -2.1996
 3834TIP3    H235698   0.462   1.755   9.349 -2.8862 -2.0780 -2.0336
 3835TIP3   OH235699   4.151   7.189   9.603  0.5326 -0.4409 -0.2784
 3835TIP3    H135700   4.191   7.149   9.526 -1.0310 -1.8809 -0.4006
 3835TIP3    H235701   4.104   7.265   9.568  2.7474  1.0472 -0.1814
 3836TIP3   OH235702   1.544   0.263   9.622  0.3591 -0.0923 -0.2575
 3836TIP3    H135703   1.544   0.317   9.543  0.1812 -0.7199 -0.6871
 3836TIP3    H235704   1.637   0.244   9.638  0.3843 -0.0797 -0.3898
 3837TIP3   OH235705   7.593   1.190   9.416  0.5806 -0.2644  0.3270
 3837TIP3    H135706   7.632   1.182   9.329 -0.4409  0.8266 -0.2806
 3837TIP3    H235707   7.663   1.167   9.476  1.2618 -1.2258 -0.7881
 3838TIP3   OH235708   4.353   2.749  10.226 -0.0149  0.4056  0.4749
 3838TIP3    H135709   4.289   2.806  10.184 -0.7823  0.0932  1.1799
 3838TIP3    H235710   4.333   2.662  10.192 -0.0105  0.2936  0.7607
 3839TIP3   OH235711   6.764   4.103   9.177  0.1205  0.0522 -0.1028
 3839TIP3    H135712   6.715   4.088   9.257  1.8454  0.0615  1.0025
 3839TIP3    H235713   6.791   4.195   9.182  0.4014  0.0031 -0.5964
 3840TIP3   OH235714   4.613   1.090  10.124  0.8200 -0.0091  0.0507
 3840TIP3    H135715   4.704   1.089  10.151  1.6373  0.6540 -2.4285
 3840TIP3    H235716   4.570   1.150  10.186  2.0886 -0.1035  1.0671
 3841TIP3   OH235717   5.006   3.986  10.819  0.2353  0.7468  0.0683
 3841TIP3    H135718   4.938   4.008  10.756  0.2031 -0.0018 -0.1655
 3841TIP3    H235719   5.088   3.992  10.770  0.1109 -1.2188 -0.4568
 3842TIP3   OH235720   0.666   1.069   9.985  0.3059 -0.1890 -0.3715
 3842TIP3    H135721   0.760   1.073  10.001  0.0763  2.7466  1.0185
 3842TIP3    H235722   0.629   1.046  10.070 -0.3051  1.2345 -0.2280
 3843TIP3   OH235723   1.206   6.605   8.900 -0.2206 -0.0912 -0.1338
 3843TIP3    H135724   1.223   6.695   8.929  0.7075  0.0975 -1.1890
 3843TIP3    H235725   1.216   6.609   8.805 -1.1274 -1.1191 -0.2847
 3844TIP3   OH235726   2.170   7.320  11.017  0.5578 -0.0692  0.2476
 3844TIP3    H135727   2.251   7.278  11.045  1.1554 -0.5317 -1.9571
 3844TIP3    H235728   2.198   7.386  10.953 -0.7688 -0.2155 -0.5231
 3845TIP3   OH235729   0.741   7.336   9.463 -0.5532  0.0864  0.6441
 3845TIP3    H135730   0.685   7.261   9.442  1.5397 -1.0239 -1.4657
 3845TIP3    H235731   0.716   7.404   9.401  0.7518 -0.6228 -0.7116
 3846TIP3   OH235732   3.186   0.487  10.369 -0.2032 -0.2912 -0.6229
 3846TIP3    H135733   3.129   0.520  10.438  0.3686  0.6311 -0.5792
 3846TIP3    H235734   3.138   0.504  10.287  0.4055  1.3565 -0.6560
 3847TIP3   OH235735   0.946   5.548   8.837 -1.0360  0.1921 -0.4520
 3847TIP3    H135736   0.901   5.469   8.806 -0.8983 -0.6975  1.4587
 3847TIP3    H235737   0.971   5.528   8.928  2.5193  0.9179 -1.0909
 3848TIP3   OH235738   6.362   2.210   9.047  0.4794  0.1642 -0.0469
 3848TIP3    H135739   6.452   2.182   9.031  0.3524  0.7967 -2.0674
 3848TIP3    H235740   6.308   2.134   9.025  0.4718 -0.0649  0.7242
 3849TIP3   OH235741   2.076   7.158  10.491  0.3716  0.2936 -0.0438
 3849TIP3    H135742   2.160   7.204  10.486  1.3724 -1.4879 -0.5682
 3849TIP3    H235743   2.097   7.068  10.468 -1.6544 -0.2695  0.1331
 3850TIP3   OH235744   1.283   0.575   9.606  0.5196 -0.3021 -0.6166
 3850TIP3    H135745   1.364   0.566   9.556  0.2941 -0.0462 -1.0372
 3850TIP3    H235746   1.227   0.503   9.575  0.7783 -0.8060  0.0604
 3851TIP3   OH235747   4.971   3.293  10.571 -0.3029 -0.6351  0.0754
 3851TIP3    H135748   4.991   3.202  10.592 -1.8240 -1.1821 -0.7004
 3851TIP3    H235749   4.907   3.320  10.637  1.4602  0.5081  1.4280
 3852TIP3   OH235750   2.895   2.214   9.583 -0.1519  0.2786 -0.0309
 3852TIP3    H135751   2.987   2.231   9.605 -0.0024  0.3214 -0.6711
 3852TIP3    H235752   2.895   2.201   9.488 -0.9142  0.9754 -0.1318
 3853TIP3   OH235753   0.146   1.702  10.308  0.2145  0.0460 -0.4795
 3853TIP3    H135754   0.099   1.630  10.350  1.0495 -0.5885 -0.5938
 3853TIP3    H235755   0.170   1.761  10.380  1.7962 -1.1227 -0.0004
 3854TIP3   OH235756   5.074   1.211   8.933  0.5351  0.1108 -0.0133
 3854TIP3    H135757   5.105   1.277   8.871  0.3723 -0.5604 -0.8381
 3854TIP3    H235758   5.053   1.260   9.012 -2.2737  1.5305 -1.4724
 3855TIP3   OH235759   0.654   5.330  10.714 -0.3617 -0.0455 -0.4972
 3855TIP3    H135760   0.567   5.352  10.682 -0.2339 -0.0182 -0.8280
 3855TIP3    H235761   0.647   5.240  10.744 -0.5505  0.0162 -0.3563
 3856TIP3   OH235762   1.780   5.936   9.683  0.3548 -0.5058 -0.3359
 3856TIP3    H135763   1.800   6.022   9.645  1.7795 -0.6901 -0.0605
 3856TIP3    H235764   1.834   5.875   9.634  0.2522 -1.0919  0.2756
 3857TIP3   OH235765   0.320   1.736   8.689  0.5772  0.1467 -0.0894
 3857TIP3    H135766   0.295   1.715   8.779  0.3518 -1.7325 -0.5343
 3857TIP3    H235767   0.287   1.824   8.674 -1.0008 -0.1957  1.0890
 3858TIP3   OH235768   7.448   6.040   8.694 -0.0960  0.4527  0.5607
 3858TIP3    H135769   7.421   6.046   8.602  0.2743  0.1571  0.4315
 3858TIP3    H235770   7.367   6.018   8.741 -0.4597  1.4469  0.4176
 3859TIP3   OH235771   4.683   7.546  10.884 -0.3093  0.7031  0.0773
 3859TIP3    H135772   4.634   7.603  10.824 -0.5960  1.5812  1.1156
 3859TIP3    H235773   4.699   7.600  10.961 -1.4549 -0.9244  1.5281
 3860TIP3   OH235774   2.843   7.572   9.583  0.5055 -0.4608 -0.2805
 3860TIP3    H135775   2.824   7.494   9.530 -2.8802 -0.8179  1.1739
 3860TIP3    H235776   2.876   7.537   9.666 -1.0898 -0.4511  0.4008
 3861TIP3   OH235777   6.811   1.711  11.104 -0.5175 -0.3003 -0.2627
 3861TIP3    H135778   6.731   1.750  11.140 -1.4228 -0.6513 -1.8316
 3861TIP3    H235779   6.865   1.786  11.079 -0.7221 -0.0675 -0.0214
 3862TIP3   OH235780   0.386   3.878   8.847 -0.3558  0.0099  0.2348
 3862TIP3    H135781   0.302   3.865   8.804 -0.1463 -0.8823  0.0823
 3862TIP3    H235782   0.450   3.834   8.791  0.1469  0.2171  0.6268
 3863TIP3   OH235783   5.792   1.353   9.470  0.2113 -0.4092 -0.3912
 3863TIP3    H135784   5.846   1.361   9.391 -1.2235  1.5361 -1.2673
 3863TIP3    H235785   5.851   1.376   9.542  1.4461 -1.8307 -0.9007
 3864TIP3   OH235786   6.729   4.964   9.457 -0.7171  0.3938 -0.0327
 3864TIP3    H135787   6.636   4.968   9.480 -0.8292 -0.2553 -0.3503
 3864TIP3    H235788   6.774   4.946   9.539 -0.8379  1.0002  0.1749
 3865TIP3   OH235789   4.768   2.965   8.719  0.5656  0.1337 -0.4961
 3865TIP3    H135790   4.699   2.934   8.778  1.5711  2.4004  2.0945
 3865TIP3    H235791   4.722   3.019   8.654 -0.2513  0.3449  0.2392
 3866TIP3   OH235792   4.483   2.411   9.522  0.1632  0.5380  0.3520
 3866TIP3    H135793   4.567   2.364   9.526  0.2458  0.6524  0.0262
 3866TIP3    H235794   4.501   2.496   9.563  0.7983  1.4067 -1.5938
 3867TIP3   OH235795   4.064   4.710   9.003  0.6536 -0.8404  0.0702
 3867TIP3    H135796   4.115   4.787   9.030  0.5023 -1.1482  1.2737
 3867TIP3    H235797   4.014   4.740   8.927 -1.4228  1.0975  2.0595
 3868TIP3   OH235798   7.166   0.234   8.957 -0.1674  0.0591 -0.0367
 3868TIP3    H135799   7.140   0.277   8.876 -1.4048 -0.1866  0.2117
 3868TIP3    H235800   7.150   0.301   9.025  3.1295  1.1717 -0.1588
 3869TIP3   OH235801   3.843   2.232  10.034 -0.3337  0.2561 -0.0699
 3869TIP3    H135802   3.752   2.224  10.064 -0.3030  0.3770  0.0567
 3869TIP3    H235803   3.878   2.143  10.042 -0.5588  0.1266 -0.5092
 3870TIP3   OH235804   2.937   2.612   9.524 -0.0629  0.2623  0.0391
 3870TIP3    H135805   2.921   2.702   9.494 -0.5981  0.1959  0.1107
 3870TIP3    H235806   2.868   2.560   9.482 -0.3691  0.0518  0.7872
 3871TIP3   OH235807   0.967   4.547  10.737  0.2898 -0.2961  0.4846
 3871TIP3    H135808   1.029   4.505  10.677  0.8304  0.7773  0.2565
 3871TIP3    H235809   0.982   4.641  10.724 -0.2766 -0.0411  1.5969
 3872TIP3   OH235810   3.184   1.765   9.123 -0.1223 -0.4353 -0.1170
 3872TIP3    H135811   3.158   1.858   9.123  1.8945  0.1744 -0.0093
 3872TIP3    H235812   3.143   1.729   9.202 -1.9948 -0.0063 -0.8171
 3873TIP3   OH235813   3.516   2.098  10.850 -0.0419  0.1789  0.5556
 3873TIP3    H135814   3.611   2.112  10.852 -0.0711  0.5031 -0.0427
 3873TIP3    H235815   3.507   2.004  10.832  0.1613  0.0800  0.9522
 3874TIP3   OH235816   6.958   2.434   9.998  0.0620  0.1795 -0.2092
 3874TIP3    H135817   6.978   2.528   9.999 -0.7299  0.3712 -0.8446
 3874TIP3    H235818   6.865   2.429  10.020  0.5153 -0.6063  1.6624
 3875TIP3   OH235819   3.984   4.825  10.039 -0.5104  0.0357  0.2094
 3875TIP3    H135820   3.932   4.745  10.028  0.0934 -0.2058 -1.0293
 3875TIP3    H235821   3.923   4.887  10.078 -1.4831 -0.5098 -0.4015
 3876TIP3   OH235822   0.174   1.073  10.882 -0.1145  0.1195  0.0648
 3876TIP3    H135823   0.101   1.119  10.842 -0.6754  0.8062  1.7719
 3876TIP3    H235824   0.175   0.987  10.839 -1.4068  0.3970 -0.5701
 3877TIP3   OH235825   1.719   6.284  10.796  0.0509 -0.1756 -0.5642
 3877TIP3    H135826   1.639   6.265  10.846 -0.8430  3.4129 -0.3476
 3877TIP3    H235827   1.790   6.267  10.857 -0.7465 -0.3035  0.3595
 3878TIP3   OH235828   3.578   4.517  10.039 -0.6125 -0.6228  0.7267
 3878TIP3    H135829   3.617   4.431  10.024  0.4146 -0.1023  0.3587
 3878TIP3    H235830   3.484   4.499  10.045 -0.4452 -1.7266  0.3162
 3879TIP3   OH235831   1.112   1.593  10.826  0.6684  0.3528  0.3950
 3879TIP3    H135832   1.156   1.541  10.893  1.3941 -2.2424 -1.9398
 3879TIP3    H235833   1.183   1.635  10.778  0.1706  1.7707  0.8396
 3880TIP3   OH235834   1.362   0.451  11.080 -0.3890 -0.6114 -0.0388
 3880TIP3    H135835   1.398   0.470  11.166  0.4046 -0.5960 -0.3651
 3880TIP3    H235836   1.434   0.410  11.032 -0.7885 -0.5188 -0.7331
 3881TIP3   OH235837   2.224   1.675   8.732 -0.1742  0.5476  0.6086
 3881TIP3    H135838   2.192   1.625   8.657 -0.2504  1.4041  0.0621
 3881TIP3    H235839   2.318   1.657   8.735 -0.3929 -0.6315  1.1988
 3882TIP3   OH235840   3.563   7.555   9.059 -0.1703  0.0558  0.3384
 3882TIP3    H135841   3.634   7.553   8.994 -0.4260  0.0258  0.0600
 3882TIP3    H235842   3.483   7.541   9.008 -0.1707 -3.0137  0.9481
 3883TIP3   OH235843   0.633   1.008  10.421 -0.2332  0.4669 -0.0779
 3883TIP3    H135844   0.646   0.922  10.381  3.2565  1.3002 -1.0734
 3883TIP3    H235845   0.603   0.989  10.510  0.1469 -1.7890 -0.3813
 3884TIP3   OH235846   1.455   3.110   9.915 -0.1306 -0.3243  0.5278
 3884TIP3    H135847   1.377   3.163   9.896  0.2558  0.0847  0.0506
 3884TIP3    H235848   1.488   3.146   9.997  0.2069  0.2823  0.1383
 3885TIP3   OH235849   6.544   1.578  10.187 -0.0987 -0.2633 -0.3432
 3885TIP3    H135850   6.494   1.555  10.265  0.3184  0.3511  0.1137
 3885TIP3    H235851   6.518   1.512  10.122 -2.1952  0.5522 -0.4156
 3886TIP3   OH235852   0.756   5.176   9.722 -0.3632 -0.2674 -0.0878
 3886TIP3    H135853   0.663   5.158   9.737 -0.4488 -0.1923 -0.5137
 3886TIP3    H235854   0.762   5.194   9.628  0.4779 -2.6356 -0.5528
 3887TIP3   OH235855   4.925   1.574  10.219  0.2379 -0.5811 -0.2279
 3887TIP3    H135856   5.018   1.592  10.225  0.2234 -0.0145 -1.3372
 3887TIP3    H235857   4.919   1.480  10.200  0.5740 -0.6353 -0.0620
 3888TIP3   OH235858   3.195   1.289  11.091  0.4489 -0.4413 -0.2442
 3888TIP3    H135859   3.205   1.372  11.044  1.0357  0.9803  2.2225
 3888TIP3    H235860   3.100   1.278  11.100  0.3680 -0.0450 -0.5685
 3889TIP3   OH235861   5.505   2.424   9.515  0.1877  0.2363  0.3572
 3889TIP3    H135862   5.581   2.410   9.572  0.1306  0.7990  0.5783
 3889TIP3    H235863   5.542   2.465   9.437  0.3164 -0.8474 -0.1762
 3890TIP3   OH235864   2.914   0.375   8.157 -0.3188 -0.1244 -0.0974
 3890TIP3    H135865   2.926   0.390   8.063 -1.9637 -0.6687 -0.4277
 3890TIP3    H235866   2.867   0.292   8.162 -1.0793  0.3532  1.1536
 3891TIP3   OH235867   5.481   2.312  11.237  0.1545  0.2646  0.0326
 3891TIP3    H135868   5.427   2.327  11.315 -0.9196  2.0917 -0.9758
 3891TIP3    H235869   5.568   2.341  11.263  0.4806 -1.6939  1.3443
 3892TIP3   OH235870   1.193   3.112  10.716  0.3026 -0.6522  0.0639
 3892TIP3    H135871   1.284   3.121  10.691  0.3426  0.1565  0.4686
 3892TIP3    H235872   1.165   3.200  10.740 -0.3702 -1.0120  0.6732
 3893TIP3   OH235873   4.232   0.357  10.904 -0.1449  0.7632 -0.1480
 3893TIP3    H135874   4.197   0.309  10.829  0.2580  1.2420 -0.6517
 3893TIP3    H235875   4.181   0.326  10.978 -0.2063 -0.0981 -0.5379
 3894TIP3   OH235876   0.087   0.134  10.365  0.5271  0.2106  0.1171
 3894TIP3    H135877   0.017   0.086  10.323 -0.3597 -0.1660  1.9311
 3894TIP3    H235878   0.165   0.079  10.353 -0.2213 -1.1116  1.1286
 3895TIP3   OH235879   0.768   3.892   9.438 -0.5496  0.3037  0.1125
 3895TIP3    H135880   0.697   3.885   9.502  0.6616  0.9461  1.5863
 3895TIP3    H235881   0.846   3.911   9.490  0.7486 -0.4867 -1.4460
 3896TIP3   OH235882   3.777   0.876  10.929 -0.4097  0.1990  0.5980
 3896TIP3    H135883   3.824   0.958  10.918 -0.4041 -0.0732 -1.9746
 3896TIP3    H235884   3.701   0.883  10.872 -0.0526 -1.8187 -0.2221
 3897TIP3   OH235885   3.062   0.166  10.826  0.2931  0.3047 -0.2041
 3897TIP3    H135886   3.062   0.152  10.732  0.3458 -0.4092 -0.1065
 3897TIP3    H235887   3.126   0.236  10.840 -0.0963  0.7724 -0.7440
 3898TIP3   OH235888   1.460   6.195  10.068 -0.3149  0.1377 -0.5930
 3898TIP3    H135889   1.440   6.266  10.129  1.5840  0.7388 -0.6018
 3898TIP3    H235890   1.469   6.117  10.123  0.2685  0.4566 -0.2260
 3899TIP3   OH235891   4.876   0.179  10.587  0.4713 -0.0377  0.1385
 3899TIP3    H135892   4.919   0.149  10.667  1.0764  1.1364  0.2851
 3899TIP3    H235893   4.915   0.128  10.517  0.6065 -0.4259  0.4965
 3900TIP3   OH235894   1.933   4.696  10.946  0.1403 -0.5992 -0.8340
 3900TIP3    H135895   1.918   4.734  11.033 -0.3739  0.5133 -1.3860
 3900TIP3    H235896   1.849   4.659  10.921  0.1945 -0.6155 -0.9925
 3901TIP3   OH235897   5.929   7.658  10.536 -0.1461 -0.3381  0.5275
 3901TIP3    H135898   5.920   7.590  10.468  0.6819 -2.5039  2.4469
 3901TIP3    H235899   5.842   7.695  10.544 -0.5348 -0.8581 -0.8906
 3902TIP3   OH235900   7.253   2.196  11.162  0.1504 -0.2055 -0.3068
 3902TIP3    H135901   7.160   2.211  11.148 -0.1682 -1.4123  0.3639
 3902TIP3    H235902   7.282   2.146  11.086 -0.3629 -2.0510  0.6363
 3903TIP3   OH235903   0.783   6.096   8.699 -0.2453  0.1410  0.2440
 3903TIP3    H135904   0.780   6.030   8.768  1.7962 -0.7013 -0.4188
 3903TIP3    H235905   0.702   6.082   8.650 -0.5664 -0.8468  1.0242
 3904TIP3   OH235906   1.207   4.067  10.521  0.0400  0.2299  0.0758
 3904TIP3    H135907   1.243   4.151  10.491  0.2636  0.4460  0.9281
 3904TIP3    H235908   1.117   4.068  10.489 -0.2410  1.2063  0.8353
 3905TIP3   OH235909   0.398   4.286  10.318 -0.0906  0.3859  0.1651
 3905TIP3    H135910   0.440   4.352  10.264 -1.5197 -0.3175 -1.9418
 3905TIP3    H235911   0.397   4.207  10.263 -3.9517  0.3218  0.0159
 3906TIP3   OH235912   3.515   1.306  10.157 -0.0408  0.0668 -0.1294
 3906TIP3    H135913   3.516   1.243  10.229 -0.5362 -1.1231 -1.1211
 3906TIP3    H235914   3.558   1.261  10.085  1.3504  1.6115 -0.3100
 3907TIP3   OH235915   7.027   3.317   8.730 -0.2312  0.2188  0.1058
 3907TIP3    H135916   7.062   3.290   8.645  1.4591  0.2690  0.7641
 3907TIP3    H235917   7.016   3.236   8.779 -0.7286  0.2347  0.0270
 3908TIP3   OH235918   0.769   1.822  10.639  0.9744  0.1863 -0.1477
 3908TIP3    H135919   0.828   1.775  10.699  1.8586  0.7822 -0.5317
 3908TIP3    H235920   0.783   1.914  10.660 -1.1841  0.3090  1.0163
 3909TIP3   OH235921   1.364   3.560   9.247  0.3681  0.4783 -0.2022
 3909TIP3    H135922   1.378   3.605   9.330 -0.0944  2.2849 -1.0333
 3909TIP3    H235923   1.434   3.495   9.242 -0.1277 -0.2910  1.9619
 3910TIP3   OH235924   5.698   3.935   9.115 -0.3818 -0.0057  0.4302
 3910TIP3    H135925   5.760   4.008   9.122  1.2562 -1.4113  1.8034
 3910TIP3    H235926   5.616   3.969   9.151 -0.0856  1.5639 -0.3231
 3911TIP3   OH235927   1.512   1.568  10.033  0.5321 -0.0983  0.5274
 3911TIP3    H135928   1.548   1.614  10.109 -0.8786 -0.0231  1.2013
 3911TIP3    H235929   1.450   1.506  10.071  0.2301 -0.4637 -0.5403
 3912TIP3   OH235930   3.736   2.224  10.670  0.7804 -0.5025 -0.8216
 3912TIP3    H135931   3.671   2.260  10.609 -0.2636  0.0421  0.5620
 3912TIP3    H235932   3.798   2.295  10.684  0.2865 -0.1793 -0.2500
 3913TIP3   OH235933   0.484   5.421  10.092  0.0036  0.3892 -0.5337
 3913TIP3    H135934   0.542   5.380  10.027 -1.3740  0.9579 -2.1765
 3913TIP3    H235935   0.400   5.378  10.080  0.2001 -1.1219  2.4983
 3914TIP3   OH235936   6.958   6.974  10.243  0.1456  0.0644  0.4192
 3914TIP3    H135937   7.010   6.984  10.323 -1.2273  2.5884  1.1068
 3914TIP3    H235938   7.018   6.999  10.172  0.7820 -0.2018  0.8561
 3915TIP3   OH235939   4.323   6.530   9.678  0.1069  0.0092  0.2216
 3915TIP3    H135940   4.322   6.625   9.664  0.7400 -0.0365 -0.1904
 3915TIP3    H235941   4.415   6.506   9.668  0.0689 -0.5392  1.0927
 3916TIP3   OH235942   6.162   1.553   9.980 -0.1415  0.6109  0.0109
 3916TIP3    H135943   6.241   1.604   9.964 -0.6893  1.4483 -0.0658
 3916TIP3    H235944   6.118   1.599  10.052  0.4065 -0.9522  1.4030
 3917TIP3   OH235945   0.034   1.673   9.131 -0.1686 -0.3094  0.4666
 3917TIP3    H135946  -0.001   1.679   9.220 -1.3048 -2.0350  0.1861
 3917TIP3    H235947  -0.044   1.664   9.075  0.5780 -0.3816 -0.5924
 3918TIP3   OH235948   3.612   0.863   9.942 -0.4629 -0.0185  0.0596
 3918TIP3    H135949   3.652   0.822   9.866 -0.6244 -0.6480  0.3144
 3918TIP3    H235950   3.531   0.814   9.958 -0.5529  0.2563  0.4949
 3919TIP3   OH235951   3.703   5.354  10.675 -0.4248  0.3393  0.0024
 3919TIP3    H135952   3.794   5.357  10.646 -0.0931 -1.5174  0.7213
 3919TIP3    H235953   3.652   5.356  10.595  0.3294 -0.6958 -0.5121
 3920TIP3   OH235954   2.978   5.443   9.755 -0.7012  0.1348  0.1193
 3920TIP3    H135955   2.944   5.386   9.824  0.4454 -0.7943 -0.0472
 3920TIP3    H235956   3.032   5.507   9.801 -0.1890 -0.2933  0.1242
 3921TIP3   OH235957   7.134   3.573   8.570  0.2882  0.6464  0.4598
 3921TIP3    H135958   7.043   3.547   8.587  0.1424  1.3627  0.8304
 3921TIP3    H235959   7.156   3.529   8.488 -0.9642  1.7902 -0.5518
 3922TIP3   OH235960   7.411   4.159   8.192 -0.0859  0.0784 -0.0840
 3922TIP3    H135961   7.360   4.234   8.224  0.1080  0.5153 -0.7707
 3922TIP3    H235962   7.348   4.107   8.143 -0.6018 -1.0785  1.7211
 3923TIP3   OH235963   6.751   0.486  10.619  0.6582  0.9551 -0.3933
 3923TIP3    H135964   6.793   0.569  10.640  0.0160  0.7922  1.8258
 3923TIP3    H235965   6.807   0.420  10.659 -0.3263  0.5506  0.3551
 3924TIP3   OH235966   4.156   4.719  10.924  0.0274  0.4405  0.3888
 3924TIP3    H135967   4.089   4.656  10.950 -1.3697  1.4394 -0.6198
 3924TIP3    H235968   4.119   4.804  10.948  1.2641  0.9740  0.4568
 3925TIP3   OH235969   1.298   3.732   8.241 -0.7150 -0.0054  0.0673
 3925TIP3    H135970   1.279   3.816   8.199 -0.1881  1.7677  3.1294
 3925TIP3    H235971   1.215   3.684   8.236 -2.1293  2.1415  1.3086
 3926TIP3   OH235972   6.588   6.787   8.879 -0.1760  0.0935 -0.0498
 3926TIP3    H135973   6.527   6.826   8.942 -1.1033 -2.1062  0.5216
 3926TIP3    H235974   6.578   6.841   8.800 -0.9317  1.3278  0.8403
 3927TIP3   OH235975   0.576   6.867   9.229  0.3459  0.1347 -0.7232
 3927TIP3    H135976   0.554   6.923   9.155  1.3816 -0.1291 -1.2529
 3927TIP3    H235977   0.671   6.876   9.238  0.3077 -0.2849  0.2108
 3928TIP3   OH235978   2.066   4.583  10.498  0.3943 -0.1681  0.2784
 3928TIP3    H135979   2.160   4.574  10.485  0.4573 -1.5645  1.4084
 3928TIP3    H235980   2.027   4.559  10.414  1.0524  0.7850 -0.3063
 3929TIP3   OH235981   0.181   6.027   9.585 -0.0493 -0.5255 -0.5059
 3929TIP3    H135982   0.273   6.031   9.610 -0.4638 -0.1593  1.0768
 3929TIP3    H235983   0.162   5.934   9.576  0.2874 -0.6432 -0.0436
 3930TIP3   OH235984   1.066   6.728   9.156 -0.9022  0.3123 -0.2780
 3930TIP3    H135985   1.036   6.811   9.118  0.8892  1.2549  0.2246
 3930TIP3    H235986   1.107   6.682   9.083 -1.2407  0.1990 -0.3981
 3931TIP3   OH235987   4.866   2.168  10.264 -0.2136  0.1546 -0.4160
 3931TIP3    H135988   4.903   2.108  10.329 -0.5745  0.0628 -0.2919
 3931TIP3    H235989   4.852   2.250  10.312  1.4314  0.7555 -0.8818
 3932TIP3   OH235990   4.321   0.550  11.185 -0.1637  0.1510  0.2899
 3932TIP3    H135991   4.269   0.627  11.208 -0.3302  0.4616 -1.0680
 3932TIP3    H235992   4.264   0.476  11.205 -0.3827  0.4082  0.6345
 3933TIP3   OH235993   3.787   2.579   9.450 -0.4295  0.8771  0.6012
 3933TIP3    H135994   3.712   2.617   9.403 -0.9256  0.1137  0.7554
 3933TIP3    H235995   3.772   2.603   9.542 -1.2370 -0.4243  0.8389
 3934TIP3   OH235996   4.015   6.357  10.555 -0.2478  0.1479 -0.2038
 3934TIP3    H135997   4.052   6.272  10.580 -0.0031  0.6180  1.1643
 3934TIP3    H235998   4.090   6.409  10.527 -0.2594  0.2228 -0.0958
 3935TIP3   OH235999   4.720   3.592   8.250 -0.5603 -0.0832 -0.0081
 3935TIP3    H136000   4.774   3.518   8.221  0.5776  0.1544  1.3800
 3935TIP3    H236001   4.632   3.572   8.218 -0.1915 -1.8307 -0.0104
 3936TIP3   OH236002   3.038   3.620  10.593  0.1833  0.7527 -0.7269
 3936TIP3    H136003   3.129   3.595  10.577 -0.1505 -1.1185 -0.0183
 3936TIP3    H236004   3.032   3.629  10.688 -0.5817 -0.1426 -0.6738
 3937TIP3   OH236005   6.304   3.514  10.674  0.5262 -0.3860 -0.1697
 3937TIP3    H136006   6.226   3.461  10.694  0.0750  0.4464  0.2969
 3937TIP3    H236007   6.293   3.538  10.582  0.7420 -1.0972 -0.3929
 3938TIP3   OH236008   3.925   3.622   8.852  0.4584  0.1535  0.6104
 3938TIP3    H136009   3.923   3.568   8.774  1.3178 -0.8786  1.2743
 3938TIP3    H236010   3.840   3.666   8.854  0.2924 -0.0850 -0.6923
 3939TIP3   OH236011   6.088   4.822  10.596 -0.0306 -0.0393 -0.0113
 3939TIP3    H136012   6.068   4.766  10.670 -0.8968 -1.4426 -1.2447
 3939TIP3    H236013   6.131   4.764  10.533  0.8633  1.1595 -0.5595
 3940TIP3   OH236014   1.313   1.808   9.704 -0.1411  0.0735  0.5806
 3940TIP3    H136015   1.267   1.857   9.636 -0.6393 -0.7730  0.2920
 3940TIP3    H236016   1.284   1.718   9.692  0.1197 -0.1645  1.6270
 3941TIP3   OH236017   5.209   0.971   8.796  0.1988 -0.5150 -0.6171
 3941TIP3    H136018   5.300   0.980   8.769 -0.5267  0.9279 -2.8780
 3941TIP3    H236019   5.203   1.025   8.875  0.8162  1.4458 -1.8351
 3942TIP3   OH236020   2.243   3.783   9.908 -0.1479  0.2866 -0.2581
 3942TIP3    H136021   2.167   3.791   9.965  0.1254  1.7596 -0.0449
 3942TIP3    H236022   2.314   3.825   9.957  0.8568 -1.1930 -0.3837
 3943TIP3   OH236023   6.489   3.675  11.067  0.3983  0.1723  0.6207
 3943TIP3    H136024   6.581   3.661  11.047  0.3098 -0.8836  0.8835
 3943TIP3    H236025   6.447   3.591  11.049 -0.3346  0.3274  1.4984
 3944TIP3   OH236026   5.617   1.947   9.480  0.0067  0.0472 -0.2694
 3944TIP3    H136027   5.531   1.914   9.456 -0.4397  1.8455 -1.3029
 3944TIP3    H236028   5.654   1.980   9.398  1.2970  0.1262  0.3193
 3945TIP3   OH236029   5.858   5.927  10.466 -0.0967 -0.1531  0.1822
 3945TIP3    H136030   5.810   5.880  10.534  0.5827 -1.1635 -0.0069
 3945TIP3    H236031   5.948   5.932  10.498 -0.3055  1.7887  0.5690
 3946TIP3   OH236032   4.033   6.129  10.296  0.5495  0.4681 -0.4474
 3946TIP3    H136033   4.010   6.219  10.276 -1.0528  0.9629  3.0251
 3946TIP3    H236034   3.961   6.077  10.260 -1.1645  1.1352  1.7698
 3947TIP3   OH236035   2.587   3.371   9.568 -0.4258 -0.1159 -0.1968
 3947TIP3    H136036   2.612   3.301   9.508 -1.2801 -1.6082  1.1030
 3947TIP3    H236037   2.627   3.346   9.652 -2.2733 -0.0888  0.7576
 3948TIP3   OH236038   7.006   2.711  10.876 -0.4528 -0.0670  0.4320
 3948TIP3    H136039   7.086   2.676  10.836 -1.5181 -0.2549 -1.6385
 3948TIP3    H236040   7.013   2.806  10.865 -0.8175 -0.1299 -0.3439
 3949TIP3   OH236041   7.206   2.932  10.617  0.2860 -0.1411  0.3746
 3949TIP3    H136042   7.111   2.923  10.622  0.1506 -0.9117 -2.2145
 3949TIP3    H236043   7.240   2.845  10.637  0.5684  0.3346  2.1960
 3950TIP3   OH236044   5.004   1.105  11.189 -0.0922  0.0739 -0.2992
 3950TIP3    H136045   5.015   1.034  11.126 -2.0582 -0.3400 -0.2493
 3950TIP3    H236046   5.068   1.086  11.258 -0.0612 -1.2424 -0.6610
 3951TIP3   OH236047   3.521   7.212   9.476 -0.1341  0.2252 -0.0510
 3951TIP3    H136048   3.553   7.128   9.444  0.4668  0.4238  0.0194
 3951TIP3    H236049   3.508   7.265   9.397 -2.0813 -0.4498 -0.2434
 3952TIP3   OH236050   3.439   0.730   7.906  0.4550 -0.0757  0.5948
 3952TIP3    H136051   3.393   0.704   7.986 -3.6552 -0.5051 -1.6293
 3952TIP3    H236052   3.402   0.815   7.883  1.9840  0.3192 -0.5484
 3953TIP3   OH236053   3.302   0.295   9.921  0.2599  0.0960 -0.1517
 3953TIP3    H136054   3.245   0.262   9.851  0.4719 -0.5441 -0.0251
 3953TIP3    H236055   3.270   0.251  10.000 -0.3192  1.2070  0.2566
 3954TIP3   OH236056   3.705   0.530  11.264  0.1271  0.1864 -0.4500
 3954TIP3    H136057   3.764   0.600  11.291  2.1932 -0.7231 -2.3787
 3954TIP3    H236058   3.668   0.560  11.181  0.3058 -0.5861 -0.8167
 3955TIP3   OH236059   3.889   4.387   9.327 -0.1289  0.1254  0.6339
 3955TIP3    H136060   3.802   4.428   9.321  0.4942  1.7036  1.7649
 3955TIP3    H236061   3.947   4.450   9.285  0.6223 -0.4613  0.7875
 3956TIP3   OH236062   2.413   7.200   9.568  0.1492  0.4412 -0.2273
 3956TIP3    H136063   2.455   7.286   9.576 -0.2722  0.6002  0.3046
 3956TIP3    H236064   2.320   7.218   9.579  0.1394 -0.2076  0.8593
 3957TIP3   OH236065   1.098   1.776   8.615  0.0598  0.0654  0.0093
 3957TIP3    H136066   1.176   1.794   8.668 -0.0066 -3.1593  1.4035
 3957TIP3    H236067   1.132   1.763   8.526  0.8582  0.4912  0.2413
 3958TIP3   OH236068   4.485   1.696  10.921 -0.1206 -0.3396 -0.0283
 3958TIP3    H136069   4.471   1.753  10.997  0.0470 -0.8089  0.3626
 3958TIP3    H236070   4.580   1.696  10.908 -0.1246 -0.4789 -0.0651
 3959TIP3   OH236071   3.768   6.295  10.495  0.4154  0.0496 -0.2296
 3959TIP3    H136072   3.770   6.305  10.400 -0.7921  0.1806 -0.2611
 3959TIP3    H236073   3.853   6.327  10.525  1.1071 -0.7051 -1.3213
 3960TIP3   OH236074   1.704   6.144   9.936 -0.1064 -0.2062  0.0623
 3960TIP3    H136075   1.704   6.050   9.918  3.2288 -0.3514  0.1522
 3960TIP3    H236076   1.615   6.163   9.968 -0.6523 -3.4579  0.8251
 3961TIP3   OH236077   2.634   7.252   8.688  0.7171  0.4829 -0.3782
 3961TIP3    H136078   2.605   7.174   8.736 -0.7910  0.1231 -1.8094
 3961TIP3    H236079   2.685   7.301   8.752 -0.9679 -0.1209  1.5151
 3962TIP3   OH236080   5.681   4.374   9.379  0.4559 -0.2681 -0.1878
 3962TIP3    H136081   5.648   4.348   9.292 -0.8460 -0.9972  0.4927
 3962TIP3    H236082   5.621   4.443   9.407  1.2652  0.4235 -0.1167
 3963TIP3   OH236083   6.341   6.590  10.570  1.0258 -0.1727 -0.5389
 3963TIP3    H136084   6.264   6.585  10.514 -1.7981 -1.1225  3.0757
 3963TIP3    H236085   6.395   6.515  10.543 -0.0747 -0.4187 -2.1522
 3964TIP3   OH236086   4.948   2.016  10.457  0.2111  0.2265  0.5992
 3964TIP3    H136087   4.891   2.057  10.522  1.1716  1.5475  0.6681
 3964TIP3    H236088   5.037   2.030  10.492  0.6089 -1.9015  0.5855
 3965TIP3   OH236089   7.080   6.567  10.104 -0.1644 -0.1698 -0.3286
 3965TIP3    H136090   7.057   6.637  10.044 -0.6074  0.8950  1.0335
 3965TIP3    H236091   7.035   6.490  10.069 -2.3654  0.9257 -0.0833
 3966TIP3   OH236092   5.798   3.026   9.760  0.0990 -0.1006  0.3890
 3966TIP3    H136093   5.765   2.982   9.838 -2.1145 -0.4356 -0.6658
 3966TIP3    H236094   5.770   2.971   9.687 -1.2423  2.1046 -0.8634
 3967TIP3   OH236095   0.165   2.412   9.873  0.8835  0.1117 -0.9084
 3967TIP3    H136096   0.167   2.320   9.847 -0.7322 -0.2544  0.1549
 3967TIP3    H236097   0.215   2.416   9.954 -0.7391 -0.2451  0.1496
 3968TIP3   OH236098   0.985   7.103  10.440 -0.4801 -0.3858 -0.3098
 3968TIP3    H136099   0.945   7.188  10.423  1.6098  0.7653  0.2857
 3968TIP3    H236100   1.057   7.097  10.378  0.3312 -1.0421  0.6619
 3969TIP3   OH236101   3.709   5.937   9.154 -0.2634 -0.1111  0.5218
 3969TIP3    H136102   3.638   5.919   9.092 -0.7707  1.6918  0.5044
 3969TIP3    H236103   3.766   5.861   9.148 -3.2782 -2.7585  2.1882
 3970TIP3   OH236104   2.587   3.069   8.958 -0.6106 -0.3089  0.1783
 3970TIP3    H136105   2.620   2.980   8.969 -0.5737 -0.1468  1.5550
 3970TIP3    H236106   2.492   3.062   8.969 -0.7298 -0.3228 -0.7708
 3971TIP3   OH236107   4.261   0.088   9.954 -0.0060 -0.3254 -0.2989
 3971TIP3    H136108   4.176   0.122   9.925  0.4189  0.6991 -0.3584
 3971TIP3    H236109   4.317   0.095   9.877  1.1533  2.4731  0.6942
 3972TIP3   OH236110   5.324   7.457   9.070  0.8490  0.4378  0.5713
 3972TIP3    H136111   5.364   7.440   8.985  0.2283 -1.8855  0.6841
 3972TIP3    H236112   5.264   7.530   9.053  0.3222 -0.3260 -1.1528
 3973TIP3   OH236113   6.974   3.442   9.810  0.0258  0.2468  0.0622
 3973TIP3    H136114   6.893   3.410   9.769  0.3510 -2.1211  1.0962
 3973TIP3    H236115   6.955   3.441   9.904  1.9186 -2.6723  0.5298
 3974TIP3   OH236116   3.377   5.089  11.006  0.0573  0.2514  0.2414
 3974TIP3    H136117   3.455   5.128  11.047 -0.2332  1.9034 -0.6645
 3974TIP3    H236118   3.312   5.086  11.076  0.3946  0.5519  0.5724
 3975TIP3   OH236119   5.058   2.896  11.294  0.6318 -0.1642 -0.6266
 3975TIP3    H136120   5.054   2.955  11.219  1.6437  1.7951  0.7916
 3975TIP3    H236121   5.143   2.853  11.288  1.7648  1.7690  0.5959
 3976TIP3   OH236122   0.262   2.607   9.025 -0.0912  0.3021 -0.3848
 3976TIP3    H136123   0.318   2.534   8.996 -1.1666 -0.3064 -1.0152
 3976TIP3    H236124   0.198   2.566   9.083  0.8609  1.2050  1.3799
 3977TIP3   OH236125   4.045   4.201   9.074  0.2363  0.2627 -0.4269
 3977TIP3    H136126   4.089   4.277   9.037 -0.0170  0.2178 -0.8254
 3977TIP3    H236127   3.963   4.194   9.025  0.8674 -1.0759 -1.3541
 3978TIP3   OH236128   2.413   6.643   9.294  0.2016  0.3139  0.0191
 3978TIP3    H136129   2.324   6.609   9.287 -0.9222  3.1580 -1.1431
 3978TIP3    H236130   2.467   6.579   9.247 -1.1900 -1.3966  0.6288
 3979TIP3   OH236131   0.287   7.300  10.321  0.5875  0.1023  0.3479
 3979TIP3    H136132   0.356   7.360  10.292 -0.7864  0.9835 -1.2721
 3979TIP3    H236133   0.218   7.357  10.355 -0.4224 -0.5690 -0.4888
 3980TIP3   OH236134   7.231   2.963  10.973  0.0016 -0.9013  0.0734
 3980TIP3    H136135   7.304   2.901  10.974  0.2408 -0.6177  0.4524
 3980TIP3    H236136   7.180   2.938  10.896 -0.7735 -2.5650  1.0848
 3981TIP3   OH236137   0.132   6.425  10.225  0.1303  0.1093  0.4003
 3981TIP3    H136138   0.042   6.455  10.236 -0.3431 -1.2867  0.4618
 3981TIP3    H236139   0.151   6.376  10.305 -0.2472 -2.4501 -0.9669
 3982TIP3   OH236140   3.249   2.881   8.722 -0.2233  0.5733 -0.6158
 3982TIP3    H136141   3.295   2.941   8.663  0.9342 -0.4036 -0.7515
 3982TIP3    H236142   3.267   2.794   8.686  0.5909 -0.0671  1.1894
 3983TIP3   OH236143   5.952   3.146  10.404  0.2019  0.2903 -0.0632
 3983TIP3    H136144   6.004   3.074  10.367 -0.8250 -0.6983  0.3529
 3983TIP3    H236145   5.886   3.102  10.459 -0.2047  1.5753  0.5111
 3984TIP3   OH236146   1.493   3.457   9.541  0.2809 -0.4447  0.1836
 3984TIP3    H136147   1.427   3.396   9.574 -0.9333  0.4824 -0.4483
 3984TIP3    H236148   1.573   3.404   9.533 -0.2577 -1.4846  1.3707
 3985TIP3   OH236149   1.948   2.995   9.842  0.1810  0.6021  0.1601
 3985TIP3    H136150   1.888   2.979   9.915  2.2890 -0.7763  1.6896
 3985TIP3    H236151   2.019   3.046   9.880  1.2635 -0.0423 -0.9329
 3986TIP3   OH236152   0.721   0.623   8.816  0.2815  0.5996  0.1210
 3986TIP3    H136153   0.632   0.604   8.786  0.9624  0.0211 -1.6964
 3986TIP3    H236154   0.745   0.704   8.770  1.0909  0.1177 -0.3373
 3987TIP3   OH236155   0.591   0.789   8.296 -0.0890  0.0452  0.2742
 3987TIP3    H136156   0.512   0.736   8.302  0.9152 -1.7359 -1.2441
 3987TIP3    H236157   0.654   0.733   8.250  1.3426  2.2148 -0.5603
 3988TIP3   OH236158   7.263   4.571   9.752  0.3940  0.1075  0.1049
 3988TIP3    H136159   7.225   4.544   9.669 -0.5280  1.6271 -0.0161
 3988TIP3    H236160   7.217   4.653   9.774  2.1092  0.8778  1.0466
 3989TIP3   OH236161   1.388   0.868  10.157 -0.0831  0.9342 -0.5292
 3989TIP3    H136162   1.400   0.774  10.143 -4.2101  0.3768 -1.8101
 3989TIP3    H236163   1.452   0.909  10.100  1.2364 -1.0846 -0.6197
 3990TIP3   OH236164   5.883   2.646   9.139 -0.1019  0.0633 -0.7375
 3990TIP3    H136165   5.897   2.741   9.143  1.0214 -0.1047 -0.0153
 3990TIP3    H236166   5.966   2.611   9.107  0.0828 -0.7817  0.5708
 3991TIP3   OH236167   4.258   1.875   8.849 -0.4106 -0.6448  0.0572
 3991TIP3    H136168   4.347   1.840   8.857 -0.3022 -0.4441 -0.2743
 3991TIP3    H236169   4.211   1.808   8.799 -0.0127  0.0096 -1.2288
 3992TIP3   OH236170   4.933   1.289   9.809 -0.2200 -0.2115 -0.1064
 3992TIP3    H136171   4.992   1.232   9.761  1.4514  0.6964  0.7752
 3992TIP3    H236172   4.848   1.279   9.765  0.7734 -0.9112 -1.9497
 3993TIP3   OH236173   4.478   2.967   9.977 -0.1034 -0.4594 -0.2206
 3993TIP3    H136174   4.399   2.976  10.029 -1.0459 -0.5119 -1.5863
 3993TIP3    H236175   4.540   2.922  10.035 -0.2982  1.4854  1.6182
 3994TIP3   OH236176   2.185   0.246  10.160  0.7271 -0.9184 -0.2082
 3994TIP3    H136177   2.254   0.196  10.117  0.1318 -2.1749  0.2535
 3994TIP3    H236178   2.104   0.203  10.134  0.3463 -1.9606  2.3766
 3995TIP3   OH236179   1.133   4.893   9.118 -0.1220  0.4622 -0.6975
 3995TIP3    H136180   1.149   4.849   9.201  1.0321  0.4233 -0.9159
 3995TIP3    H236181   1.044   4.928   9.125  0.1587  0.9439  0.7778
 3996TIP3   OH236182   0.813   3.962   9.838 -0.5768  0.1698 -0.0970
 3996TIP3    H136183   0.756   4.006   9.901 -0.8670  0.6570 -0.6914
 3996TIP3    H236184   0.854   4.033   9.788  1.0195 -0.1479  0.7035
 3997TIP3   OH236185   5.649   5.729   9.716  0.5028  0.3578 -0.7067
 3997TIP3    H136186   5.721   5.742   9.654  1.6469 -0.0800  0.4836
 3997TIP3    H236187   5.688   5.746   9.802 -0.8183  0.0812 -0.0267
 3998TIP3   OH236188   6.752   6.038   9.384 -0.1373 -0.2402  0.1173
 3998TIP3    H136189   6.676   6.000   9.428  0.3848  1.1503  2.3983
 3998TIP3    H236190   6.807   5.963   9.361 -1.5943 -1.1741 -0.4809
 3999TIP3   OH236191   5.207   5.319   8.892 -0.4399 -0.2994 -0.7767
 3999TIP3    H136192   5.266   5.246   8.878 -0.3261 -0.2544 -0.5312
 3999TIP3    H236193   5.262   5.389   8.927 -0.7931 -0.5651  0.3676
 4000TIP3   OH236194   5.346   7.362  10.792  0.1441  0.1204  0.7026
 4000TIP3    H136195   5.371   7.312  10.714  1.0795 -0.5627  1.4121
 4000TIP3    H236196   5.251   7.350  10.799  0.1404 -0.2960 -0.0010
 4001TIP3   OH236197   7.224   1.630   9.208 -0.7370 -0.6163  0.7859
 4001TIP3    H136198   7.307   1.616   9.164 -0.6159  0.2320  0.7417
 4001TIP3    H236199   7.185   1.706   9.165  0.2438  1.4661  3.3097
 4002TIP3   OH236200   4.366   4.536   8.860  0.0885 -0.3267 -0.0210
 4002TIP3    H136201   4.458   4.523   8.883 -0.1740 -2.3330  0.0656
 4002TIP3    H236202   4.367   4.545   8.764  0.2943 -1.5155 -0.1487
 4003TIP3   OH236203   6.210   7.088  10.592 -0.0965  0.5832 -0.2044
 4003TIP3    H136204   6.272   7.050  10.530  0.9385  0.7023  0.7391
 4003TIP3    H236205   6.236   7.054  10.677 -1.8606 -0.0359  0.1237
 4004TIP3   OH236206   7.436   1.692   9.022 -0.4980 -0.4947 -0.0594
 4004TIP3    H136207   7.470   1.777   8.994  0.4252 -0.4969  0.9885
 4004TIP3    H236208   7.394   1.656   8.944  0.1791  0.3849 -0.8548
 4005TIP3   OH236209   1.920   4.647   8.764  0.1740  0.2453 -0.2208
 4005TIP3    H136210   1.941   4.572   8.820 -0.4011 -0.0422 -0.3872
 4005TIP3    H236211   1.828   4.635   8.741 -0.0504  1.2272  0.0914
 4006TIP3   OH236212   7.618   1.688  10.002 -0.1802 -0.9689  0.1475
 4006TIP3    H136213   7.673   1.610  10.012  1.4664 -0.3809 -2.9062
 4006TIP3    H236214   7.671   1.759  10.038 -1.0827 -1.0269  1.6478
 4007TIP3   OH236215   7.136   3.630   9.319  0.2981 -0.1692  0.2560
 4007TIP3    H136216   7.131   3.534   9.321  0.2038 -0.1738  3.0482
 4007TIP3    H236217   7.059   3.659   9.368  0.1682  1.3879 -0.8073
 4008TIP3   OH236218   7.265   2.113   9.888 -1.0961 -0.2612 -0.0866
 4008TIP3    H136219   7.323   2.164   9.945 -1.4014 -0.8707  0.7855
 4008TIP3    H236220   7.321   2.043   9.854 -0.4134  1.1438 -2.0555
 4009TIP3   OH236221   7.491   2.190  10.576  0.1766  0.3037 -0.3435
 4009TIP3    H136222   7.422   2.167  10.514 -1.0353 -0.5732  1.2694
 4009TIP3    H236223   7.444   2.218  10.654  1.6578 -0.0077  0.6899
 4010TIP3   OH236224   0.359   1.010  10.591  0.1342 -0.1769  0.3229
 4010TIP3    H136225   0.361   1.105  10.603  1.6885 -0.1450  0.0450
 4010TIP3    H236226   0.325   0.997  10.503 -2.7166 -0.0460  1.2821
 4011TIP3   OH236227   3.149   2.179  10.092  0.3452 -0.1258 -0.6663
 4011TIP3    H136228   3.128   2.263  10.051 -0.5696 -0.0754 -0.1397
 4011TIP3    H236229   3.089   2.117  10.052 -0.3195 -0.1419  0.3031
 4012TIP3   OH236230   3.249   0.106   9.310 -0.0097  0.4221 -0.4913
 4012TIP3    H136231   3.245   0.024   9.360  1.7705  0.3417 -0.4292
 4012TIP3    H236232   3.157   0.125   9.289 -0.5763 -0.8730  0.6352
 4013TIP3   OH236233   3.451   4.860  10.898 -0.6178 -0.3189 -0.1975
 4013TIP3    H136234   3.427   4.945  10.936  1.8844 -0.0628  1.0704
 4013TIP3    H236235   3.400   4.796  10.948 -0.1941  0.2683  1.0337
 4014TIP3   OH236236   0.954   0.318  10.132  0.5559  0.1134 -0.5281
 4014TIP3    H136237   0.942   0.355  10.045  0.6874 -0.2315 -0.6986
 4014TIP3    H236238   0.865   0.304  10.166  0.4951  1.9732  0.1558
 4015TIP3   OH236239   4.075   0.187   9.528  0.1652 -0.2923  0.1803
 4015TIP3    H136240   4.072   0.113   9.588 -1.1095  1.0268  1.8620
 4015TIP3    H236241   4.097   0.262   9.583 -1.7463  1.1024 -0.8049
 4016TIP3   OH236242   0.036   3.694   9.757  0.2816 -0.3196  0.0674
 4016TIP3    H136243   0.025   3.600   9.769 -3.5041 -0.3301 -2.0242
 4016TIP3    H236244   0.039   3.729   9.846  1.6755 -2.3115  0.8940
 4017TIP3   OH236245   4.187   4.469  10.090  0.4899  0.0714 -0.0019
 4017TIP3    H136246   4.114   4.489  10.149 -0.8616 -2.1154 -0.8086
 4017TIP3    H236247   4.191   4.543  10.030 -0.3373  0.7406  0.7552
 4018TIP3   OH236248   4.697   3.090  10.731 -0.3568 -0.2654  0.0308
 4018TIP3    H136249   4.785   3.066  10.703 -0.5265 -0.7287 -0.1121
 4018TIP3    H236250   4.711   3.149  10.806  0.1201  1.6899 -1.5026
 4019TIP3   OH236251   7.474   4.204  10.350  0.0398  0.1049 -0.2988
 4019TIP3    H136252   7.379   4.213  10.347 -0.4751 -3.2726  1.3459
 4019TIP3    H236253   7.500   4.251  10.430 -0.6720 -1.1518  0.7089
 4020TIP3   OH236254   1.006   0.758   7.800 -0.5565 -0.1821  0.1388
 4020TIP3    H136255   0.989   0.806   7.882  1.7112  0.2503  0.4096
 4020TIP3    H236256   1.100   0.743   7.800 -0.3077  0.7036 -2.8655
 4021TIP3   OH236257   3.477   6.131   9.277  0.2465  0.3236  0.3149
 4021TIP3    H136258   3.549   6.181   9.315 -0.1679  1.5666 -0.4529
 4021TIP3    H236259   3.406   6.195   9.268 -0.8683 -0.7891  0.7783
 4022TIP3   OH236260   2.009   2.225   8.469 -0.4492  0.1636  0.4760
 4022TIP3    H136261   1.915   2.213   8.456 -0.3910 -1.5075  1.3005
 4022TIP3    H236262   2.026   2.186   8.554  0.8622  1.2731  0.7520
 4023TIP3   OH236263   2.036   2.554  10.046  0.1464  0.2598 -0.8548
 4023TIP3    H136264   2.067   2.573   9.958  1.2950 -1.9668 -0.9922
 4023TIP3    H236265   2.109   2.509  10.089 -1.3480 -1.2324  0.2902
 4024TIP3   OH236266   2.729   7.406   8.936 -0.1151  0.2902  0.3044
 4024TIP3    H136267   2.639   7.387   8.964  0.3995  0.3922  2.1660
 4024TIP3    H236268   2.723   7.492   8.896 -0.8639  0.2858  0.3813
 4025TIP3   OH236269   6.783   1.476  10.953  0.7143 -0.1509 -0.1781
 4025TIP3    H136270   6.766   1.544  11.018  1.2154 -0.2861  0.1002
 4025TIP3    H236271   6.831   1.408  11.001  0.1091 -0.7583 -0.4257
 4026TIP3   OH236272   2.382   7.562   9.910  0.3052  0.0291 -0.0182
 4026TIP3    H136273   2.376   7.595   9.820  0.8421  0.3769  0.0674
 4026TIP3    H236274   2.399   7.641   9.962  0.1599 -0.1951  0.3689
 4027TIP3   OH236275   3.831   4.992   9.696 -0.2071  0.4309 -0.1037
 4027TIP3    H136276   3.833   5.059   9.764 -2.3919  0.7301 -0.2577
 4027TIP3    H236277   3.905   4.934   9.716 -1.5979 -0.3615  3.4462
 4028TIP3   OH236278   0.454   1.796   9.809 -0.1069  0.2184  0.2809
 4028TIP3    H136279   0.364   1.815   9.782  0.0850 -0.3522 -0.8247
 4028TIP3    H236280   0.451   1.797   9.905 -1.3205  0.0553  0.2598
 4029TIP3   OH236281   1.165   1.215   9.424 -0.3028 -0.6052  0.2403
 4029TIP3    H136282   1.208   1.175   9.348 -1.5916 -0.4686 -0.5842
 4029TIP3    H236283   1.185   1.308   9.417  1.0883 -0.8211  1.0908
 4030TIP3   OH236284   1.224   4.439  10.261  1.0391 -0.1734  0.3589
 4030TIP3    H136285   1.130   4.445  10.278  1.1271  1.2176  0.4376
 4030TIP3    H236286   1.238   4.347  10.238 -0.2443 -0.5226  0.8748
 4031TIP3   OH236287   7.318   2.103   9.339 -0.7059 -0.2886  0.3158
 4031TIP3    H136288   7.403   2.081   9.302 -0.7416 -0.8191  0.5496
 4031TIP3    H236289   7.328   2.089   9.433 -1.1069 -0.5275  0.3224
 4032TIP3   OH236290   1.299   6.654   9.283  0.3100  0.8548 -0.4680
 4032TIP3    H136291   1.346   6.737   9.294  0.2194  0.8406  0.0600
 4032TIP3    H236292   1.215   6.679   9.245  0.5315  0.9358 -0.9124
 4033TIP3   OH236293   6.857   4.828   9.253 -0.4324 -0.2077  0.1658
 4033TIP3    H136294   6.802   4.750   9.261  0.0490 -0.7234 -1.1831
 4033TIP3    H236295   6.827   4.886   9.323 -2.2200 -0.7432 -0.0976
 4034TIP3   OH236296   1.456   7.028  10.882  0.0881 -0.7405  0.1116
 4034TIP3    H136297   1.383   7.009  10.941 -1.0749  1.0423 -0.6528
 4034TIP3    H236298   1.433   6.986  10.800  1.0429 -2.0621  0.4921
 4035TIP3   OH236299   5.252   1.761  11.055  0.2853  0.2359  0.0690
 4035TIP3    H136300   5.255   1.846  11.011  1.7278 -0.8440 -2.0917
 4035TIP3    H236301   5.159   1.739  11.058 -0.1869  2.0994  1.2353
 4036TIP3   OH236302   4.510   4.537  11.257  0.1733  0.0342  0.0590
 4036TIP3    H136303   4.466   4.541  11.342 -1.1771  0.0384 -0.6118
 4036TIP3    H236304   4.516   4.443  11.237 -0.6378  0.0706 -0.3898
 4037TIP3   OH236305   0.691   5.870  10.020  0.3494  0.5948  0.0335
 4037TIP3    H136306   0.658   5.907  10.102 -3.1198 -1.0701 -0.4092
 4037TIP3    H236307   0.694   5.776  10.035  1.4824  0.4036 -1.1947
 4038TIP3   OH236308   3.540   1.855   9.317  0.3283 -0.0808 -0.7387
 4038TIP3    H136309   3.634   1.872   9.308  0.3951 -0.0311  0.0182
 4038TIP3    H236310   3.528   1.766   9.283  0.3815  0.5052 -2.3634
 4039TIP3   OH236311   3.074   4.397  11.021  0.0989 -0.0603  0.0220
 4039TIP3    H136312   3.121   4.377  10.940  1.9316  0.1685  0.9659
 4039TIP3    H236313   3.057   4.491  11.015  1.4578  0.2451  0.4519
 4040TIP3   OH236314   2.744   2.489  10.597 -0.1220 -0.0517  0.1480
 4040TIP3    H136315   2.684   2.560  10.620 -1.5423 -0.2461 -2.5603
 4040TIP3    H236316   2.693   2.409  10.611  0.3460 -0.3574  0.1269
 4041TIP3   OH236317   6.082   6.910  10.292  0.0172  0.4458  0.4283
 4041TIP3    H136318   6.029   6.834  10.317 -0.3970  0.6807  0.2702
 4041TIP3    H236319   6.168   6.892  10.329  0.5637 -1.1544 -1.4412
 4042TIP3   OH236320   4.122   5.612  10.425  0.0071 -0.3351  0.0131
 4042TIP3    H136321   4.140   5.656  10.341  1.3720  1.9756  1.4196
 4042TIP3    H236322   4.202   5.562  10.443  0.2261  0.1881  0.5146
 4043TIP3   OH236323   6.235   0.009   9.529 -0.3995 -0.0989 -0.1894
 4043TIP3    H136324   6.195  -0.078   9.540 -0.7697  0.1990  0.9009
 4043TIP3    H236325   6.200   0.041   9.447 -0.2135 -1.0053 -0.6402
 4044TIP3   OH236326   5.049   6.059  10.677 -0.0527 -0.0380 -0.0522
 4044TIP3    H136327   5.085   6.017  10.599  2.1559  0.2534  0.7597
 4044TIP3    H236328   5.098   6.141  10.686 -0.2284 -0.0796  1.6439
 4045TIP3   OH236329   2.389   7.182  11.078 -0.5356  0.0909  0.1550
 4045TIP3    H136330   2.382   7.087  11.067  2.4778 -0.1873 -0.3126
 4045TIP3    H236331   2.483   7.197  11.091 -1.0879  2.8984  1.5796
 4046TIP3   OH236332   4.131   7.608   9.711  0.1648  0.1134 -0.3546
 4046TIP3    H136333   4.206   7.613   9.652  0.9855  0.2533  0.6801
 4046TIP3    H236334   4.102   7.517   9.705 -0.9537  0.5430 -2.3777
 4047TIP3   OH236335   0.190   1.268  10.572  0.4439  0.0834  0.2120
 4047TIP3    H136336   0.114   1.265  10.630  0.8178 -0.1314  0.6946
 4047TIP3    H236337   0.155   1.246  10.486 -0.1412  0.5483  0.3255
 4048TIP3   OH236338   2.517   2.066  10.984 -0.4627 -0.3814  0.1945
 4048TIP3    H136339   2.571   2.144  10.992  1.6219 -1.4376 -2.2293
 4048TIP3    H236340   2.440   2.095  10.935 -1.0452  0.6678  1.6850
 4049TIP3   OH236341   5.481   6.161  10.409  0.2900  0.3886 -0.9320
 4049TIP3    H136342   5.455   6.070  10.395 -0.5846  0.4800  0.0241
 4049TIP3    H236343   5.522   6.187  10.326  1.2910 -1.1101 -0.9524
 4050TIP3   OH236344   4.869   3.734   8.413 -0.0301 -0.2512 -0.6704
 4050TIP3    H136345   4.804   3.699   8.352  0.1245  2.7048 -2.7681
 4050TIP3    H236346   4.953   3.705   8.378  0.1122  2.0999 -2.5350
 4051TIP3   OH236347   0.165   6.367   9.677 -0.3485 -1.2878  0.2474
 4051TIP3    H136348   0.139   6.411   9.596  0.1416 -1.5476 -0.0481
 4051TIP3    H236349   0.260   6.361   9.672 -0.2425 -0.6308  1.1856
 4052TIP3   OH236350   3.673   0.619   9.112 -0.4313  0.1402  0.1055
 4052TIP3    H136351   3.692   0.673   9.189 -0.5997 -0.4026  0.5319
 4052TIP3    H236352   3.680   0.680   9.038 -0.2983  0.6740  0.5492
 4053TIP3   OH236353   4.062   1.504   9.465 -0.3641 -0.7193  0.4280
 4053TIP3    H136354   3.980   1.456   9.451 -0.9460  0.3078  0.2510
 4053TIP3    H236355   4.036   1.595   9.472  0.9116 -0.2185 -0.9528
 4054TIP3   OH236356   0.076   0.480  10.758  0.1348 -0.0245  0.3909
 4054TIP3    H136357   0.063   0.390  10.728 -1.0649  0.5075 -0.7705
 4054TIP3    H236358   0.033   0.483  10.844 -1.6409 -0.0685 -0.4477
 4055TIP3   OH236359   7.132   5.171   9.819 -0.2782 -0.3426  0.7098
 4055TIP3    H136360   7.227   5.181   9.808 -0.1658  1.0179  2.5030
 4055TIP3    H236361   7.122   5.085   9.861 -0.0955 -1.5953 -1.5974
 4056TIP3   OH236362   1.963   4.335   9.940  0.4432  0.9417  0.3903
 4056TIP3    H136363   1.951   4.318   9.847  0.2077  3.6057 -0.1404
 4056TIP3    H236364   1.967   4.248   9.980 -0.7633 -0.2641 -1.9125
 4057TIP3   OH236365   0.670   2.155  10.112 -0.1690  0.0073  0.0153
 4057TIP3    H136366   0.575   2.148  10.121 -0.1947  0.4131  0.0695
 4057TIP3    H236367   0.705   2.101  10.183 -0.3680  0.5859  0.5684
 4058TIP3   OH236368   3.161   4.356  10.770 -0.4043 -0.0706  0.1211
 4058TIP3    H136369   3.231   4.339  10.707 -0.4673 -1.1696  0.3326
 4058TIP3    H236370   3.083   4.317  10.729 -0.9172  1.1477 -0.1210
 4059TIP3   OH236371   1.508   0.510  10.263 -0.6532 -0.1060  0.4420
 4059TIP3    H136372   1.515   0.570  10.337  0.1724  0.9086 -0.4382
 4059TIP3    H236373   1.538   0.426  10.298  1.6349  0.7891  0.7726
 4060TIP3   OH236374   2.348   6.059  10.395 -0.1667  0.4921  0.1894
 4060TIP3    H136375   2.421   6.054  10.334 -0.5767 -1.0730 -0.2065
 4060TIP3    H236376   2.304   5.974  10.388 -0.3044  0.2858  2.5512
 4061TIP3   OH236377   2.306   4.209   9.739 -0.3784 -0.3281  0.5285
 4061TIP3    H136378   2.385   4.187   9.789 -0.7435 -0.5119  1.0351
 4061TIP3    H236379   2.339   4.254   9.661  0.2264 -0.4128  0.7273
 4062TIP3   OH236380   2.127   6.282  10.036  0.1138 -0.2808  0.1426
 4062TIP3    H136381   2.107   6.259  10.127 -0.9902  1.4223  0.3728
 4062TIP3    H236382   2.069   6.356  10.017  0.9362 -0.0637 -1.6841
 4063TIP3   OH236383   2.465   7.170   9.889  0.3442 -0.5124 -0.0464
 4063TIP3    H136384   2.418   7.098   9.930 -0.1032 -0.6515 -0.7825
 4063TIP3    H236385   2.397   7.232   9.863  0.6917 -0.0200  0.2118
 4064TIP3   OH236386   4.665   1.623  11.245  0.1109  0.0819  0.1988
 4064TIP3    H136387   4.668   1.717  11.265 -1.7568  0.6758 -1.8386
 4064TIP3    H236388   4.756   1.599  11.228  0.4083  2.2218 -1.8307
 4065TIP3   OH236389   2.351   2.848  10.544  0.2823  0.2880 -0.1754
 4065TIP3    H136390   2.314   2.907  10.609  1.9350 -2.5347  3.7238
 4065TIP3    H236391   2.301   2.767  10.555  3.0425 -1.4665  0.4722
 4066TIP3   OH236392   7.526   4.571   9.696  0.3525 -0.2114  0.8623
 4066TIP3    H136393   7.549   4.492   9.746  0.3814 -0.1182  0.9957
 4066TIP3    H236394   7.431   4.577   9.703  0.5406  1.3516  3.2630
 4067TIP3   OH236395   2.018   2.326  10.456 -0.5378 -0.4150 -0.1814
 4067TIP3    H136396   1.976   2.411  10.441 -0.4391 -0.2618  0.3848
 4067TIP3    H236397   1.959   2.262  10.416 -0.2803 -0.0334 -1.2265
 4068TIP3   OH236398   6.305   3.998   9.824  0.3542 -0.0669  0.1195
 4068TIP3    H136399   6.377   4.014   9.885 -0.0889 -0.9736  0.9188
 4068TIP3    H236400   6.228   4.034   9.867  0.1972  0.1986 -0.3745
 4069TIP3   OH236401   6.780   0.055  10.417 -0.0957  0.0887 -0.2228
 4069TIP3    H136402   6.717   0.082  10.350  1.6254  0.4890 -1.7343
 4069TIP3    H236403   6.764  -0.039  10.428 -1.4273  0.3144 -0.0198
 4070TIP3   OH236404   0.754   3.585   9.424  0.0613  0.4934  0.5424
 4070TIP3    H136405   0.767   3.668   9.378  1.2567 -0.0730 -0.1998
 4070TIP3    H236406   0.662   3.563   9.408 -0.4396  1.9431  1.2516
 4071TIP3   OH236407   4.529   1.807   9.810  0.0414  0.0614 -0.1659
 4071TIP3    H136408   4.567   1.820   9.897 -0.0373  1.4752 -0.3269
 4071TIP3    H236409   4.445   1.766   9.827  0.5569 -0.8184  0.3413
 4072TIP3   OH236410   3.602   1.905  10.200  0.2083  0.2129 -0.2521
 4072TIP3    H136411   3.655   1.928  10.277  1.0508 -0.9649 -0.4467
 4072TIP3    H236412   3.519   1.877  10.237  0.0422  1.1632  0.1233
 4073TIP3   OH236413   5.278   6.090   8.519  0.2796  0.0702 -0.4653
 4073TIP3    H136414   5.227   6.158   8.564 -0.4165  0.6175 -1.9977
 4073TIP3    H236415   5.211   6.034   8.478  0.8684  0.4090 -1.9590
 4074TIP3   OH236416   3.393   5.577   9.956  0.3436  0.1473 -0.1315
 4074TIP3    H136417   3.424   5.534  10.036  2.2262 -0.9871 -1.3657
 4074TIP3    H236418   3.439   5.661   9.954  0.0236  0.3306  0.1427
 4075TIP3   OH236419   5.043   1.024   9.774 -0.2793 -0.1109 -0.4995
 4075TIP3    H136420   4.985   0.956   9.808 -1.2444  0.6867 -0.4870
 4075TIP3    H236421   5.128   1.006   9.813  0.4341 -3.3293 -3.0931
 4076TIP3   OH236422   4.402   0.310  10.637 -0.5944 -0.0377  0.2387
 4076TIP3    H136423   4.381   0.361  10.559  0.0044 -0.8430 -0.4667
 4076TIP3    H236424   4.465   0.364  10.685  1.5402 -0.8761 -1.4600
 4077TIP3   OH236425   0.840   4.350  10.864 -0.5759  0.2018 -0.5545
 4077TIP3    H136426   0.805   4.397  10.940 -0.9081  0.8053 -1.0653
 4077TIP3    H236427   0.891   4.416  10.817 -1.2761  0.1398 -1.4360
 4078TIP3   OH236428   4.698   6.189   9.815  0.5933  0.3272 -0.2083
 4078TIP3    H136429   4.693   6.148   9.902  0.1648 -0.8767 -0.7732
 4078TIP3    H236430   4.790   6.180   9.790  0.0576 -3.0301 -1.5212
 4079TIP3   OH236431   5.141   0.448   9.228  0.3284 -0.0793 -0.1746
 4079TIP3    H136432   5.233   0.423   9.239  0.5061  0.9314  0.7499
 4079TIP3    H236433   5.136   0.538   9.258 -1.3444 -0.7040  1.6385
 4080TIP3   OH236434   1.849   1.552   9.996 -0.1275 -0.3670  0.2046
 4080TIP3    H136435   1.823   1.591   9.912  0.3751 -2.3556 -0.9587
 4080TIP3    H236436   1.795   1.597  10.061  0.0573  1.8239 -1.0575
 4081TIP3   OH236437   0.800   1.417   8.934 -0.4836 -0.1847 -0.6240
 4081TIP3    H136438   0.705   1.426   8.927 -0.3366  0.7498 -1.4532
 4081TIP3    H236439   0.814   1.322   8.944 -1.6878 -0.1505  2.8376
 4082TIP3   OH236440   3.857   3.398  10.003  0.2554  0.1275  0.8223
 4082TIP3    H136441   3.897   3.412  10.088  1.7569  1.7913 -0.0941
 4082TIP3    H236442   3.930   3.392   9.942 -0.8032  1.3974 -0.6656
 4083TIP3   OH236443   0.086   5.373   8.911  0.2493 -0.7267  0.2988
 4083TIP3    H136444   0.175   5.366   8.944  0.6852  0.6810 -0.5084
 4083TIP3    H236445   0.035   5.311   8.965  1.4989 -0.7803  1.4584
 4084TIP3   OH236446   7.502   6.711  10.180  0.1389  0.3953  0.5901
 4084TIP3    H136447   7.489   6.797  10.220 -0.1683  1.5879 -1.8882
 4084TIP3    H236448   7.572   6.724  10.117  0.4767 -1.3412  0.5592
 4085TIP3   OH236449   0.415   2.654   9.912 -0.2588  0.2158  0.6447
 4085TIP3    H136450   0.428   2.633   9.820  0.0973  1.2810  0.4381
 4085TIP3    H236451   0.407   2.749   9.914  1.3151  0.3499  1.9006
 4086TIP3   OH236452   2.093   0.753   8.465 -0.0607 -0.9281 -0.1114
 4086TIP3    H136453   2.049   0.682   8.511 -0.1733  0.1649  1.5563
 4086TIP3    H236454   2.156   0.788   8.528  0.1307  0.3085 -0.9524
 4087TIP3   OH236455   4.892   4.004   8.467  0.3172 -0.0639  0.2945
 4087TIP3    H136456   4.880   3.912   8.443 -0.2506  0.0610  0.1073
 4087TIP3    H236457   4.809   4.046   8.448  0.5733  0.4956  0.3793
 4088TIP3   OH236458   7.310   3.452  10.568 -0.0910  0.1569 -0.2298
 4088TIP3    H136459   7.248   3.382  10.544  0.4779 -0.2854 -0.4247
 4088TIP3    H236460   7.257   3.513  10.619 -0.6880 -0.2314 -0.3632
 4089TIP3   OH236461   6.301   0.384  10.761 -0.0121 -0.3484  0.1376
 4089TIP3    H136462   6.226   0.325  10.748  0.5452 -1.3281  1.2198
 4089TIP3    H236463   6.368   0.329  10.800  1.2413  0.5591 -0.6713
 4090TIP3   OH236464   4.127   6.731   9.111 -0.0973 -0.0812  0.3268
 4090TIP3    H136465   4.159   6.772   9.191  0.3367  0.8153 -0.2905
 4090TIP3    H236466   4.032   6.726   9.122 -0.1561  1.0900  0.4162
 4091TIP3   OH236467   0.956   7.150  11.043  0.6142 -0.4802  0.4636
 4091TIP3    H136468   0.977   7.232  10.998  0.1347 -0.0437  1.0282
 4091TIP3    H236469   1.042   7.113  11.065  0.9958 -1.9174 -2.8536
 4092TIP3   OH236470   5.295   7.060   9.601 -0.2037  0.1705 -0.5140
 4092TIP3    H136471   5.369   7.057   9.540  0.3506  0.6231  0.1226
 4092TIP3    H236472   5.336   7.058   9.688 -0.8878  1.5438 -0.1405
 4093TIP3   OH236473   5.081   0.836  10.523 -0.4491 -0.0825  0.7449
 4093TIP3    H136474   5.137   0.899  10.477 -1.3639  0.2120  0.0017
 4093TIP3    H236475   5.082   0.758  10.467 -0.2279 -0.3306  1.0895
 4094TIP3   OH236476   3.734   7.659   9.249 -0.8131  0.2430 -0.2311
 4094TIP3    H136477   3.661   7.629   9.195 -0.5851  0.4052 -0.6342
 4094TIP3    H236478   3.811   7.647   9.194 -0.6965  1.4142 -0.3578
 4095TIP3   OH236479   5.957   3.483  10.599 -0.5010 -0.2721 -0.1414
 4095TIP3    H136480   5.914   3.502  10.516  1.3833  0.2687 -1.0414
 4095TIP3    H236481   5.928   3.552  10.658 -0.2848  0.5414 -0.9619
 4096TIP3   OH236482   2.757   6.858   9.803  0.3449  0.0882 -0.1657
 4096TIP3    H136483   2.681   6.902   9.766  0.2593  0.2020  0.1381
 4096TIP3    H236484   2.725   6.817   9.883  0.4835 -0.3143 -0.3098
 4097TIP3   OH236485   6.745   2.323   9.178  0.2301 -0.4036  0.7812
 4097TIP3    H136486   6.752   2.255   9.245  2.5431 -1.4114 -0.3670
 4097TIP3    H236487   6.718   2.276   9.099  1.5647  0.0263  0.0397
 4098TIP3   OH236488   0.804   3.987  10.601 -0.3214 -0.0752  0.3408
 4098TIP3    H136489   0.831   4.044  10.674 -0.8954 -1.7324  1.9307
 4098TIP3    H236490   0.805   3.899  10.639 -1.9643 -0.8522 -1.2922
 4099TIP3   OH236491   5.271   0.284   9.460  0.4595  0.2112  0.1224
 4099TIP3    H136492   5.262   0.218   9.390  0.4761 -0.7912  1.0351
 4099TIP3    H236493   5.330   0.349   9.423  2.1326 -1.3418 -0.0760
 4100TIP3   OH236494   6.823   1.140  11.323  0.7137 -0.0748  0.1071
 4100TIP3    H136495   6.804   1.232  11.309  0.2129 -0.1285  0.3975
 4100TIP3    H236496   6.913   1.138  11.357  0.8409  0.2760 -0.2040
 4101TIP3   OH236497   3.936   0.915   9.224 -0.4591  0.4221  0.5196
 4101TIP3    H136498   3.916   0.964   9.304 -0.8114  1.7314 -0.3493
 4101TIP3    H236499   3.920   0.823   9.248 -0.2898  0.7505  2.0264
 4102TIP3   OH236500   6.682   2.287  10.628  0.2391  0.9890 -0.5916
 4102TIP3    H136501   6.717   2.243  10.550  0.2500  1.1873 -0.7010
 4102TIP3    H236502   6.652   2.372  10.595  0.6265  1.2385 -0.3040
 4103TIP3   OH236503   6.102   4.447   8.899  0.6993 -0.0904  0.0073
 4103TIP3    H136504   6.153   4.526   8.915  0.2111  0.2480 -0.0669
 4103TIP3    H236505   6.036   4.474   8.834 -0.4882 -0.1265  1.1510
 4104TIP3   OH236506   7.429   4.839   9.420  0.0193 -0.0859 -0.2144
 4104TIP3    H136507   7.386   4.753   9.421  1.7178 -0.9851  0.8612
 4104TIP3    H236508   7.521   4.819   9.436  0.4827  1.9501 -0.1579
 4105TIP3   OH236509   6.031   0.008  11.127 -0.4503 -0.5597  0.5958
 4105TIP3    H136510   6.085   0.060  11.068 -0.2618 -1.0405  0.3385
 4105TIP3    H236511   6.046   0.046  11.213 -1.0196  0.3949  0.2953
 4106TIP3   OH236512   2.081   0.130   9.400 -0.0040  0.3899  0.1764
 4106TIP3    H136513   2.041   0.046   9.377  1.7567 -0.7451  1.1023
 4106TIP3    H236514   2.156   0.139   9.341  0.3783  0.8557  0.7177
 4107TIP3   OH236515   2.816   4.055  10.152 -0.1004 -0.1882 -0.3722
 4107TIP3    H136516   2.859   4.065  10.237  3.2980 -1.9987 -1.6729
 4107TIP3    H236517   2.853   3.975  10.116 -0.9404  0.8184 -3.8210
 4108TIP3   OH236518   6.185   4.290  10.308 -0.1044  0.1160 -0.0835
 4108TIP3    H136519   6.189   4.214  10.366 -2.0951 -0.0433 -0.1001
 4108TIP3    H236520   6.266   4.338  10.326  1.2209 -1.9826 -0.0807
 4109TIP3   OH236521   5.476   4.725   9.027  0.0129 -0.6247  0.0480
 4109TIP3    H136522   5.471   4.775   9.108 -2.0712 -1.1533  0.3125
 4109TIP3    H236523   5.492   4.791   8.959  0.1307  0.0263  0.6924
 4110TIP3   OH236524   3.589   4.155   8.881  0.0683  0.2412 -0.3433
 4110TIP3    H136525   3.524   4.092   8.849  0.1644 -0.0212 -0.0284
 4110TIP3    H236526   3.657   4.156   8.814  0.5844 -0.7899  0.1375
 4111TIP3   OH236527   4.451   1.040   9.125 -0.6050 -0.0435  0.0242
 4111TIP3    H136528   4.390   0.979   9.165 -0.8892 -1.4936 -2.3659
 4111TIP3    H236529   4.433   1.124   9.166 -1.8015 -1.1090  1.8009
 4112TIP3   OH236530   5.785   1.928   8.369  0.5142 -0.5244  0.1904
 4112TIP3    H136531   5.714   1.989   8.387 -0.7288 -2.2887  1.5434
 4112TIP3    H236532   5.789   1.923   8.273  0.2409  1.1453  0.0670
 4113TIP3   OH236533   5.797   4.942   8.868  0.4913  0.0113  0.1890
 4113TIP3    H136534   5.805   4.868   8.808  0.8090  0.3410 -0.1729
 4113TIP3    H236535   5.702   4.954   8.878  0.4358 -0.4129  0.2194
 4114TIP3   OH236536   5.889   6.688  10.063 -0.1761 -0.4683  0.8688
 4114TIP3    H136537   5.916   6.711  10.152  0.1148 -0.2418  0.7231
 4114TIP3    H236538   5.878   6.593  10.065  1.2155 -0.6492  0.7809
 4115TIP3   OH236539   1.372   0.166   9.933  0.1457  0.0444  0.8943
 4115TIP3    H136540   1.311   0.092   9.932 -0.1137  0.2375 -0.4324
 4115TIP3    H236541   1.346   0.218   9.857  0.7307  1.1661  1.4516
 4116TIP3   OH236542   1.063   1.501   9.348 -0.4950  0.3775  0.1033
 4116TIP3    H136543   0.968   1.506   9.337 -0.3450  0.6360 -1.2128
 4116TIP3    H236544   1.096   1.467   9.265  0.4995 -0.5940  0.8655
 4117TIP3   OH236545   7.330   4.458  10.031 -0.4009 -0.3940 -0.1510
 4117TIP3    H136546   7.302   4.439   9.942  0.0165  1.0353 -0.6281
 4117TIP3    H236547   7.422   4.432  10.033 -0.8661 -2.0955  0.4341
 4118TIP3   OH236548   2.868   2.618   8.997  0.2938 -0.5668  0.2650
 4118TIP3    H136549   2.937   2.660   8.946 -0.3105  0.0777 -0.0401
 4118TIP3    H236550   2.858   2.531   8.957 -1.5013  0.5820 -2.0568
 4119TIP3   OH236551   5.713   5.274   8.851  0.8456 -0.8581  0.6105
 4119TIP3    H136552   5.809   5.272   8.844  0.9193 -0.3493  1.3329
 4119TIP3    H236553   5.683   5.211   8.786  1.5547  1.0980 -1.7271
 4120TIP3   OH236554   2.358   5.771  10.426 -0.4382 -0.0113 -0.0239
 4120TIP3    H136555   2.430   5.800  10.369 -0.5944 -0.6963 -0.5794
 4120TIP3    H236556   2.375   5.678  10.440 -0.6577  0.0555  0.6838
 4121TIP3   OH236557   6.565   1.699  10.876 -0.0764 -0.0316  0.2517
 4121TIP3    H136558   6.538   1.670  10.789 -1.8125  2.3131 -0.0783
 4121TIP3    H236559   6.545   1.624  10.933  1.7970 -1.8927 -1.3578
 4122TIP3   OH236560   6.598   7.414   8.674 -0.2484  0.6971 -0.2039
 4122TIP3    H136561   6.542   7.482   8.712 -1.4809  0.0721 -0.8171
 4122TIP3    H236562   6.615   7.445   8.585 -0.1518  0.5830 -0.2242
 4123TIP3   OH236563   6.288   7.480  11.158 -0.4629 -0.2823 -0.7059
 4123TIP3    H136564   6.276   7.562  11.206 -1.4989 -0.4893 -0.5910
 4123TIP3    H236565   6.358   7.500  11.095  0.0681  0.3484  0.0603
 4124TIP3   OH236566   4.874   4.886   9.403 -0.2977  0.2248  0.0037
 4124TIP3    H136567   4.845   4.972   9.372 -1.0643 -0.0440 -0.0403
 4124TIP3    H236568   4.929   4.906   9.479 -0.7752  0.7450  0.2248
 4125TIP3   OH236569   3.674   0.600   7.967  0.1878 -0.2399  0.2394
 4125TIP3    H136570   3.675   0.515   7.923 -2.4575 -0.9443  1.3716
 4125TIP3    H236571   3.600   0.646   7.929 -0.5843  0.1277  2.0667
 4126TIP3   OH236572   1.344   0.301   8.692  0.8638 -0.0519 -0.1752
 4126TIP3    H136573   1.255   0.337   8.702  0.6801 -0.7598  0.9377
 4126TIP3    H236574   1.331   0.220   8.641  1.0547  0.5185 -1.1556
 4127TIP3   OH236575   4.203   1.807   9.823  0.2087 -0.6766  0.3459
 4127TIP3    H136576   4.183   1.716   9.845  0.3817 -1.1792 -1.4259
 4127TIP3    H236577   4.118   1.849   9.809  0.1500 -0.7267  0.5535
 4128TIP3   OH236578   7.225   7.265  10.646 -0.5665 -0.3230  0.5926
 4128TIP3    H136579   7.162   7.275  10.575  0.1977 -1.5991 -0.2953
 4128TIP3    H236580   7.279   7.343  10.641 -0.9306 -0.0889  0.2046
 4129TIP3   OH236581   4.417   0.668  10.587  0.1137  0.3024 -0.2448
 4129TIP3    H136582   4.436   0.653  10.494  0.5867  0.3638 -0.1645
 4129TIP3    H236583   4.479   0.611  10.633 -0.3636  0.0059  0.0304
 4130TIP3   OH236584   3.478   4.313  10.905 -0.4222 -0.3389  0.1688
 4130TIP3    H136585   3.460   4.237  10.960  0.1006 -1.0107 -0.5591
 4130TIP3    H236586   3.521   4.277  10.828 -1.3342  0.5463 -0.7904
 4131TIP3   OH236587   2.749   6.625   9.011  0.6428  0.7173  0.5575
 4131TIP3    H136588   2.802   6.697   9.045  2.4164 -0.7678  1.0636
 4131TIP3    H236589   2.799   6.592   8.936  0.7990 -1.1154  1.4222
 4132TIP3   OH236590   7.298   0.937   8.478  0.5725  0.2520 -0.0573
 4132TIP3    H136591   7.241   0.983   8.539  0.4208  2.1518 -1.5125
 4132TIP3    H236592   7.247   0.862   8.449 -0.3228  0.7040  0.3048
 4133TIP3   OH236593   3.708   3.051  10.365 -0.3709  0.0081  0.7333
 4133TIP3    H136594   3.681   3.087  10.450 -1.6905 -0.2721  0.4557
 4133TIP3    H236595   3.633   3.065  10.308  1.4043  2.5625 -1.1815
 4134TIP3   OH236596   2.411   3.617  11.473 -0.3553  0.0381  0.4133
 4134TIP3    H136597   2.354   3.588  11.401  2.4936 -0.2716 -1.9073
 4134TIP3    H236598   2.473   3.545  11.484  1.5672  1.6461  0.5466
 4135TIP3   OH236599   4.833   4.238  10.551  0.0452  0.2580  0.0517
 4135TIP3    H136600   4.822   4.146  10.574 -0.5912  0.5102  0.7755
 4135TIP3    H236601   4.926   4.255  10.568 -0.0489  0.0036  0.9012
 4136TIP3   OH236602   1.640   3.183   9.694 -0.1489 -0.4604  0.0918
 4136TIP3    H136603   1.676   3.254   9.746 -0.2764 -0.6547  0.4452
 4136TIP3    H236604   1.594   3.128   9.756  0.5774 -1.2603 -0.0521
 4137TIP3   OH236605   2.756   0.666  10.323 -0.1335  0.2703  0.0261
 4137TIP3    H136606   2.747   0.622  10.238 -0.7036  0.1538  0.1409
 4137TIP3    H236607   2.733   0.757  10.305  1.0070  0.5322 -0.2016
 4138TIP3   OH236608   6.369   5.630   9.807 -0.5150 -0.0083 -0.4061
 4138TIP3    H136609   6.292   5.678   9.777 -0.4794 -0.1579 -0.7360
 4138TIP3    H236610   6.349   5.608   9.899  0.5706  2.9634  0.6553
 4139TIP3   OH236611   7.163   7.675   9.618  0.4270  0.9682  0.0195
 4139TIP3    H136612   7.086   7.720   9.584 -0.8721  0.1202  1.6896
 4139TIP3    H236613   7.163   7.591   9.573  0.0396  0.7570  0.4010
 4140TIP3   OH236614   2.724   2.727  10.392 -0.9645 -0.3814 -0.0525
 4140TIP3    H136615   2.686   2.661  10.334 -1.0036 -1.0998  0.7718
 4140TIP3    H236616   2.802   2.757  10.346 -1.0609 -0.8543 -0.5338
 4141TIP3   OH236617   5.215   5.480   9.530 -0.3508 -0.2107  0.2600
 4141TIP3    H136618   5.261   5.564   9.527 -0.3781 -0.1912  0.3969
 4141TIP3    H236619   5.129   5.502   9.565 -0.6437 -0.1657 -0.4808
 4142TIP3   OH236620   4.840   1.242   9.332 -1.1591  0.2325 -0.4493
 4142TIP3    H136621   4.927   1.260   9.298 -1.7006  0.3439 -1.8678
 4142TIP3    H236622   4.827   1.148   9.318 -1.1153  0.1438  0.1139
 4143TIP3   OH236623   3.029   5.875  10.311 -0.1493 -0.8801 -0.3189
 4143TIP3    H136624   3.037   5.810  10.380  1.1653 -0.2718  0.1402
 4143TIP3    H236625   3.107   5.863  10.257 -0.3482 -0.2804 -0.7570
 4144TIP3   OH236626   2.109   1.024  11.002 -0.8277 -0.1271 -0.6192
 4144TIP3    H136627   2.092   1.118  11.014  0.1394  0.1143 -1.0661
 4144TIP3    H236628   2.022   0.984  11.002 -1.2898  0.8414 -1.0272
 4145TIP3   OH236629   0.193   7.588  10.165  0.0138 -0.2215 -0.4399
 4145TIP3    H136630   0.173   7.527  10.095  1.2440  0.0604 -1.0585
 4145TIP3    H236631   0.139   7.559  10.239 -0.8853 -0.8456 -1.3232
 4146TIP3   OH236632   4.112   4.052   9.557  0.3725 -0.1644 -0.4387
 4146TIP3    H136633   4.113   3.957   9.549  0.5916 -0.0537 -2.0564
 4146TIP3    H236634   4.081   4.083   9.472 -0.2085  1.2019  0.2358
 4147TIP3   OH236635   4.169   4.265   9.753 -0.0475 -0.4471  0.1574
 4147TIP3    H136636   4.150   4.200   9.685 -0.5254  0.6748 -0.8190
 4147TIP3    H236637   4.251   4.236   9.792  0.2773 -1.0874 -0.9562
 4148TIP3   OH236638   0.773   0.473   9.191 -0.1557 -0.1180  0.8562
 4148TIP3    H136639   0.750   0.527   9.266 -1.2693 -3.3552  3.1058
 4148TIP3    H236640   0.869   0.472   9.191  0.0104  3.2239 -0.5247
 4149TIP3   OH236641   4.841   6.527   9.010 -0.1983  0.2717  0.3264
 4149TIP3    H136642   4.780   6.468   9.054 -0.3399  0.5192  0.4625
 4149TIP3    H236643   4.795   6.611   9.006  0.1000  0.4367  0.3537
 4150TIP3   OH236644   5.284   7.502   9.712 -0.1474 -0.0586  0.0978
 4150TIP3    H136645   5.349   7.468   9.773 -0.5059  0.1948  0.6303
 4150TIP3    H236646   5.326   7.578   9.672 -0.3676  0.5132  0.9462
 4151TIP3   OH236647   7.669   6.991   9.690  0.2398 -0.7569 -0.0059
 4151TIP3    H136648   7.748   7.036   9.661 -0.2785  0.0418 -0.2074
 4151TIP3    H236649   7.672   6.996   9.786  1.0465 -1.8203  0.0359
 4152TIP3   OH236650   0.674   2.324   9.684 -0.0822  0.4680 -0.2823
 4152TIP3    H136651   0.630   2.409   9.686  2.4204  1.8675 -0.4000
 4152TIP3    H236652   0.690   2.303   9.776  1.5814  1.4710 -0.2984
 4153TIP3   OH236653   2.805   5.685  10.319  0.1494 -0.4356 -0.3544
 4153TIP3    H136654   2.863   5.651  10.251 -0.1461 -1.4832 -0.1092
 4153TIP3    H236655   2.850   5.762  10.353  1.4247 -1.2476 -0.1357
 4154TIP3   OH236656   7.436   1.481  10.024 -0.3914  0.2655  0.4108
 4154TIP3    H136657   7.496   1.553  10.005 -0.2614  0.0024 -0.1761
 4154TIP3    H236658   7.418   1.490  10.118 -2.2138  2.4779 -0.0656
 4155TIP3   OH236659   4.064   0.325  11.150 -0.0535 -0.4636  0.1799
 4155TIP3    H136660   4.027   0.414  11.152  0.7405 -0.1336  1.7727
 4155TIP3    H236661   4.007   0.274  11.208 -1.2669 -1.3575 -1.7063
 4156TIP3   OH236662   7.574   5.013  10.372 -0.3601 -0.4520  0.5208
 4156TIP3    H136663   7.636   4.954  10.328  0.4933  0.8676 -0.0977
 4156TIP3    H236664   7.561   4.972  10.458 -0.0616 -1.7151 -0.0047
 4157TIP3   OH236665   2.530   1.501   9.939  0.1193  0.2905 -0.0284
 4157TIP3    H136666   2.451   1.461   9.902  1.7419 -1.5358 -1.7658
 4157TIP3    H236667   2.549   1.447  10.016  0.9260 -0.8191 -0.9635
 4158TIP3   OH236668   7.406   2.688  10.345  0.1573  0.4482  0.5842
 4158TIP3    H136669   7.437   2.636  10.271  0.6513  0.3481  0.8565
 4158TIP3    H236670   7.483   2.738  10.373 -0.2345  1.0888  0.5250
 4159TIP3   OH236671   3.660   5.758  10.884  0.0478 -0.0076  0.3324
 4159TIP3    H136672   3.740   5.802  10.909  0.6596 -0.9015  0.0130
 4159TIP3    H236673   3.592   5.798  10.938  0.8423  0.1543  1.2310
 4160TIP3   OH236674   0.087   5.107   9.860  0.2950 -0.1109  0.0921
 4160TIP3    H136675   0.099   5.179   9.799  0.1373 -1.2194 -1.3075
 4160TIP3    H236676   0.032   5.044   9.812 -1.7567 -0.0480  2.1907
 4161TIP3   OH236677   3.968   2.215  10.343 -0.0726  0.0878  0.0418
 4161TIP3    H136678   4.022   2.142  10.375 -1.4876 -0.5871  0.9900
 4161TIP3    H236679   3.879   2.180  10.340 -0.8158  1.8132  0.6230
 4162TIP3   OH236680   0.533   4.333  11.105  0.8427 -0.0673  0.0937
 4162TIP3    H136681   0.452   4.362  11.148  1.1309 -0.6653  1.0765
 4162TIP3    H236682   0.577   4.414  11.079 -0.9096  0.2703 -2.1276
 4163TIP3   OH236683   2.981   7.083   9.612  0.2696  0.3621 -0.6896
 4163TIP3    H136684   2.973   7.039   9.697 -0.5823  1.2442 -0.2918
 4163TIP3    H236685   2.932   7.028   9.552 -0.2963  0.4445 -0.3151
 4164TIP3   OH236686   7.556   7.562  11.455  0.2258  0.0815 -0.7056
 4164TIP3    H136687   7.603   7.571  11.372  1.6292  1.5676  0.1976
 4164TIP3    H236688   7.614   7.509  11.510  0.8608  1.8382  0.3832
 4165TIP3   OH236689   7.008   1.610  10.919 -0.2791  0.4024  0.0823
 4165TIP3    H136690   6.919   1.579  10.903  0.3022 -0.7524 -1.0376
 4165TIP3    H236691   6.996   1.699  10.953 -1.8486  0.2589 -0.0062
 4166TIP3   OH236692   5.953   7.419   9.882 -0.0544 -0.3629  0.1821
 4166TIP3    H136693   6.040   7.432   9.918  1.0585  2.2363 -2.9358
 4166TIP3    H236694   5.908   7.503   9.896 -1.0457 -0.7209 -0.6810
 4167TIP3   OH236695   6.400   5.765  10.914  0.6006 -0.0646 -0.0630
 4167TIP3    H136696   6.425   5.691  10.969 -1.5931  0.7054  2.1381
 4167TIP3    H236697   6.332   5.729  10.856  0.4880 -0.1053  0.0917
 4168TIP3   OH236698   5.428   2.764   9.369 -0.5184  0.1637 -0.2805
 4168TIP3    H136699   5.380   2.845   9.385 -0.1988  0.2218  0.4114
 4168TIP3    H236700   5.517   2.792   9.347 -0.5663  0.0250 -0.6533
 4169TIP3   OH236701   3.374   5.857  10.762 -0.3100  0.5601  0.1885
 4169TIP3    H136702   3.348   5.766  10.748 -0.7128  0.8574 -1.1904
 4169TIP3    H236703   3.456   5.866  10.713 -0.5921  1.0822 -0.2020
 4170TIP3   OH236704   2.142   2.679  10.592  0.5490  0.0611  0.4236
 4170TIP3    H136705   2.082   2.640  10.655 -0.8596 -0.0772 -0.9481
 4170TIP3    H236706   2.155   2.611  10.525 -2.8682  2.0665 -2.6347
 4171TIP3   OH236707   6.446   5.735  10.312 -0.9706  0.8390 -0.0008
 4171TIP3    H136708   6.539   5.752  10.321 -1.0358  1.7421 -0.8736
 4171TIP3    H236709   6.403   5.813  10.346 -1.4996 -0.3569  2.2457
 4172TIP3   OH236710   0.442   1.994   8.920  0.0903  0.2553  0.6680
 4172TIP3    H136711   0.366   2.051   8.914  0.7725  1.0454 -1.7555
 4172TIP3    H236712   0.517   2.053   8.923  0.8043 -0.3692 -1.8383
 4173TIP3   OH236713   6.694   4.602  10.223  0.3605 -0.6177  0.1471
 4173TIP3    H136714   6.626   4.595  10.156 -0.0079 -0.4653  0.5075
 4173TIP3    H236715   6.709   4.511  10.251  0.3670 -0.6599  0.0082
 4174TIP3   OH236716   2.878   1.359   8.848 -0.4714  0.0629  0.2304
 4174TIP3    H136717   2.953   1.300   8.850 -0.8314 -0.4038  0.1265
 4174TIP3    H236718   2.913   1.444   8.875  0.4182  0.2387 -1.3689
 4175TIP3   OH236719   0.465   6.625   9.187 -0.3465  0.5732 -0.1352
 4175TIP3    H136720   0.497   6.586   9.105 -0.9766 -1.2640  0.4389
 4175TIP3    H236721   0.499   6.715   9.186 -0.2242  0.5590 -2.3366
 4176TIP3   OH236722   2.509   2.048  10.215  0.1184  0.6407 -0.3663
 4176TIP3    H136723   2.495   2.139  10.187 -1.8639 -0.0727 -1.9693
 4176TIP3    H236724   2.544   2.004  10.138  1.1950  0.0461  0.4378
 4177TIP3   OH236725   6.566   6.724  10.105 -0.1834 -0.0438  0.6246
 4177TIP3    H136726   6.483   6.767  10.083  0.9971  1.4348 -1.1583
 4177TIP3    H236727   6.618   6.791  10.149  0.2711 -0.8271  1.3275
 4178TIP3   OH236728   0.275   0.643   9.783  0.0992  0.2834  0.3706
 4178TIP3    H136729   0.301   0.697   9.858  0.6143 -0.2011  0.5424
 4178TIP3    H236730   0.240   0.563   9.822  0.2586  0.0789  0.0947
 4179TIP3   OH236731   6.984   6.100   9.908  0.1652  0.3083  0.7910
 4179TIP3    H136732   6.977   6.035   9.978  1.0477 -0.5312  0.1153
 4179TIP3    H236733   6.993   6.049   9.828 -0.2292  1.2617  0.1236
 4180TIP3   OH236734   0.223   3.124   9.573 -0.0739  0.2350 -0.0992
 4180TIP3    H136735   0.293   3.188   9.563  0.4908  0.0797  2.2253
 4180TIP3    H236736   0.146   3.175   9.599 -0.0426  0.1340  0.1993
 4181TIP3   OH236737   6.937   4.362  10.185 -0.1033 -0.1723 -0.1174
 4181TIP3    H136738   6.990   4.441  10.193 -0.9886  0.5744 -1.2992
 4181TIP3    H236739   6.989   4.303  10.130  0.4332 -0.3150  0.5310
 4182TIP3   OH236740   1.097   6.722  10.760  0.6496 -0.5351  0.3741
 4182TIP3    H136741   1.021   6.679  10.720 -0.9716  1.2337  1.4312
 4182TIP3    H236742   1.083   6.715  10.854  0.0124  2.6859  0.6163
 4183TIP3   OH236743   1.493   2.068   8.990 -0.0145  0.6251 -0.1603
 4183TIP3    H136744   1.545   2.106   9.061 -0.2689 -2.1014  1.6727
 4183TIP3    H236745   1.403   2.073   9.020 -0.3158  0.9928 -1.1020
 4184TIP3   OH236746   3.913   7.167   9.340 -0.4497 -0.0820 -0.8064
 4184TIP3    H136747   3.977   7.230   9.372 -0.5346  0.0738 -0.9412
 4184TIP3    H236748   3.959   7.121   9.270 -0.2752 -0.4006 -0.4866
 4185TIP3   OH236749   6.997   3.849  10.148  0.2958  0.2696 -0.2598
 4185TIP3    H136750   7.021   3.864  10.240  0.7561  0.6428 -0.4370
 4185TIP3    H236751   7.066   3.791  10.114 -0.7209 -1.1793  0.0420
 4186TIP3   OH236752   3.557   3.826  11.009 -0.2473 -0.0967  0.6378
 4186TIP3    H136753   3.595   3.757  11.064 -0.9708 -0.4591  0.6927
 4186TIP3    H236754   3.539   3.783  10.926  1.2377  0.5549 -0.0595
 4187TIP3   OH236755   4.195   6.645  10.282  0.1286  0.7803  0.2100
 4187TIP3    H136756   4.229   6.618  10.197  1.5148 -1.8887  1.4743
 4187TIP3    H236757   4.101   6.656  10.268 -0.1388 -2.1967 -1.1702
 4188TIP3   OH236758   5.359   2.634   9.602 -0.2345 -0.3612 -0.3262
 4188TIP3    H136759   5.381   2.695   9.531  0.1962  1.8061  1.5521
 4188TIP3    H236760   5.413   2.557   9.584  0.4841  0.4499 -1.8899
 4189TIP3   OH236761   5.289   4.517   8.954  0.2934 -0.8670  0.3215
 4189TIP3    H136762   5.351   4.587   8.973 -0.8407 -0.0315  1.0808
 4189TIP3    H236763   5.265   4.532   8.862  0.8178 -0.8874  0.1773
 4190TIP3   OH236764   1.229   3.979   9.685 -0.0590  0.2753  0.0806
 4190TIP3    H136765   1.189   4.066   9.675 -0.0667  0.7337  3.0012
 4190TIP3    H236766   1.320   3.991   9.658 -0.7416  0.3416 -2.4427
 4191TIP3   OH236767   3.846   4.980   8.996  0.1489  0.7017 -0.3760
 4191TIP3    H136768   3.887   5.027   8.923  0.1373 -1.2034 -1.6795
 4191TIP3    H236769   3.854   4.888   8.973 -2.6824  0.1311  0.5015
 4192TIP3   OH236770   5.834   7.284  11.025 -0.0487  0.1281  0.2265
 4192TIP3    H136771   5.926   7.283  11.053  0.7634  0.5007 -2.1979
 4192TIP3    H236772   5.822   7.371  10.987 -1.5867  0.2714  0.9553
 4193TIP3   OH236773   0.686   1.625   9.221  0.4090  0.4426  0.3164
 4193TIP3    H136774   0.726   1.650   9.138 -0.0045  1.8368  0.5015
 4193TIP3    H236775   0.600   1.668   9.221 -0.2197 -0.7589  0.8329
 4194TIP3   OH236776   0.663   4.472   9.378  0.0025 -0.7031 -0.2026
 4194TIP3    H136777   0.747   4.429   9.363  1.0803  0.9180  0.8777
 4194TIP3    H236778   0.651   4.528   9.301  0.2775 -0.4066 -0.0337
 4195TIP3   OH236779   2.442   7.477  11.120  0.3747  0.0463  0.0057
 4195TIP3    H136780   2.438   7.432  11.204  0.0383 -2.0286 -1.0675
 4195TIP3    H236781   2.526   7.451  11.083  0.7558  1.3633 -0.0984
 4196TIP3   OH236782   4.699   2.615  10.402  0.0896 -0.8756 -0.6030
 4196TIP3    H136783   4.710   2.708  10.422  1.0548 -0.5756 -2.3516
 4196TIP3    H236784   4.624   2.589  10.455  0.1958  0.7275  0.4302
 4197TIP3   OH236785   4.988   4.669   9.638 -0.1571  0.1988 -0.5295
 4197TIP3    H136786   4.982   4.764   9.625  0.6067  0.1879 -0.9664
 4197TIP3    H236787   4.916   4.650   9.699 -0.5271  1.0037 -0.6897
 4198TIP3   OH236788   6.379   3.027  10.038  0.5008  0.2400 -1.1263
 4198TIP3    H136789   6.454   3.042   9.981  0.1123  1.6272 -1.3229
 4198TIP3    H236790   6.407   3.062  10.123  1.2270 -2.1734 -0.2983
 4199TIP3   OH236791   1.051   1.069   9.775 -0.1029 -0.1341 -0.2705
 4199TIP3    H136792   0.989   1.019   9.829 -0.8948  1.6237  0.5328
 4199TIP3    H236793   1.129   1.078   9.831 -0.7118  1.1993  0.4091
 4200TIP3   OH236794   0.535   0.892   8.777 -0.7061  0.5950  0.4623
 4200TIP3    H136795   0.500   0.820   8.725  1.1620 -0.2057  0.2159
 4200TIP3    H236796   0.562   0.957   8.713  0.0666  0.3232  0.4916
 4201TIP3   OH236797   2.566   4.348   9.034  0.6688  1.1732 -0.0550
 4201TIP3    H136798   2.568   4.329   9.128 -0.6289 -0.3048 -0.2763
 4201TIP3    H236799   2.476   4.328   9.008  0.8341  2.1648 -1.5098
 4202TIP3   OH236800   6.522   2.545  10.815 -0.2926 -0.0329  0.2097
 4202TIP3    H136801   6.605   2.558  10.769 -0.1210  1.9717  0.9936
 4202TIP3    H236802   6.491   2.460  10.784  2.0882 -0.9108 -0.0323
 4203TIP3   OH236803   0.498   3.324  11.039  0.4916  0.1258  0.4652
 4203TIP3    H136804   0.572   3.320  10.977 -0.9841 -0.0919 -1.3821
 4203TIP3    H236805   0.532   3.372  11.114  1.9932  1.6731 -1.1091
 4204TIP3   OH236806   6.013   1.173   9.041  0.7453  0.2533  0.0836
 4204TIP3    H136807   6.020   1.237   8.970  2.1726  0.7822  0.6743
 4204TIP3    H236808   5.994   1.090   8.996 -1.2460  1.0608 -0.6820
 4205TIP3   OH236809   5.935   2.336  10.359 -0.7874  0.3696  0.3899
 4205TIP3    H136810   6.022   2.351  10.396 -1.1353 -0.4781  1.5972
 4205TIP3    H236811   5.942   2.368  10.269  2.0210 -3.3802 -0.9536
 4206TIP3   OH236812   7.473   5.730   8.305 -0.2174 -0.6747 -0.1466
 4206TIP3    H136813   7.422   5.669   8.359 -0.0422 -0.4275  0.3029
 4206TIP3    H236814   7.552   5.681   8.282 -1.0820 -1.4232 -1.6860
 4207TIP3   OH236815   5.470   7.014  10.909  0.4178  0.1148 -0.1216
 4207TIP3    H136816   5.463   7.103  10.944  1.0123 -0.5619  1.8474
 4207TIP3    H236817   5.564   7.002  10.893  0.1544  0.4529 -2.2193
 4208TIP3   OH236818   6.560   0.621  10.913  0.3461  0.0051 -0.5025
 4208TIP3    H136819   6.597   0.596  10.998 -0.4988  1.7104  0.4171
 4208TIP3    H236820   6.635   0.621  10.854  0.6487 -3.0813 -0.2754
 4209TIP3   OH236821   4.428   5.006  10.045 -0.0219  0.1045  0.8012
 4209TIP3    H136822   4.437   5.028   9.952  0.5386 -0.0413  0.8204
 4209TIP3    H236823   4.433   5.090  10.090  1.8279  0.0004  0.8539
 4210TIP3   OH236824   4.274   6.553  10.026 -0.0715  0.1393 -0.1644
 4210TIP3    H136825   4.358   6.509  10.039  0.1738  0.2210 -1.3586
 4210TIP3    H236826   4.235   6.507   9.952 -1.0431  0.1691  0.3180
 4211TIP3   OH236827   5.881   2.640  10.695 -1.0240 -0.2024  0.6056
 4211TIP3    H136828   5.821   2.666  10.624  2.6447  0.9417 -2.4386
 4211TIP3    H236829   5.868   2.546  10.704 -0.8658 -0.6611 -2.5826
 4212TIP3   OH236830   0.260   0.322   9.753  0.5047  0.6524  0.8123
 4212TIP3    H136831   0.236   0.231   9.770  1.2735  0.0037 -1.2842
 4212TIP3    H236832   0.187   0.373   9.790 -0.5234 -0.8679  0.9731
 4213TIP3   OH236833   5.379   2.342  10.422  0.3397 -0.0954 -0.1512
 4213TIP3    H136834   5.411   2.421  10.378  1.8040 -0.8248 -0.4463
 4213TIP3    H236835   5.457   2.289  10.436 -0.5769 -1.3673  0.3188
 4214TIP3   OH236836   5.004   6.640  10.375 -0.1936 -0.2029  0.4496
 4214TIP3    H136837   5.028   6.726  10.411 -2.4931  0.4352  0.6261
 4214TIP3    H236838   5.000   6.582  10.451  2.7890 -0.9148  0.1707
 4215TIP3   OH236839   2.347   3.575  10.349 -0.0049  0.1427  0.7980
 4215TIP3    H136840   2.361   3.537  10.435 -1.1397 -1.7999  0.1938
 4215TIP3    H236841   2.275   3.638  10.362 -0.1206 -0.0873  1.2777
 4216TIP3   OH236842   7.281   7.637  11.007  0.0244  0.0332  0.2537
 4216TIP3    H136843   7.329   7.606  11.083  1.7900 -0.1584 -0.8634
 4216TIP3    H236844   7.328   7.599  10.932 -3.0059 -1.7488 -0.9366
 4217TIP3   OH236845   7.572   4.776  11.059 -0.6114  0.3794 -0.2870
 4217TIP3    H136846   7.635   4.828  11.009 -1.1082 -0.8425 -2.3243
 4217TIP3    H236847   7.608   4.687  11.059 -1.2230  0.1124  0.5044
 4218TIP3   OH236848   4.856   5.230  11.226 -0.0690 -0.2400  0.4041
 4218TIP3    H136849   4.900   5.211  11.309 -2.0768 -2.5728  1.0618
 4218TIP3    H236850   4.880   5.157  11.169  0.7134  0.9685 -0.8777
 4219TIP3   OH236851   4.368   2.883   8.558  0.8526 -0.3152 -0.2895
 4219TIP3    H136852   4.449   2.933   8.556  0.8943 -0.3197  0.9061
 4219TIP3    H236853   4.395   2.794   8.581  0.4120 -0.0510  1.3842
 4220TIP3   OH236854   0.685   3.607  10.551  0.1071 -0.8498  0.2507
 4220TIP3    H136855   0.659   3.656  10.629  1.6259 -1.3795  1.1316
 4220TIP3    H236856   0.763   3.558  10.578 -0.3122 -2.3732 -1.1105
 4221TIP3   OH236857   5.279   3.705   9.565  0.1734  0.3741  0.1411
 4221TIP3    H136858   5.338   3.676   9.496  1.1915 -0.7394  1.4239
 4221TIP3    H236859   5.199   3.731   9.519  0.6913 -0.6358 -1.4102
 4222TIP3   OH236860   6.040   6.396   8.656  0.7405  0.0765 -0.2333
 4222TIP3    H136861   5.984   6.471   8.636  2.2064  1.2156 -0.1720
 4222TIP3    H236862   6.080   6.372   8.572  1.1490  0.1000 -0.0487
 4223TIP3   OH236863   6.616   6.442   9.660 -0.6005 -0.0315  0.2431
 4223TIP3    H136864   6.618   6.456   9.754 -0.7480  1.5534  0.0428
 4223TIP3    H236865   6.678   6.506   9.625 -1.0198 -0.1597 -0.7838
 4224TIP3   OH236866   6.751   2.143   9.380  0.2651  0.2245 -0.2482
 4224TIP3    H136867   6.830   2.097   9.409  1.0107  0.8320 -1.2174
 4224TIP3    H236868   6.679   2.087   9.406  0.9923 -0.1175  1.0902
 4225TIP3   OH236869   1.838   1.279  10.294 -0.5903  0.1255 -0.0194
 4225TIP3    H136870   1.868   1.211  10.354 -0.4605  0.0724 -0.1459
 4225TIP3    H236871   1.894   1.354  10.314  1.3358 -0.7054 -1.9438
 4226TIP3   OH236872   7.181   1.907   9.180 -0.0268 -0.4207 -0.3349
 4226TIP3    H136873   7.243   1.961   9.230  1.5729 -0.4067 -2.2083
 4226TIP3    H236874   7.100   1.959   9.178  0.4791  0.4325  0.6113
 4227TIP3   OH236875   3.269   6.127  10.845  0.6425  0.3513  0.8210
 4227TIP3    H136876   3.246   6.073  10.920  0.8251  0.0221  0.6387
 4227TIP3    H236877   3.324   6.071  10.790 -0.2191  0.2827 -0.0041
 4228TIP3   OH236878   2.149   1.234   9.093 -0.0189  0.7077 -0.1507
 4228TIP3    H136879   2.227   1.221   9.147 -0.9062 -1.0246  0.7953
 4228TIP3    H236880   2.172   1.198   9.008  0.1036 -0.1895  0.2498
 4229TIP3   OH236881   4.206   2.959  10.127 -0.1064 -0.2171 -0.2952
 4229TIP3    H136882   4.182   3.012  10.051  0.7855  1.6614  0.6694
 4229TIP3    H236883   4.127   2.960  10.182 -0.6126 -1.2316 -0.9825
 4230TIP3   OH236884   2.610   2.730   9.389  0.5534  0.0370 -0.2962
 4230TIP3    H136885   2.658   2.786   9.327 -1.4633 -0.6594 -2.6465
 4230TIP3    H236886   2.543   2.686   9.335 -2.2400  0.3790  2.5901
 4231TIP3   OH236887   7.491   7.286  11.059  0.0516  0.9257  0.3951
 4231TIP3    H136888   7.499   7.194  11.085  0.9570  0.8187 -0.2392
 4231TIP3    H236889   7.575   7.325  11.082  0.2132  1.2492 -0.6916
 4232TIP3   OH236890   2.132   0.101  10.825  0.1206  0.6206  0.2132
 4232TIP3    H136891   2.058   0.089  10.767  0.6924  1.9673 -0.8471
 4232TIP3    H236892   2.096   0.089  10.913 -0.7178 -1.6602 -0.3791
 4233TIP3   OH236893   3.067   6.921  11.191  0.3664 -0.0654  0.1633
 4233TIP3    H136894   3.120   6.966  11.125  1.9980 -0.8072  0.9197
 4233TIP3    H236895   3.124   6.853  11.226 -1.0762 -0.8535  1.0842
 4234TIP3   OH236896   2.784   5.700   9.976  0.5396  0.6357  0.9304
 4234TIP3    H136897   2.868   5.668   9.940 -0.3399 -0.0823 -0.5966
 4234TIP3    H236898   2.754   5.629  10.033 -0.1614 -0.2116 -0.4322
 4235TIP3   OH236899   0.825   6.904   9.309 -0.2877 -0.3328  0.1447
 4235TIP3    H136900   0.867   6.856   9.381 -1.8739 -1.5387  0.3250
 4235TIP3    H236901   0.878   6.983   9.299  1.0389 -1.0050  1.4210
 4236TIP3   OH236902   6.097   4.629  10.806 -0.4603  0.6525  0.4029
 4236TIP3    H136903   6.131   4.553  10.759 -0.9297  0.0602  0.9991
 4236TIP3    H236904   6.012   4.599  10.841 -2.1875  2.3866 -1.9742
 4237TIP3   OH236905   7.248   6.220   9.928 -0.5162 -0.2105  0.6840
 4237TIP3    H136906   7.295   6.195   9.848  1.1011  0.3299  1.4232
 4237TIP3    H236907   7.185   6.149   9.941  0.7505 -1.4948  0.1582
 4238TIP3   OH236908   6.275   1.972   8.901 -0.0339 -0.1807  0.1577
 4238TIP3    H136909   6.247   1.881   8.892  0.8144 -0.6597  1.8221
 4238TIP3    H236910   6.344   1.983   8.835  0.8307 -1.2034  0.8465
 4239TIP3   OH236911   4.694   5.619  10.254 -0.2834 -0.4002  0.2722
 4239TIP3    H136912   4.757   5.549  10.267  1.1156  0.4552 -1.4492
 4239TIP3    H236913   4.682   5.624  10.159  0.2537  2.1195  0.2670
 4240TIP3   OH236914   6.961   3.706   9.546  0.2114  1.1252 -0.5457
 4240TIP3    H136915   6.865   3.703   9.536  0.1850 -0.5259 -0.1869
 4240TIP3    H236916   6.975   3.687   9.639  0.8886  1.6036 -0.5495
 4241TIP3   OH236917   3.532   2.655  11.216 -0.1204  0.4997  0.6612
 4241TIP3    H136918   3.484   2.716  11.159 -1.2452  0.8700  1.9400
 4241TIP3    H236919   3.484   2.573  11.207 -0.1235  0.4825  0.8323
 4242TIP3   OH236920   5.167   1.602   9.348 -0.5596 -0.4067  0.3834
 4242TIP3    H136921   5.154   1.626   9.256  0.1756 -2.2424 -0.2586
 4242TIP3    H236922   5.080   1.605   9.387 -0.6648  2.1265  0.1421
 4243TIP3   OH236923   5.659   1.058  10.294 -0.1245  0.0839  0.4703
 4243TIP3    H136924   5.637   1.105  10.374  0.1750 -0.8368  1.1151
 4243TIP3    H236925   5.746   1.090  10.269 -0.1463  0.2503  0.6153
 4244TIP3   OH236926   4.664   7.146   9.027 -0.1699 -0.7071 -0.2565
 4244TIP3    H136927   4.677   7.231   8.986 -4.1206  0.6330  0.8525
 4244TIP3    H236928   4.670   7.084   8.955  0.6765  0.7031 -1.4618
 4245TIP3   OH236929   2.181   3.882   9.220  0.1681  0.1701  0.1771
 4245TIP3    H136930   2.138   3.924   9.146 -0.4964 -2.1580 -0.8452
 4245TIP3    H236931   2.109   3.857   9.278  0.2721 -1.6929 -0.4320
 4246TIP3   OH236932   1.094   6.030   8.831  0.7197 -0.1004  0.2283
 4246TIP3    H136933   1.058   6.112   8.865  2.8762  0.2976  1.7691
 4246TIP3    H236934   1.061   5.963   8.891  0.3117 -0.1326 -0.0290
 4247TIP3   OH236935   3.401   0.499   9.183 -0.2827  0.6287  0.0076
 4247TIP3    H136936   3.483   0.458   9.212 -0.6691 -0.9403 -0.9794
 4247TIP3    H236937   3.412   0.509   9.089 -1.9264 -1.4430 -0.4845
 4248TIP3   OH236938   0.703   6.975   9.672 -0.1588  0.3137 -0.1756
 4248TIP3    H136939   0.718   6.892   9.717  0.8095  0.9853  0.8115
 4248TIP3    H236940   0.615   7.002   9.698  0.1537  0.3859  0.8446
 4249TIP3   OH236941   3.369   2.910   9.869 -0.3349 -0.0157 -0.0632
 4249TIP3    H136942   3.338   2.822   9.892 -0.7447  0.8151  3.0207
 4249TIP3    H236943   3.462   2.908   9.889  0.0724 -0.2238 -1.8049
 4250TIP3   OH236944   3.374   2.765  10.735 -0.7283  0.6003 -0.4873
 4250TIP3    H136945   3.293   2.791  10.692 -1.2824  0.4210  0.4283
 4250TIP3    H236946   3.358   2.676  10.766  0.4132 -0.0849 -1.7416
 4251TIP3   OH236947   4.041   5.528   9.138  0.8542  0.2793 -0.1402
 4251TIP3    H136948   4.109   5.499   9.198  0.7769  0.1536 -0.1117
 4251TIP3    H236949   4.066   5.492   9.053  0.3042 -0.6104  0.0620
 4252TIP3   OH236950   6.408   3.032  10.896  0.3191  0.4370 -0.4309
 4252TIP3    H136951   6.483   3.085  10.922  0.5189  0.1581 -0.4342
 4252TIP3    H236952   6.438   2.942  10.905 -0.2186  0.3152  0.1482
 4253TIP3   OH236953   1.018   5.698  10.057  0.2736 -0.6461 -0.4117
 4253TIP3    H136954   1.071   5.635  10.106  0.0820 -0.5821 -0.1155
 4253TIP3    H236955   0.931   5.691  10.096 -0.4292 -2.0861 -2.1287
 4254TIP3   OH236956   4.081   4.486   8.279  0.7257  0.0218 -0.2761
 4254TIP3    H136957   4.059   4.394   8.294  1.4160  0.2152  2.2545
 4254TIP3    H236958   4.068   4.498   8.184 -0.6349 -2.3072 -0.4638
 4255TIP3   OH236959   1.815   4.299   9.628 -0.2232  0.6133 -0.5860
 4255TIP3    H136960   1.900   4.255   9.627 -0.4616 -0.0029  1.5611
 4255TIP3    H236961   1.760   4.246   9.569 -0.3992 -1.9035  1.6269
 4256TIP3   OH236962   0.217   3.431   9.147 -0.0363  0.6978 -0.1984
 4256TIP3    H136963   0.146   3.480   9.189 -0.5073  0.9474 -1.2468
 4256TIP3    H236964   0.202   3.341   9.172 -2.2978  0.3340 -2.4051
 4257TIP3   OH236965   5.471   0.852  11.028 -0.2833 -0.2793  0.6622
 4257TIP3    H136966   5.387   0.874  10.986  0.3240 -0.1235 -0.5249
 4257TIP3    H236967   5.474   0.757  11.026 -0.7541 -0.3105  1.3694
 4258TIP3   OH236968   0.230   6.883   9.577 -0.0616  0.6184 -0.0171
 4258TIP3    H136969   0.173   6.843   9.643  0.3050 -0.0550 -0.0965
 4258TIP3    H236970   0.225   6.824   9.502 -0.7826  1.5864 -0.7529
 4259TIP3   OH236971   0.433   1.526  11.016  0.0939  0.4230 -0.2191
 4259TIP3    H136972   0.426   1.461  11.086 -0.8739  1.0674  0.2995
 4259TIP3    H236973   0.387   1.486  10.942  1.9860 -0.6970 -0.8705
 4260TIP3   OH236974   0.979   4.248  10.511 -1.1225  0.3854  0.0979
 4260TIP3    H136975   0.964   4.315  10.444 -0.6210 -1.2903 -1.8048
 4260TIP3    H236976   0.940   4.168  10.475 -1.8640 -0.3608  2.3608
 4261TIP3   OH236977   1.391   4.944  10.258 -0.3651 -0.0030 -0.2624
 4261TIP3    H136978   1.420   4.929  10.168  1.3535 -0.1596  0.2691
 4261TIP3    H236979   1.326   5.013  10.252  0.6581  0.8952 -1.5197
 4262TIP3   OH236980   7.454   0.275   8.999 -0.9789  0.4774  0.2793
 4262TIP3    H136981   7.532   0.330   9.002  1.1833 -2.3083 -1.0776
 4262TIP3    H236982   7.396   0.319   8.937  1.3057  0.5400 -1.9583
 4263TIP3   OH236983   5.717   5.791  10.668 -0.0596  0.2578  0.2082
 4263TIP3    H136984   5.633   5.783  10.712  0.0595 -1.1383  0.2082
 4263TIP3    H236985   5.782   5.791  10.739  0.0807 -1.1930  0.1070
 4264TIP3   OH236986   2.986   2.912   8.462 -0.1251 -0.1718 -0.2757
 4264TIP3    H136987   2.958   2.830   8.423 -0.1563 -0.4071  0.2333
 4264TIP3    H236988   3.019   2.888   8.549  1.1086  0.1721 -0.6319
 4265TIP3   OH236989   3.933   1.620  10.517 -0.3269 -0.2581 -0.2075
 4265TIP3    H136990   3.867   1.551  10.510 -1.3033  0.2994  2.5205
 4265TIP3    H236991   4.015   1.574  10.533 -0.6062 -0.8288 -0.3828
 4266TIP3   OH236992   5.920   5.657   8.516 -0.1544 -0.4241  0.7598
 4266TIP3    H136993   5.977   5.587   8.548 -0.5196 -0.0220  2.3861
 4266TIP3    H236994   5.979   5.731   8.501  0.2692 -1.1026 -1.1930
 4267TIP3   OH236995   0.229   1.990  10.325  0.0217 -0.6462 -0.3972
 4267TIP3    H136996   0.187   2.066  10.365  0.6296 -0.7691  0.4964
 4267TIP3    H236997   0.277   1.948  10.396  0.4615 -1.3394 -1.0799
 4268TIP3   OH236998   1.997   7.451  10.332 -0.0336  0.5239  0.4524
 4268TIP3    H136999   2.003   7.366  10.288  1.1689  0.2050  1.1681
 4268TIP3    H237000   2.064   7.447  10.400 -0.3950  1.8158  0.9180
 4269TIP3   OH237001   5.730   2.840   8.322  0.2037 -0.2267 -0.2921
 4269TIP3    H137002   5.672   2.897   8.272  0.2473  1.8799  1.9159
 4269TIP3    H237003   5.679   2.759   8.333 -1.9707  1.1608  0.6534
 4270TIP3   OH237004   5.774   6.211  10.166  0.4013 -0.1323  0.1274
 4270TIP3    H137005   5.792   6.237  10.256  2.1762  0.9529 -0.5081
 4270TIP3    H237006   5.682   6.234  10.153  0.7488  1.9282  0.9405
 4271TIP3   OH237007   3.589   2.429   8.796 -0.2349 -0.3712  0.5303
 4271TIP3    H137008   3.603   2.417   8.890 -1.9528 -0.1275  0.8512
 4271TIP3    H237009   3.509   2.379   8.777 -1.1588  1.3390 -0.3399
 4272TIP3   OH237010   4.129   2.658  10.787  0.0959 -1.1310 -0.1771
 4272TIP3    H137011   4.055   2.665  10.727 -0.5855 -2.6862  0.4432
 4272TIP3    H237012   4.169   2.745  10.786 -1.0284 -0.6010 -1.4194
 4273TIP3   OH237013   6.560   6.567  10.991 -0.0385 -0.4367  0.4277
 4273TIP3    H137014   6.496   6.602  11.054  0.2209  0.2658  0.3155
 4273TIP3    H237015   6.507   6.527  10.923 -0.3377 -0.6514  0.7843
 4274TIP3   OH237016   2.915   0.309   9.971  0.3103 -0.2521 -0.3051
 4274TIP3    H137017   2.828   0.289  10.006  1.1536 -1.6705  1.1013
 4274TIP3    H237018   2.976   0.269  10.033  1.9565 -0.6897 -2.1074
 4275TIP3   OH237019   6.291   6.643   9.301 -0.1642  0.5883  0.6451
 4275TIP3    H137020   6.302   6.685   9.216 -0.5636  0.8165  0.7051
 4275TIP3    H237021   6.380   6.620   9.328 -0.1174 -0.3778 -0.2749
 4276TIP3   OH237022   1.466   2.175   9.742  0.0625 -0.6457  0.2795
 4276TIP3    H137023   1.438   2.231   9.814 -0.8400  0.0329 -0.5820
 4276TIP3    H237024   1.475   2.088   9.781 -1.3958 -0.4944  1.0111
 4277TIP3   OH237025   0.187   3.205  10.109  0.0048  0.8466 -0.1075
 4277TIP3    H137026   0.186   3.118  10.069  2.3462  0.1898  1.0284
 4277TIP3    H237027   0.123   3.256  10.060 -0.6968 -1.2321 -1.4623
 4278TIP3   OH237028   4.760   2.135  10.939  0.1083 -0.7833 -0.4068
 4278TIP3    H137029   4.690   2.197  10.959  0.1233 -0.8320 -0.2047
 4278TIP3    H237030   4.840   2.183  10.959  0.0847 -1.5570  1.7684
 4279TIP3   OH237031   0.306   4.954  10.306  0.7664  0.0560 -0.1748
 4279TIP3    H137032   0.377   4.971  10.243  1.0618 -2.1675 -0.5508
 4279TIP3    H237033   0.227   4.983  10.261  1.1362 -0.1612 -0.9973
 4280TIP3   OH237034   5.793   0.468  10.332  0.2239 -0.5755  0.4612
 4280TIP3    H137035   5.881   0.470  10.294  0.0438  0.3768  0.0809
 4280TIP3    H237036   5.800   0.403  10.403  1.0459 -1.0160 -0.0002
 4281TIP3   OH237037   3.731   4.900  10.296 -0.4004  0.1856 -0.2957
 4281TIP3    H137038   3.650   4.851  10.284 -0.8427  0.8231  0.0508
 4281TIP3    H237039   3.729   4.967  10.227 -1.6855  2.1813  1.5676
 4282TIP3   OH237040   4.601   1.037   8.735  0.2233 -0.0799  0.2865
 4282TIP3    H137041   4.664   1.004   8.672 -1.2375 -1.0340 -0.7497
 4282TIP3    H237042   4.618   1.132   8.739 -0.1160  0.1552 -2.1581
 4283TIP3   OH237043   6.361   4.772  10.078  0.5857  0.3129 -0.6513
 4283TIP3    H137044   6.394   4.862  10.075 -0.2225  0.7356  1.4401
 4283TIP3    H237045   6.273   4.777  10.041 -0.0798  0.7634  0.8691
 4284TIP3   OH237046   5.091   1.010  10.743 -0.4353  0.2317 -0.0983
 4284TIP3    H137047   5.057   1.075  10.681 -0.6963  0.1367 -0.0587
 4284TIP3    H237048   5.118   0.936  10.687  3.5195  1.8009 -0.5853
 4285TIP3   OH237049   5.747   1.983  10.729  0.2180 -0.1301  0.1297
 4285TIP3    H137050   5.815   2.030  10.779  0.5581 -1.7835  1.3099
 4285TIP3    H237051   5.707   2.051  10.674  2.4595  1.0110 -0.2309
 4286TIP3   OH237052   1.526   3.469   8.924  0.2770 -0.2909  0.5575
 4286TIP3    H137053   1.541   3.561   8.906  2.8433 -0.8021 -0.2906
 4286TIP3    H237054   1.554   3.456   9.014 -0.7923 -0.1343  0.9281
 4287TIP3   OH237055   3.476   4.342   9.482  0.0446 -0.1296  0.6400
 4287TIP3    H137056   3.382   4.344   9.461 -0.4576 -0.3054  2.6036
 4287TIP3    H237057   3.490   4.421   9.535  1.0441 -0.0439  0.2674
 4288TIP3   OH237058   3.975   7.488  11.414  0.0354  0.5262  0.1952
 4288TIP3    H137059   4.043   7.489  11.480 -0.7348  2.8071  1.0669
 4288TIP3    H237060   4.020   7.467  11.332  1.7845  1.7976  0.7728
 4289TIP3   OH237061   7.126   5.120  10.784 -0.3143  0.0228  0.1645
 4289TIP3    H137062   7.091   5.089  10.868  0.6804 -1.6980 -0.0128
 4289TIP3    H237063   7.060   5.093  10.720  1.1164 -3.1593 -0.1609
 4290TIP3   OH237064   7.107   1.581  10.655  0.0987 -0.1167  0.3192
 4290TIP3    H137065   7.076   1.570  10.745 -2.1529  1.7828 -0.1268
 4290TIP3    H237066   7.028   1.604  10.605  1.6437  1.0826 -1.7151
 4291TIP3   OH237067   3.755   2.902  10.694 -1.0393 -0.1596  0.0009
 4291TIP3    H137068   3.730   2.984  10.652  1.7308  1.3851  1.1146
 4291TIP3    H237069   3.708   2.902  10.778 -1.4438  0.0181 -0.2249
 4292TIP3   OH237070   3.040   3.492  11.417 -0.1914  0.4285 -0.4787
 4292TIP3    H137071   2.973   3.451  11.362 -0.8906 -1.0726  1.3526
 4292TIP3    H237072   3.022   3.586  11.411 -0.2026  0.3438 -2.7665
 4293TIP3   OH237073   2.661   3.826   8.318 -0.5460  0.3811 -0.0178
 4293TIP3    H137074   2.664   3.741   8.274  0.0321 -0.3054  1.2816
 4293TIP3    H237075   2.700   3.887   8.256 -0.7280 -0.3545 -0.8679
 4294TIP3   OH237076   1.732   6.838   9.694  0.2393 -0.0234  0.0492
 4294TIP3    H137077   1.654   6.874   9.736  0.7193  1.4463 -0.2575
 4294TIP3    H237078   1.804   6.866   9.750  0.6676 -0.1248 -0.4467
 4295TIP3   OH237079   1.352   2.868  10.050  0.3444 -0.0263 -0.3178
 4295TIP3    H137080   1.401   2.929   9.996  1.5960 -0.6128  0.1038
 4295TIP3    H237081   1.267   2.909  10.063  0.8573  1.2102 -0.7629
 4296TIP3   OH237082   0.974   4.225   9.795 -0.0488 -0.2874  0.1891
 4296TIP3    H137083   0.892   4.274   9.797  0.4529  0.6051 -0.4749
 4296TIP3    H237084   1.041   4.290   9.815  0.4335 -1.2197  1.8253
 4297TIP3   OH237085   5.705   6.255   8.368  0.2709  0.1354  0.3923
 4297TIP3    H137086   5.766   6.296   8.307  0.4670 -1.4416 -0.5404
 4297TIP3    H237087   5.757   6.187   8.411 -0.8983 -1.5974 -0.8051
 4298TIP3   OH237088   1.400   7.051  10.028  0.2184 -0.7500  0.0763
 4298TIP3    H137089   1.331   7.102  10.071 -0.5392 -0.7385 -1.1148
 4298TIP3    H237090   1.381   6.961  10.054  1.2065 -0.5303  1.6981
 4299TIP3   OH237091   4.365   5.668   8.779 -0.4117  0.1761  0.1094
 4299TIP3    H137092   4.461   5.670   8.787 -0.4561  0.0911  0.7562
 4299TIP3    H237093   4.349   5.612   8.704  0.0709  1.0840 -0.7047
 4300TIP3   OH237094   5.235   7.372  10.327 -0.2840 -0.2666 -0.1964
 4300TIP3    H137095   5.221   7.463  10.301 -1.0377  0.2308  1.7640
 4300TIP3    H237096   5.207   7.320  10.251  1.4462  1.1038 -1.8830
 4301TIP3   OH237097   1.432   1.160  10.320 -0.0421  0.1061 -0.1102
 4301TIP3    H137098   1.385   1.090  10.365 -1.5283  0.3327 -1.2381
 4301TIP3    H237099   1.378   1.180  10.244  0.5013  2.2804  0.0093
 4302TIP3   OH237100   2.042   6.698  10.352 -0.0377  0.4007  0.3168
 4302TIP3    H137101   1.987   6.642  10.407 -0.4671  1.8316  1.4106
 4302TIP3    H237102   1.982   6.764  10.317  0.3487 -0.1031 -1.4139
 4303TIP3   OH237103   2.815   2.261  10.079  0.2779 -0.0982 -0.0797
 4303TIP3    H137104   2.805   2.304   9.994  0.2178 -0.2229 -0.1358
 4303TIP3    H237105   2.801   2.331  10.143  0.1864 -0.0333 -0.1712
 4304TIP3   OH237106   2.026   4.275  10.619  0.1292  0.4239  0.8660
 4304TIP3    H137107   1.932   4.258  10.613  0.0554  0.9104  0.6194
 4304TIP3    H237108   2.032   4.362  10.658  0.4487  0.9827 -0.4005
 4305TIP3   OH237109   5.256   5.663   9.853  0.3675 -0.7549 -0.9123
 4305TIP3    H137110   5.254   5.725   9.781 -2.0832  1.3784  0.8034
 4305TIP3    H237111   5.326   5.695   9.911 -0.2804 -0.1002 -0.4766
 4306TIP3   OH237112   6.912   1.334  10.038  0.1178  0.2826 -0.3207
 4306TIP3    H137113   7.002   1.323  10.068  0.5827  0.5161 -1.5717
 4306TIP3    H237114   6.887   1.422  10.067  0.5135  0.4561 -0.5018
 4307TIP3   OH237115   1.582   2.488  10.112 -0.4002  1.0608  0.4647
 4307TIP3    H137116   1.633   2.424  10.063 -1.6247  1.1430 -1.0016
 4307TIP3    H237117   1.554   2.442  10.191  0.5722  0.5297  0.5223
 4308TIP3   OH237118   0.078   2.942   8.479 -0.1836 -0.0572 -0.0604
 4308TIP3    H137119   0.045   2.856   8.452 -0.0552  0.1532 -0.8995
 4308TIP3    H237120   0.026   2.964   8.557 -0.6797 -0.5909 -0.2355
 4309TIP3   OH237121   3.781   0.017   8.666  0.2771 -0.5169 -0.1566
 4309TIP3    H137122   3.718   0.019   8.594  1.0385  0.3455 -0.8353
 4309TIP3    H237123   3.791   0.109   8.691  0.1817 -0.7927  0.9163
 4310TIP3   OH237124   7.445   3.029  10.494 -0.4496 -0.0054 -0.1412
 4310TIP3    H137125   7.416   3.011  10.404 -0.3197 -0.8443 -0.0239
 4310TIP3    H237126   7.367   3.018  10.547 -0.7460  1.4049 -0.2342
 4311TIP3   OH237127   3.135   5.177   9.723 -0.1951 -0.0015 -0.5290
 4311TIP3    H137128   3.053   5.139   9.693 -1.2054  0.0390  1.9192
 4311TIP3    H237129   3.124   5.271   9.711 -1.4997  0.2153  1.7909
 4312TIP3   OH237130   1.011   4.844  10.754 -0.3573  0.5993  0.1077
 4312TIP3    H137131   1.036   4.900  10.681  0.8057 -2.5453 -2.1424
 4312TIP3    H237132   1.091   4.795  10.775 -1.2550 -0.1544  2.0507
 4313TIP3   OH237133   6.702   3.025  10.989  0.1101 -0.5277  0.0130
 4313TIP3    H137134   6.763   3.000  11.059  0.2851  0.0796  0.0839
 4313TIP3    H237135   6.651   2.946  10.973 -0.4906 -0.4581  1.3958
 4314TIP3   OH237136   1.150   7.428  10.422 -0.3206  0.0666  0.1338
 4314TIP3    H137137   1.193   7.510  10.399 -0.6723  0.5092  1.0131
 4314TIP3    H237138   1.063   7.434  10.383 -1.3893  1.3740  2.5237
 4315TIP3   OH237139   4.957   2.683   9.666 -0.4530  0.0377  0.3672
 4315TIP3    H137140   5.015   2.607   9.663 -0.1283  0.2910 -0.0116
 4315TIP3    H237141   4.912   2.676   9.750 -1.1211 -1.0762 -0.0600
 4316TIP3   OH237142   4.114   1.452   8.540  0.2352  0.5626 -0.6520
 4316TIP3    H137143   4.078   1.386   8.600  2.8369 -0.7141 -0.3693
 4316TIP3    H237144   4.058   1.446   8.462 -0.6495 -0.7472  0.0390
 4317TIP3   OH237145   1.882   4.747  10.098 -0.0320 -0.2883 -0.2481
 4317TIP3    H137146   1.862   4.741  10.005 -4.2026 -1.6113  0.5242
 4317TIP3    H237147   1.926   4.664  10.119  3.3237  1.0371 -1.2876
 4318TIP3   OH237148   2.888   3.180  11.059  0.4052  0.0187 -0.1689
 4318TIP3    H137149   2.961   3.177  11.121 -0.1240  1.4899  0.5862
 4318TIP3    H237150   2.920   3.235  10.988  1.4416 -2.6136 -1.8839
 4319TIP3   OH237151   6.702   2.481   9.873 -0.1349  0.0353 -0.1842
 4319TIP3    H137152   6.741   2.557   9.831 -0.5547  0.5800  0.3844
 4319TIP3    H237153   6.664   2.516   9.954 -1.6511 -0.4812 -0.6346
 4320TIP3   OH237154   2.886   7.162   9.294 -0.1236 -0.8599  0.4263
 4320TIP3    H137155   2.867   7.069   9.309 -0.5680 -0.6629  1.1074
 4320TIP3    H237156   2.896   7.169   9.199 -1.8373 -1.3097  0.1718
 4321TIP3   OH237157   4.664   3.434   9.404  0.0186 -0.3757 -0.7685
 4321TIP3    H137158   4.710   3.445   9.320  1.1052 -0.4135 -0.1914
 4321TIP3    H237159   4.572   3.450   9.382  0.4218  0.8013 -1.7410
 4322TIP3   OH237160   0.913   1.920   8.962  0.6101  0.4466 -0.2368
 4322TIP3    H137161   0.836   1.921   9.019  0.9142  0.5073  0.1804
 4322TIP3    H237162   0.984   1.889   9.019  0.9953  0.8588 -0.4840
 4323TIP3   OH237163   6.162   2.081  10.976  0.3753  0.5795 -0.0172
 4323TIP3    H137164   6.249   2.121  10.985  0.7011 -0.3946  1.5228
 4323TIP3    H237165   6.102   2.149  11.006  0.6244  1.0978 -0.6560
 4324TIP3   OH237166   2.148   0.486  10.281 -0.2904 -0.2449  0.0308
 4324TIP3    H137167   2.119   0.493  10.372  0.9335  0.6584  0.3752
 4324TIP3    H237168   2.152   0.391  10.265 -0.2954 -0.4222  0.9821
 4325TIP3   OH237169   2.513   2.556   8.920 -0.1394 -0.0319  0.0343
 4325TIP3    H137170   2.529   2.569   8.827  0.7720 -0.9087  0.0467
 4325TIP3    H237171   2.437   2.498   8.923  0.6012 -1.0604 -0.2253
 4326TIP3   OH237172   4.684   7.374   8.882  0.1786 -0.2812 -0.0568
 4326TIP3    H137173   4.676   7.385   8.788  0.0299  2.2480  0.1743
 4326TIP3    H237174   4.628   7.443   8.919 -0.7174 -1.9439  1.9198
 4327TIP3   OH237175   5.608   0.962  11.229 -0.2308 -0.4664  0.6210
 4327TIP3    H137176   5.554   0.939  11.153  2.5478 -0.1079 -1.6253
 4327TIP3    H237177   5.558   1.030  11.274 -1.6414 -0.1375 -1.3122
 4328TIP3   OH237178   5.915   1.226   8.560 -0.5242 -0.1919 -0.1653
 4328TIP3    H137179   5.826   1.220   8.594 -0.4239  0.0060  0.1379
 4328TIP3    H237180   5.919   1.312   8.518 -0.8994 -0.7665 -1.4204
 4329TIP3   OH237181   7.342   2.978  10.218 -0.0063  0.0360  0.0572
 4329TIP3    H137182   7.260   2.934  10.196  0.1768 -0.5893  0.5977
 4329TIP3    H237183   7.389   2.984  10.134 -0.0739 -0.7204 -0.0407
 4330TIP3   OH237184   0.419   2.272  10.710  0.1475  0.3082  0.1838
 4330TIP3    H137185   0.435   2.333  10.783  0.0420  0.7774 -0.1839
 4330TIP3    H237186   0.446   2.187  10.745  0.9708  0.6725  0.4678
 4331TIP3   OH237187   2.980   0.517   9.805 -0.3855 -0.7878  0.0991
 4331TIP3    H137188   2.992   0.442   9.864  1.1334 -1.2882 -0.7890
 4331TIP3    H237189   3.067   0.535   9.772 -0.7283  1.3865  0.2502
 4332TIP3   OH237190   4.554   4.142  10.140 -0.4320 -0.1302  0.5298
 4332TIP3    H137191   4.460   4.158  10.152 -0.2771  0.9350  0.4389
 4332TIP3    H237192   4.596   4.221  10.173  0.3801 -0.1502 -0.4150
 4333TIP3   OH237193   1.988   0.513   8.570  0.5207 -0.2296  0.3247
 4333TIP3    H137194   1.949   0.440   8.522  0.4095  0.6515 -0.9755
 4333TIP3    H237195   1.924   0.533   8.638  1.6605 -2.9222  2.3764
 4334TIP3   OH237196   4.539   6.228  10.277  0.2567  0.9290  0.5318
 4334TIP3    H137197   4.572   6.277  10.352 -1.3687  1.2954  1.0464
 4334TIP3    H237198   4.464   6.180  10.312  1.4653 -1.5601 -0.0699
 4335TIP3   OH237199   4.791   2.769   8.259  0.4399 -0.5610  0.1790
 4335TIP3    H137200   4.771   2.825   8.184  0.1402  1.5133  1.6986
 4335TIP3    H237201   4.707   2.729   8.282 -0.4476  1.9953  1.7861
 4336TIP3   OH237202   4.632   0.602   8.733 -0.0330 -0.1260 -0.3287
 4336TIP3    H137203   4.683   0.638   8.660 -0.4403  0.8637 -0.1516
 4336TIP3    H237204   4.697   0.566   8.793  0.5224  1.3923  0.0423
 4337TIP3   OH237205   5.181   3.299   9.983  0.2774  0.2075 -0.2758
 4337TIP3    H137206   5.152   3.208   9.976  1.8312 -0.2217 -2.0808
 4337TIP3    H237207   5.117   3.348   9.931  1.2972 -0.3917 -2.2074
 4338TIP3   OH237208   3.889   2.668  10.605  0.4080  0.1344 -0.0935
 4338TIP3    H137209   3.835   2.736  10.646  1.0769 -0.9122  2.8286
 4338TIP3    H237210   3.909   2.702  10.518 -1.8129  2.2331  0.0974
 4339TIP3   OH237211   7.077   5.991   9.677  0.3578 -0.5376  0.8017
 4339TIP3    H137212   7.127   6.051   9.622 -0.9751 -0.8235 -0.8061
 4339TIP3    H237213   7.070   5.911   9.625 -2.7518 -0.1058  0.3657
 4340TIP3   OH237214   7.061   4.548  10.677  0.0293 -0.2908  0.6387
 4340TIP3    H137215   6.978   4.508  10.702  0.3017 -1.1281  0.2559
 4340TIP3    H237216   7.037   4.631  10.636 -0.6531 -0.7269  0.1345
 4341TIP3   OH237217   5.481   7.553  10.447  0.3066 -0.9799 -0.2815
 4341TIP3    H137218   5.417   7.620  10.427 -0.2736 -1.7796 -1.2306
 4341TIP3    H237219   5.522   7.581  10.529 -0.0662  0.3970 -0.5473
 4342TIP3   OH237220   5.790   7.353   9.287 -0.4263 -0.9028 -0.0913
 4342TIP3    H137221   5.704   7.381   9.319 -0.2839 -2.3725  1.7462
 4342TIP3    H237222   5.790   7.376   9.194 -2.0986  0.7492  0.2735
 4343TIP3   OH237223   1.430   6.957   9.067 -0.1597  0.1394 -0.1747
 4343TIP3    H137224   1.340   6.931   9.049 -0.0447 -0.0337 -0.5075
 4343TIP3    H237225   1.481   6.923   8.993  0.3942 -0.9935  0.6880
 4344TIP3   OH237226   4.959   6.059   9.531 -0.8361  0.0958 -0.1847
 4344TIP3    H137227   5.025   6.017   9.477 -0.0248  0.4043  0.5512
 4344TIP3    H237228   4.888   5.995   9.537 -0.2048 -0.6102 -0.2073
 4345TIP3   OH237229   5.658   6.650   9.491  0.5996  0.1440  0.4464
 4345TIP3    H137230   5.647   6.560   9.461  1.5265  0.3611 -0.5910
 4345TIP3    H237231   5.685   6.699   9.413  1.7513  0.9865  1.3356
 4346TIP3   OH237232   0.577   4.148   8.482 -0.5558  0.3493 -0.3043
 4346TIP3    H137233   0.612   4.126   8.568  0.9828  0.8858 -0.7392
 4346TIP3    H237234   0.619   4.085   8.423 -0.2303  1.0673 -0.8616
 4347TIP3   OH237235   7.033   5.291   8.440  0.2401 -0.4378  0.3743
 4347TIP3    H137236   6.987   5.284   8.356  1.7170 -1.0605 -0.4242
 4347TIP3    H237237   6.974   5.250   8.503 -0.9472  0.1475 -0.3312
 4348TIP3   OH237238   7.160   2.887   9.293 -0.5422  0.3613 -0.1959
 4348TIP3    H137239   7.195   2.971   9.323  0.1577 -0.1948  0.5991
 4348TIP3    H237240   7.065   2.897   9.298 -0.4513  0.7101  1.0096
 4349TIP3   OH237241   3.822   3.916   9.209  0.0485 -0.5622 -0.0698
 4349TIP3    H137242   3.752   3.975   9.182 -0.4518 -0.3190  1.6240
 4349TIP3    H237243   3.890   3.973   9.244 -0.1416 -0.9385  0.9349
 4350TIP3   OH237244   0.069   3.888   9.432  0.0599  0.0379 -0.3047
 4350TIP3    H137245   0.053   3.895   9.338 -1.4192  2.4498  0.0445
 4350TIP3    H237246  -0.016   3.865   9.470 -0.3778  2.8239  0.6841
 4351TIP3   OH237247   2.445   5.586  11.116  0.4139  0.3192 -0.0676
 4351TIP3    H137248   2.363   5.569  11.069  0.2292 -0.0715  0.3968
 4351TIP3    H237249   2.507   5.523  11.080  1.2750  2.2872 -2.3186
 4352TIP3   OH237250   5.680   0.311  11.172  0.1589 -0.2825 -0.0658
 4352TIP3    H137251   5.706   0.236  11.226 -1.8413  0.6855  2.4698
 4352TIP3    H237252   5.730   0.384  11.209 -1.6842  0.5114  0.9544
 4353TIP3   OH237253   6.991   7.328  10.298  0.4730  0.5910  0.9116
 4353TIP3    H137254   6.910   7.310  10.251  0.8433  2.3209 -0.5503
 4353TIP3    H237255   6.964   7.343  10.388 -0.8380  1.0249  0.4753
 4354TIP3   OH237256   1.911   0.059  10.665  0.3995 -0.4624  0.2054
 4354TIP3    H137257   1.884  -0.024  10.626 -0.1462 -0.3970  0.4368
 4354TIP3    H237258   1.892   0.125  10.598 -1.5353 -0.2128  0.9340
 4355TIP3   OH237259   2.782   5.984  10.226 -0.0694 -0.3399 -0.1851
 4355TIP3    H137260   2.863   5.952  10.267 -0.6704  0.7624  1.9695
 4355TIP3    H237261   2.807   5.999  10.134  1.8645 -1.0456  0.1700
 4356TIP3   OH237262   6.831   0.385   9.728  0.3623  0.4898 -0.2093
 4356TIP3    H137263   6.820   0.474   9.763 -0.2169  0.0796  0.7046
 4356TIP3    H237264   6.742   0.354   9.713  0.6047  0.8577 -2.6951
 4357TIP3   OH237265   3.958   5.980   9.884 -0.3907 -0.0744 -0.5953
 4357TIP3    H137266   3.985   6.070   9.903 -1.4760  0.2772 -0.6563
 4357TIP3    H237267   3.896   5.988   9.811  1.4798 -1.1369 -2.3959
 4358TIP3   OH237268   6.342   3.609  10.036  1.1225  0.2937 -0.0687
 4358TIP3    H137269   6.376   3.568  10.116  2.2987 -1.2215 -1.2680
 4358TIP3    H237270   6.320   3.698  10.062 -0.4814 -0.7342  2.4114
 4359TIP3   OH237271   1.860   6.861   8.256 -0.2087 -0.2039  0.0277
 4359TIP3    H137272   1.952   6.885   8.264 -0.3234  0.9980 -1.7678
 4359TIP3    H237273   1.858   6.767   8.274  1.3585 -0.2543  0.0567
 4360TIP3   OH237274   5.734   6.266   8.721 -0.1689 -0.7757  0.7529
 4360TIP3    H137275   5.733   6.354   8.757 -0.7299  0.4175 -1.9171
 4360TIP3    H237276   5.650   6.257   8.676 -0.7184 -3.2367  2.0839
 4361TIP3   OH237277   0.588   6.171  10.387  0.5437  1.1541 -0.1077
 4361TIP3    H137278   0.520   6.186  10.453  1.4530  0.3464  1.0450
 4361TIP3    H237279   0.669   6.196  10.430  1.3001 -0.5840 -0.4722
 4362TIP3   OH237280   5.769   0.879   9.872 -0.1036 -0.0074 -0.4803
 4362TIP3    H137281   5.726   0.964   9.883 -1.2238 -0.8346  2.5032
 4362TIP3    H237282   5.753   0.856   9.781  0.1506  2.8968 -1.3621
 4363TIP3   OH237283   1.738   4.818   9.566  0.3075 -0.3826  0.6049
 4363TIP3    H137284   1.677   4.859   9.628 -0.3057 -0.8404  0.3121
 4363TIP3    H237285   1.747   4.881   9.495 -0.6251 -0.7479  0.1600
 4364TIP3   OH237286   3.975   0.985   8.935 -0.6084 -0.4820  0.4095
 4364TIP3    H137287   4.016   0.922   8.876 -0.8985  0.2435 -0.6028
 4364TIP3    H237288   3.997   0.954   9.023  0.1466 -1.3853 -0.0817
 4365TIP3   OH237289   2.554   3.618  10.585  0.3952 -0.9517  0.1323
 4365TIP3    H137290   2.585   3.606  10.496 -2.5738 -0.4692 -1.1092
 4365TIP3    H237291   2.599   3.696  10.616 -0.0542  0.1468 -1.8021
 4366TIP3   OH237292   0.405   7.656  10.884  0.0946  0.2189  0.1402
 4366TIP3    H137293   0.449   7.620  10.807 -0.4996  0.6708 -0.4252
 4366TIP3    H237294   0.316   7.621  10.880 -0.0725  0.6103  0.3663
 4367TIP3   OH237295   4.308   1.611   9.546 -0.7823  0.6711  0.0590
 4367TIP3    H137296   4.349   1.571   9.623  0.4018  1.2274 -0.2660
 4367TIP3    H237297   4.225   1.563   9.536 -0.6360  0.1225  1.2580
 4368TIP3   OH237298   1.348   2.373   9.906  0.0074  0.2565 -0.1321
 4368TIP3    H137299   1.308   2.459   9.905 -1.5466 -0.4025  1.2738
 4368TIP3    H237300   1.351   2.348   9.998  1.7245 -0.6412 -0.3806
 4369TIP3   OH237301   2.785   3.938   9.178  0.1055  0.2297 -0.0168
 4369TIP3    H137302   2.771   3.974   9.090 -0.9642 -0.1890 -0.0251
 4369TIP3    H237303   2.859   3.879   9.167 -0.6863 -0.6296 -0.8819
 4370TIP3   OH237304   4.689   6.965   8.495  0.6019  0.3350  0.2656
 4370TIP3    H137305   4.604   6.922   8.503  0.0139  1.1063 -1.3082
 4370TIP3    H237306   4.696   7.019   8.573 -1.0577  1.3970 -0.2595
 4371TIP3   OH237307   3.160   2.542   9.276  0.7190 -0.4660  0.1951
 4371TIP3    H137308   3.130   2.574   9.361  3.5681 -0.8531  1.4698
 4371TIP3    H237309   3.195   2.620   9.232  0.6227 -0.5251  0.0115
 4372TIP3   OH237310   6.181   4.068   9.440 -0.2603 -0.0354  0.6519
 4372TIP3    H137311   6.207   4.009   9.511 -0.0392 -3.6774 -2.1818
 4372TIP3    H237312   6.091   4.041   9.419  0.4481 -0.6319 -1.8338
 4373TIP3   OH237313   3.847   6.956  10.017  0.3745  0.1554  0.4082
 4373TIP3    H137314   3.801   6.929  10.096  1.1808 -0.5715  0.6551
 4373TIP3    H237315   3.779   6.966   9.951 -0.0503 -2.7315  0.2474
 4374TIP3   OH237316   5.825   1.519  10.468  0.0077  0.2881 -0.0395
 4374TIP3    H137317   5.903   1.535  10.520  1.2691  1.7695 -2.2632
 4374TIP3    H237318   5.838   1.431  10.432  0.3443  0.2809  0.0991
 4375TIP3   OH237319   1.939   6.950   9.833  0.0939 -0.9720 -0.2029
 4375TIP3    H137320   1.896   6.890   9.895 -0.6168 -1.1783 -0.8782
 4375TIP3    H237321   1.951   7.031   9.882 -2.2782 -0.4580 -0.3444
 4376TIP3   OH237322   1.011   7.405   9.557  0.7292 -0.2794 -0.1081
 4376TIP3    H137323   0.919   7.404   9.531  0.7036 -1.6234 -0.0646
 4376TIP3    H237324   1.043   7.318   9.532  2.0781  0.2797 -0.4334
 4377TIP3   OH237325   0.026   6.537   9.464  0.2176 -0.2474 -0.3501
 4377TIP3    H137326  -0.025   6.601   9.514  1.1747 -1.2681  2.1202
 4377TIP3    H237327   0.097   6.587   9.425  0.8096  0.3074  1.3402
 4378TIP3   OH237328   2.147   4.902  10.164  0.2504 -0.6604 -0.5902
 4378TIP3    H137329   2.115   4.900  10.074  0.7273  0.6921 -0.8132
 4378TIP3    H237330   2.095   4.970  10.207  1.1311 -0.1404 -0.3079
 4379TIP3   OH237331   1.946   3.335  10.468  0.0566  0.2208  0.4276
 4379TIP3    H137332   1.898   3.394  10.410 -1.0126  0.1372  1.1983
 4379TIP3    H237333   1.951   3.252  10.421  1.5636  0.8863 -0.6616
 4380TIP3   OH237334   5.948   1.353   9.261 -0.0776 -0.2331  0.5257
 4380TIP3    H137335   5.993   1.436   9.247 -1.4811  0.3726 -0.6192
 4380TIP3    H237336   5.964   1.303   9.181 -4.4107  1.4899 -1.7643
 4381TIP3   OH237337   5.496   5.727  10.825 -0.0018  0.0361  0.1187
 4381TIP3    H137338   5.415   5.762  10.863  0.6497  0.1552  1.4696
 4381TIP3    H237339   5.502   5.638  10.860  0.6142  0.1517  0.3202
 4382TIP3   OH237340   0.459   1.766   9.165 -0.3668  0.4445  0.0447
 4382TIP3    H137341   0.489   1.815   9.088 -1.1314  1.6707  0.4891
 4382TIP3    H237342   0.376   1.808   9.188 -0.5477 -0.4407  1.0560
 4383TIP3   OH237343   5.738   7.603   9.974  0.2319 -0.2959 -0.8537
 4383TIP3    H137344   5.694   7.611   9.889  2.2184  0.1611 -1.9079
 4383TIP3    H237345   5.683   7.543  10.023 -1.0751 -0.4538 -2.3973
 4384TIP3   OH237346   1.327   1.039   9.291 -0.2790  0.2141 -0.3154
 4384TIP3    H137347   1.311   0.978   9.219  0.2540  1.2817 -1.3648
 4384TIP3    H237348   1.387   1.104   9.255  1.2164 -0.0370  1.5271
 4385TIP3   OH237349   1.737   7.475  11.143 -0.4850 -0.6281  0.0974
 4385TIP3    H137350   1.781   7.510  11.221  1.2599  0.5288 -1.3053
 4385TIP3    H237351   1.801   7.416  11.104  0.6558  2.1922 -2.7991
 4386TIP3   OH237352   2.143   5.623   9.381  0.0651  0.5187 -0.3755
 4386TIP3    H137353   2.204   5.631   9.454 -1.1534 -0.1428  0.7666
 4386TIP3    H237354   2.093   5.705   9.382 -0.8498 -0.0182  0.4252
 4387TIP3   OH237355   7.036   2.417   9.691 -0.1969 -0.8389 -0.4489
 4387TIP3    H137356   6.968   2.351   9.702 -1.1199 -0.0967 -1.4913
 4387TIP3    H237357   6.996   2.498   9.723  1.0624 -0.8212  1.2079
 4388TIP3   OH237358   3.480   5.283   9.810  0.0507  0.1870  0.4799
 4388TIP3    H137359   3.554   5.344   9.817  1.5508 -1.3412 -0.8606
 4388TIP3    H237360   3.413   5.331   9.761  1.0269  0.9238 -0.1839
 4389TIP3   OH237361   3.590   3.666  10.781 -0.1051 -0.4676  0.1141
 4389TIP3    H137362   3.682   3.659  10.756  0.7923  0.6453  2.7314
 4389TIP3    H237363   3.554   3.731  10.721  1.9929  2.2951  1.5987
 4390TIP3   OH237364   3.933   1.020   9.961 -0.2905  0.3093 -0.5652
 4390TIP3    H137365   3.921   0.926   9.957  1.9373 -0.0392 -0.2659
 4390TIP3    H237366   3.923   1.042  10.053 -1.4304  0.5110 -0.7116
 4391TIP3   OH237367   1.708   7.629   8.298  0.0686 -0.0919  0.4364
 4391TIP3    H137368   1.656   7.582   8.233  0.4920 -1.6127  1.1453
 4391TIP3    H237369   1.798   7.617   8.270  0.4340 -2.5260  2.2877
 4392TIP3   OH237370   7.597   7.656  10.185 -0.0533  0.0386 -0.2076
 4392TIP3    H137371   7.508   7.659  10.150 -0.0276  1.3796 -0.1959
 4392TIP3    H237372   7.609   7.565  10.211 -1.0828 -0.3731 -1.0771
 4393TIP3   OH237373   5.958   2.154   8.672  0.4845 -0.8773 -0.4563
 4393TIP3    H137374   5.962   2.064   8.638  1.6474 -0.5749 -1.1842
 4393TIP3    H237375   5.959   2.209   8.593  0.9886 -0.2120  0.0040
 4394TIP3   OH237376   5.515   1.170   8.557  0.1935 -0.5146 -0.2050
 4394TIP3    H137377   5.576   1.218   8.614 -1.5762  1.9317 -0.2342
 4394TIP3    H237378   5.454   1.127   8.618  0.7945 -1.4168 -0.2183
 4395TIP3   OH237379   0.374   4.956  10.614  0.1820 -0.7307 -0.0636
 4395TIP3    H137380   0.315   4.886  10.589  0.2233 -0.2057 -1.7928
 4395TIP3    H237381   0.332   5.036  10.582  0.8807 -0.1359  0.4473
 4396TIP3   OH237382   1.656   4.516   9.727 -0.0498 -0.0432 -0.0407
 4396TIP3    H137383   1.725   4.473   9.676  0.2933  0.7174 -0.2311
 4396TIP3    H237384   1.666   4.480   9.815 -0.6803 -1.4144 -0.4930
 4397TIP3   OH237385   3.044   7.158  11.591 -0.5042 -0.2473  0.2515
 4397TIP3    H137386   3.128   7.142  11.633 -0.6517 -0.6488  0.4021
 4397TIP3    H237387   3.008   7.234  11.636  1.2070  2.0297 -1.9535
 4398TIP3   OH237388   4.165   2.902   9.691  0.8355  0.4459  0.0668
 4398TIP3    H137389   4.106   2.883   9.618 -0.0099  1.5040  0.4472
 4398TIP3    H237390   4.147   2.993   9.713  2.3833  0.6895  0.4254
 4399TIP3   OH237391   6.132   1.065   8.608 -0.0330  0.6391  0.4970
 4399TIP3    H137392   6.065   1.130   8.587  0.0476  1.1763  1.7509
 4399TIP3    H237393   6.186   1.108   8.675  0.3407 -0.5298  0.9767
 4400TIP3   OH237394   6.856   2.700  10.062  0.3986  0.0087 -0.0553
 4400TIP3    H137395   6.777   2.755  10.068 -0.3825 -1.1412  0.4605
 4400TIP3    H237396   6.927   2.758  10.090 -0.7262  0.1150  2.9072
 4401TIP3   OH237397   3.133   5.254  10.762  0.0698 -0.3556 -0.3943
 4401TIP3    H137398   3.209   5.197  10.751  1.1931  0.8005  1.1067
 4401TIP3    H237399   3.164   5.326  10.816 -1.8723  0.6199 -0.4980
 4402TIP3   OH237400   3.972   1.840   8.440 -0.7104  0.3522  0.1312
 4402TIP3    H137401   4.032   1.840   8.366 -0.8595  0.2769  0.0090
 4402TIP3    H237402   3.966   1.931   8.467  0.8804  0.1446  1.3107
 4403TIP3   OH237403   5.321   3.646  10.479  0.3394  0.1058 -0.2243
 4403TIP3    H137404   5.232   3.670  10.504  0.3540 -0.1529  0.0796
 4403TIP3    H237405   5.317   3.552  10.462  0.5316  0.1131 -0.3135
 4404TIP3   OH237406   2.843   4.869   9.837  0.2438  0.1991  0.2578
 4404TIP3    H137407   2.860   4.941   9.777 -1.2752  0.4300  0.0711
 4404TIP3    H237408   2.911   4.805   9.817  1.5455  1.5177  0.3553
 4405TIP3   OH237409   2.212   3.339  10.865 -0.6408 -0.3512 -0.2608
 4405TIP3    H137410   2.189   3.375  10.779  0.2367 -1.1860 -0.8636
 4405TIP3    H237411   2.127   3.324  10.908 -1.1169 -0.4789 -1.2115
 4406TIP3   OH237412   6.650   5.166   9.216 -0.1376 -0.1723  0.2485
 4406TIP3    H137413   6.626   5.097   9.278  1.3513 -1.3379 -0.4092
 4406TIP3    H237414   6.746   5.164   9.215 -0.1185  0.6972 -1.1304
 4407TIP3   OH237415   5.173   3.669  10.778  0.1684 -0.2151 -0.0741
 4407TIP3    H137416   5.083   3.670  10.811  0.7849 -1.2018  1.7881
 4407TIP3    H237417   5.184   3.580  10.743 -0.1531  0.5077 -2.1603
 4408TIP3   OH237418   5.436   0.567  11.013  0.3837  0.6696 -0.3447
 4408TIP3    H137419   5.445   0.525  10.928 -1.7934  1.4994 -1.0705
 4408TIP3    H237420   5.435   0.495  11.076  2.1966  0.0545 -0.9694
 4409TIP3   OH237421   0.043   6.748  10.031 -0.3441 -0.4695 -0.4105
 4409TIP3    H137422   0.064   6.703   9.949  1.8413  0.7704 -0.6098
 4409TIP3    H237423   0.114   6.723  10.091  1.3125  2.9692 -0.7007
 4410TIP3   OH237424   4.554   2.792   8.829  0.8246 -1.0511  0.0868
 4410TIP3    H137425   4.566   2.716   8.886 -0.8739 -1.7034 -0.3485
 4410TIP3    H237426   4.541   2.754   8.742 -0.6583 -0.3259 -0.0415
 4411TIP3   OH237427   1.968   5.345   8.983 -0.3190 -0.2692 -0.1590
 4411TIP3    H137428   2.041   5.390   9.025  0.5121  0.0218 -1.8348
 4411TIP3    H237429   2.009   5.283   8.922 -1.4272 -2.9367  1.6002
 4412TIP3   OH237430   2.019   6.122   9.527  0.1930  0.3744  0.4360
 4412TIP3    H137431   1.934   6.163   9.544 -1.2012 -2.0780 -0.0278
 4412TIP3    H237432   2.083   6.182   9.564 -1.7411  2.2829  0.8910
 4413TIP3   OH237433   6.461   5.947   9.015 -0.5481 -0.0018  0.4846
 4413TIP3    H137434   6.452   6.031   9.059  1.7662 -0.2002  1.4757
 4413TIP3    H237435   6.488   5.886   9.084  3.8138 -0.1999 -1.0865
 4414TIP3   OH237436   4.258   5.496   8.546 -0.0078  0.0065  0.2443
 4414TIP3    H137437   4.344   5.506   8.505  0.0821 -1.5649  0.0081
 4414TIP3    H237438   4.198   5.541   8.487  0.5455  0.5467  0.0770
 4415TIP3   OH237439   3.441   6.482  10.100  0.1008 -0.1027 -0.4141
 4415TIP3    H137440   3.355   6.451  10.130  0.6908 -1.8306 -0.4376
 4415TIP3    H237441   3.467   6.547  10.166 -0.6085 -0.5738  0.3499
 4416TIP3   OH237442   1.329   1.791  10.574 -0.1576 -0.2408 -0.4166
 4416TIP3    H137443   1.263   1.735  10.533 -0.7300 -0.6218  0.9895
 4416TIP3    H237444   1.370   1.736  10.641 -0.0072  0.6954  0.2787
 4417TIP3   OH237445   0.945   6.300   8.545 -0.2942  0.3228 -0.3248
 4417TIP3    H137446   0.983   6.221   8.507 -0.0786  0.1233  0.2938
 4417TIP3    H237447   0.927   6.276   8.636  1.0394  1.4102  0.2602
 4418TIP3   OH237448   4.664   5.721  11.033 -0.5009 -0.8463  0.2849
 4418TIP3    H137449   4.723   5.778  10.983  0.3132 -1.4462  0.5488
 4418TIP3    H237450   4.685   5.633  11.003 -0.6450 -1.1381  1.0292
 4419TIP3   OH237451   7.383   0.944   9.044 -0.2614 -0.0108  0.0486
 4419TIP3    H137452   7.292   0.935   9.072 -0.8048  0.4475 -1.4572
 4419TIP3    H237453   7.434   0.939   9.125 -1.6061 -0.4345  0.9016
 4420TIP3   OH237454   0.286   4.107   8.524  0.5380 -0.0238 -0.4539
 4420TIP3    H137455   0.281   4.011   8.528 -0.4932 -0.1754 -3.0616
 4420TIP3    H237456   0.379   4.127   8.533  0.5483 -1.0183  2.6232
 4421TIP3   OH237457   3.204   5.398  10.193  0.3529  0.0083 -0.4747
 4421TIP3    H137458   3.184   5.317  10.147  1.6602 -1.3004  1.1241
 4421TIP3    H237459   3.133   5.408  10.257  1.5735 -1.4648  1.2209
 4422TIP3   OH237460   1.759   4.509   8.460 -0.0125  0.2384 -0.2016
 4422TIP3    H137461   1.734   4.420   8.487 -1.0809  0.8842  1.0909
 4422TIP3    H237462   1.730   4.564   8.532 -0.5720  1.7973 -1.5672
 4423TIP3   OH237463   6.617   7.340   9.369 -0.5933 -0.5919 -0.3126
 4423TIP3    H137464   6.638   7.292   9.448  0.3013  1.3002  0.6599
 4423TIP3    H237465   6.639   7.280   9.298  0.1375 -1.7418  0.8441
 4424TIP3   OH237466   7.400   7.105   9.999 -1.0457  0.6842 -0.0473
 4424TIP3    H137467   7.491   7.092  10.026 -1.3066 -2.9496 -0.4886
 4424TIP3    H237468   7.405   7.169   9.928  1.1289  0.6482  0.0045
 4425TIP3   OH237469   4.710   4.088   9.067 -0.2336  0.0121 -0.0365
 4425TIP3    H137470   4.725   4.095   9.161  1.4393  0.3727 -0.2964
 4425TIP3    H237471   4.720   3.995   9.048 -1.0171 -0.1238  0.2032
 4426TIP3   OH237472   4.527   4.112  10.512 -0.4522 -0.1957 -0.1270
 4426TIP3    H137473   4.601   4.096  10.454  1.2653  3.3181  0.7973
 4426TIP3    H237474   4.491   4.025  10.530  1.4453 -1.7769 -3.1026
 4427TIP3   OH237475   3.838   5.696   9.246 -0.1165 -0.1150 -0.2182
 4427TIP3    H137476   3.914   5.644   9.223 -1.5198 -2.0647 -0.7217
 4427TIP3    H237477   3.831   5.689   9.341 -0.3573 -0.9735 -0.2937
 4428TIP3   OH237478   2.915   0.621   9.446 -0.4867  0.4373 -0.1665
 4428TIP3    H137479   2.846   0.597   9.507 -1.6541  0.5197 -1.4110
 4428TIP3    H237480   2.921   0.717   9.452  1.9652  0.2664  2.4471
 4429TIP3   OH237481   5.746   3.107   8.436  0.5667  0.5168 -0.1303
 4429TIP3    H137482   5.785   3.029   8.396 -0.4188  0.1245 -0.3580
 4429TIP3    H237483   5.652   3.094   8.426  0.3933  1.9025 -0.4610
 4430TIP3   OH237484   1.654   3.863   9.158  0.3459 -0.4695 -0.0366
 4430TIP3    H137485   1.595   3.933   9.132 -0.1943 -0.2842  1.6142
 4430TIP3    H237486   1.736   3.907   9.179  0.9822 -0.6792 -1.8524
 4431TIP3   OH237487   1.141   1.059   8.407  0.1587  0.8654 -0.8101
 4431TIP3    H137488   1.148   1.090   8.316  0.4953  1.8333 -0.4661
 4431TIP3    H237489   1.086   1.124   8.450  1.5276  1.4516  0.1233
 4432TIP3   OH237490   2.453   2.719  10.852 -0.2590  0.1628  0.0789
 4432TIP3    H137491   2.446   2.623  10.849 -0.5162  0.0155  2.7794
 4432TIP3    H237492   2.546   2.735  10.867 -0.1689  0.3710 -0.6707
 4433TIP3   OH237493   6.055   3.144   9.900 -0.1643 -0.1545  0.0960
 4433TIP3    H137494   6.014   3.147   9.986 -0.1393  2.2558  0.0877
 4433TIP3    H237495   5.990   3.183   9.841  0.6784  0.2842 -0.5717
 4434TIP3   OH237496   2.683   1.366  11.198  0.2595  0.3734 -0.7744
 4434TIP3    H137497   2.778   1.361  11.187  0.1474  0.8570 -2.2227
 4434TIP3    H237498   2.648   1.312  11.127 -0.5432  0.5643 -0.5254
 4435TIP3   OH237499   3.187   6.964   8.632  0.1623 -0.6194 -0.4439
 4435TIP3    H137500   3.261   6.963   8.571 -0.6353  1.7592 -1.5690
 4435TIP3    H237501   3.195   6.882   8.681  2.1773 -1.5168 -2.1318
 4436TIP3   OH237502   0.444   0.899  10.852 -0.3805 -0.1484  0.5236
 4436TIP3    H137503   0.426   0.937  10.766  2.7415 -1.9509 -1.1026
 4436TIP3    H237504   0.384   0.824  10.858 -0.9587  0.2765  0.1729
 4437TIP3   OH237505   3.737   0.983  10.266  0.3756 -0.3487  0.6391
 4437TIP3    H137506   3.831   0.986  10.286  0.6028 -1.3339 -0.1800
 4437TIP3    H237507   3.718   0.890  10.255  0.4571 -0.0406 -4.1120
 4438TIP3   OH237508   4.828   3.949  10.601  0.1718  0.3690  0.2776
 4438TIP3    H137509   4.816   3.936  10.506  1.2709 -0.4010  0.2279
 4438TIP3    H237510   4.760   3.893  10.641  0.8915 -0.7743 -0.0455
 4439TIP3   OH237511   3.844   4.782  11.242 -0.3424  0.4337  0.6636
 4439TIP3    H137512   3.882   4.778  11.330  0.3149 -0.8014  0.3395
 4439TIP3    H237513   3.901   4.842  11.194 -0.0206  0.2095  0.7638
 4440TIP3   OH237514   6.070   4.352   9.584  0.2763 -0.0814 -0.3784
 4440TIP3    H137515   5.976   4.358   9.604  0.5253 -3.0875  2.7310
 4440TIP3    H237516   6.077   4.276   9.526  0.7255  1.2231 -2.1076
 4441TIP3   OH237517   1.254   2.061   9.149  0.2807 -0.0388  0.6525
 4441TIP3    H137518   1.209   1.988   9.192 -0.9321  0.7327  0.7332
 4441TIP3    H237519   1.184   2.123   9.128  0.7878 -0.3063 -2.3194
 4442TIP3   OH237520   0.979   4.003  10.365  0.1569  0.4593  0.1332
 4442TIP3    H137521   0.964   3.952  10.286  0.5064 -0.3768  0.5866
 4442TIP3    H237522   0.902   3.985  10.420 -0.1659  1.1665 -0.0641
 4443TIP3   OH237523   6.923   1.282   8.382  0.1825 -0.5781 -0.5156
 4443TIP3    H137524   6.880   1.199   8.361 -1.3329  0.0663 -0.0900
 4443TIP3    H237525   7.007   1.278   8.336  0.6307 -2.7896  0.3744
 4444TIP3   OH237526   4.643   3.815   8.839 -0.3542  0.0722  0.1748
 4444TIP3    H137527   4.553   3.796   8.865 -0.7739 -1.8891 -2.3780
 4444TIP3    H237528   4.635   3.890   8.779 -0.2959 -0.0818 -0.0264
 4445TIP3   OH237529   3.008   6.333   8.789  0.0656 -0.1491  0.3491
 4445TIP3    H137530   2.930   6.311   8.840 -1.0047 -1.8001 -1.7920
 4445TIP3    H237531   3.048   6.248   8.770  1.6443  0.5823  0.2494
 4446TIP3   OH237532   2.517   1.776   8.473 -0.0771  0.3897  0.6493
 4446TIP3    H137533   2.569   1.845   8.432 -1.2244 -0.1084 -1.7731
 4446TIP3    H237534   2.559   1.762   8.558  1.5957  2.4091  0.2247
 4447TIP3   OH237535   5.858   6.670  10.336  0.0681 -0.1140  0.2207
 4447TIP3    H137536   5.910   6.628  10.405  0.1805 -1.5065 -0.6742
 4447TIP3    H237537   5.784   6.611  10.324  0.0519  0.1114 -0.8451
 4448TIP3   OH237538   2.432   2.669   9.203 -0.0433  0.2227 -0.5288
 4448TIP3    H137539   2.362   2.616   9.242 -0.5734  1.2899  0.0317
 4448TIP3    H237540   2.394   2.705   9.123 -0.0584  0.5955 -0.3591
 4449TIP3   OH237541   2.499   0.364   8.132  0.1494 -0.5200 -1.1567
 4449TIP3    H137542   2.404   0.363   8.121  0.1192  2.0734 -1.7170
 4449TIP3    H237543   2.522   0.272   8.149 -2.6293 -0.9735  0.8265
 4450TIP3   OH237544   0.780   2.492  10.637  0.5646  0.2690 -0.2381
 4450TIP3    H137545   0.697   2.498  10.589 -0.1366  1.2780  1.0422
 4450TIP3    H237546   0.834   2.433  10.584 -1.9148 -2.6949  0.2733
 4451TIP3   OH237547   4.074   5.014   8.807  0.6015  0.3662  0.2146
 4451TIP3    H137548   4.063   4.946   8.741  1.1183  0.0518  0.4398
 4451TIP3    H237549   4.035   5.093   8.768 -0.0758 -0.0746 -0.0141
 4452TIP3   OH237550   7.408   3.518   9.573 -0.1162  0.7470 -0.0110
 4452TIP3    H137551   7.330   3.489   9.620  0.1766  0.6768  0.4355
 4452TIP3    H237552   7.482   3.488   9.627  0.2074  2.2232  0.4235
 4453TIP3   OH237553   0.639   3.249  10.175  0.1988  0.0507 -0.2430
 4453TIP3    H137554   0.674   3.259  10.264  0.6061 -2.7478  0.0058
 4453TIP3    H237555   0.544   3.251  10.186  0.2300  1.2529 -0.0124
 4454TIP3   OH237556   0.331   0.708  11.051  0.6249  0.3202  0.0414
 4454TIP3    H137557   0.367   0.778  11.106  1.0749 -0.4245  0.7180
 4454TIP3    H237558   0.326   0.632  11.109  0.6811 -0.3693 -0.8301
 4455TIP3   OH237559   0.075   5.651   8.973 -0.2271  0.2429 -0.4862
 4455TIP3    H137560   0.062   5.556   8.967 -2.1431  0.3763  0.7541
 4455TIP3    H237561   0.166   5.661   9.000 -0.2956 -1.2907  0.3958
 4456TIP3   OH237562   6.990   1.901  11.041  0.4127 -0.2332  0.2759
 4456TIP3    H137563   6.988   1.958  10.964  0.2956  0.7579  0.9926
 4456TIP3    H237564   7.078   1.912  11.077 -0.4090  1.6500  1.9410
 4457TIP3   OH237565   6.568   0.802  10.530 -0.0568 -0.4589  0.2947
 4457TIP3    H137566   6.661   0.820  10.516 -0.4397 -0.2703 -2.4459
 4457TIP3    H237567   6.524   0.845  10.457 -2.4165  0.0960  1.9376
 4458TIP3   OH237568   1.207   5.095   9.475 -0.8219  0.4243 -0.2766
 4458TIP3    H137569   1.221   5.146   9.395 -0.1186  0.4251 -0.1609
 4458TIP3    H237570   1.147   5.147   9.527 -0.3349  1.0062 -0.2808
 4459TIP3   OH237571   7.555   5.298   9.971 -0.4073 -0.4425  0.1896
 4459TIP3    H137572   7.613   5.374   9.975 -0.6725 -0.2679  0.8512
 4459TIP3    H237573   7.614   5.224   9.955 -0.1230 -0.1317 -0.2129
 4460TIP3   OH237574   6.131   6.977   9.944  0.1075  0.2788 -0.3214
 4460TIP3    H137575   6.090   7.017   9.867 -0.1539  0.2338 -0.2076
 4460TIP3    H237576   6.216   7.020   9.951 -0.7714  1.9607  0.7037
 4461TIP3   OH237577   7.553   0.839   8.467  0.1024 -0.4229  0.2630
 4461TIP3    H137578   7.474   0.892   8.457  0.4109  0.2891  1.3695
 4461TIP3    H237579   7.524   0.749   8.454 -1.3665 -0.3943  2.7197
 4462TIP3   OH237580   3.422   4.146  10.386 -0.0031 -0.4346 -0.1943
 4462TIP3    H137581   3.440   4.223  10.334 -0.5794 -0.7858 -0.9351
 4462TIP3    H237582   3.362   4.094  10.332  0.2180 -1.3002  0.3748
 4463TIP3   OH237583   3.880   0.420   9.419 -0.0768  0.8597  0.2912
 4463TIP3    H137584   3.957   0.364   9.429  0.4648  1.2443 -1.3092
 4463TIP3    H237585   3.806   0.367   9.449  0.5974 -0.1939  0.1061
 4464TIP3   OH237586   0.576   2.562   9.668  0.4463 -0.1851 -0.3781
 4464TIP3    H137587   0.561   2.583   9.576  0.5168  0.2025 -0.3031
 4464TIP3    H237588   0.646   2.622   9.695  0.9959 -0.8424 -0.2888
 4465TIP3   OH237589   3.035   0.213   8.964  0.3058 -0.4806  0.3488
 4465TIP3    H137590   3.022   0.121   8.988  2.1956 -1.6258 -2.3740
 4465TIP3    H237591   3.128   0.229   8.980  0.5122  0.1949 -1.2551
 4466TIP3   OH237592   0.990   3.776   9.145 -0.0564  0.4570  0.2496
 4466TIP3    H137593   0.956   3.802   9.059 -2.0633 -0.8296  0.5902
 4466TIP3    H237594   0.981   3.681   9.146  0.8765  0.3603  1.5209
 4467TIP3   OH237595   0.310   4.613   9.562  0.0523 -0.0490  0.1637
 4467TIP3    H137596   0.350   4.592   9.646  1.0522  0.0420 -0.2822
 4467TIP3    H237597   0.219   4.633   9.583 -0.5090 -2.9214  0.8946
 4468TIP3   OH237598   2.819   5.302   9.543 -0.4556  0.2907 -0.5797
 4468TIP3    H137599   2.855   5.388   9.521  0.8506 -0.1571 -0.2496
 4468TIP3    H237600   2.748   5.322   9.604  0.3083  1.1068  0.0737
 4469TIP3   OH237601   5.532   3.799   9.973  0.0461 -0.5009 -0.5242
 4469TIP3    H137602   5.476   3.744  10.027 -1.1532  1.6011  0.5176
 4469TIP3    H237603   5.498   3.789   9.884 -1.7001  0.2907  0.0070
 4470TIP3   OH237604   4.968   3.034  10.686  0.1548 -0.5327 -0.8863
 4470TIP3    H137605   4.987   2.983  10.764  1.8824  2.6949  1.0227
 4470TIP3    H237606   5.050   3.033  10.636 -0.1806 -0.6362 -1.4366
 4471TIP3   OH237607   3.768   3.110   8.260 -0.2674 -0.0793 -0.0548
 4471TIP3    H137608   3.851   3.156   8.250  1.5429 -3.4490 -2.6249
 4471TIP3    H237609   3.712   3.146   8.192 -0.2873  0.8881  0.4560
 4472TIP3   OH237610   4.128   5.279  11.179  0.3313 -0.4127 -0.1207
 4472TIP3    H137611   4.145   5.192  11.144 -0.9691 -0.0593 -1.7837
 4472TIP3    H237612   4.175   5.339  11.121  0.4361  0.0485  0.4235
 4473TIP3   OH237613   7.031   4.151   8.985  0.0477  0.6277 -1.2453
 4473TIP3    H137614   6.964   4.215   9.009 -0.7275 -1.0416  1.6087
 4473TIP3    H237615   7.111   4.185   9.025  0.2007  1.0317 -1.8866
 4474TIP3   OH237616   0.134   6.581  10.686 -0.2328 -0.1236 -0.0558
 4474TIP3    H137617   0.096   6.632  10.758 -0.0830 -1.4747  1.0060
 4474TIP3    H237618   0.102   6.625  10.607 -0.1471  1.5787  0.8130
 4475TIP3   OH237619   5.213   3.148  11.010  0.1129 -0.4921  0.0050
 4475TIP3    H137620   5.250   3.194  10.935  0.6061  1.7800  1.5161
 4475TIP3    H237621   5.286   3.140  11.071 -0.7733 -0.1996  1.1338
 4476TIP3   OH237622   4.942   1.288  10.636  0.5093 -0.2566  0.2760
 4476TIP3    H137623   4.856   1.319  10.665 -0.1248 -2.2479  0.6270
 4476TIP3    H237624   5.003   1.324  10.701  0.0135  1.3644 -0.1054
 4477TIP3   OH237625   0.042   1.106   9.187  0.5174 -0.2033 -0.4074
 4477TIP3    H137626   0.014   1.081   9.099  1.4370 -1.6065 -0.3232
 4477TIP3    H237627   0.035   1.026   9.238  0.7437  0.4126  0.6087
 4478TIP3   OH237628   6.140   1.433  10.577  0.0055  0.7975  0.5908
 4478TIP3    H137629   6.149   1.510  10.632  1.1042  0.5405  0.7986
 4478TIP3    H237630   6.160   1.359  10.635  3.3246  0.6350 -0.5391
 4479TIP3   OH237631   3.001   6.120   9.437 -0.4203 -0.5066 -0.1881
 4479TIP3    H137632   3.072   6.164   9.484 -0.3767 -0.3136 -0.4337
 4479TIP3    H237633   3.044   6.047   9.392 -0.4165 -0.5355 -0.1364
 4480TIP3   OH237634   5.224   0.662   9.411 -0.6243 -0.5942 -0.2238
 4480TIP3    H137635   5.259   0.745   9.379 -1.4356 -0.0357  0.2944
 4480TIP3    H237636   5.300   0.614   9.443  0.0973 -0.7677 -2.0399
 4481TIP3   OH237637   1.763   1.142   9.182  0.2752  0.4636 -0.6316
 4481TIP3    H137638   1.817   1.214   9.215  1.1236  0.2054 -1.4357
 4481TIP3    H237639   1.824   1.072   9.163 -0.3574  0.0967 -1.3761
 4482TIP3   OH237640   6.018   2.095   8.933  0.1557 -0.2118  0.4692
 4482TIP3    H137641   6.106   2.059   8.931  0.0568 -0.4514 -1.1909
 4482TIP3    H237642   6.000   2.119   8.842 -1.3838  0.0859  0.8233
 4483TIP3   OH237643   5.211   3.380   9.484 -0.0809  0.2112  0.2552
 4483TIP3    H137644   5.246   3.354   9.399 -0.6277  0.4603 -0.0516
 4483TIP3    H237645   5.121   3.409   9.465  0.4870  2.3037  0.5721
 4484TIP3   OH237646   6.255   5.705   8.768 -0.0785  0.7612 -0.3048
 4484TIP3    H137647   6.271   5.645   8.694  1.4253  0.0551  0.5436
 4484TIP3    H237648   6.210   5.651   8.833 -0.7070  1.1705 -0.3968
 4485TIP3   OH237649   3.882   3.081   9.518  0.5348  0.2383  0.1224
 4485TIP3    H137650   3.839   3.123   9.443  0.8952  0.5127  0.0711
 4485TIP3    H237651   3.930   3.008   9.480  0.5224  0.2333  0.1159
 4486TIP3   OH237652   1.487   5.657  10.659 -0.3417  1.0710  0.6938
 4486TIP3    H137653   1.492   5.647  10.754 -0.9659 -2.3429  0.4825
 4486TIP3    H237654   1.574   5.633  10.627 -0.5391  0.8343  0.3229
 4487TIP3   OH237655   4.739   5.011  10.351 -0.1993 -0.0823 -0.5365
 4487TIP3    H137656   4.769   5.049  10.268  0.8642 -1.2191 -0.7005
 4487TIP3    H237657   4.671   5.071  10.382  0.5935  1.2819 -1.3682
 4488TIP3   OH237658   2.939   5.325  10.984  0.1836  0.3708 -0.1190
 4488TIP3    H137659   3.024   5.290  10.959 -0.3669  0.6263 -2.5252
 4488TIP3    H237660   2.949   5.346  11.077  2.0902 -1.4487  0.1600
 4489TIP3   OH237661   3.024   0.001  11.145 -0.0191  0.4445  0.5190
 4489TIP3    H137662   3.089   0.059  11.104 -0.6709  0.0779 -1.1130
 4489TIP3    H237663   2.946   0.055  11.154 -0.6310 -0.1380 -1.0113
 4490TIP3   OH237664   6.357   5.286  10.169 -0.0443 -0.6392 -0.2366
 4490TIP3    H137665   6.294   5.304  10.099  2.5311 -1.2586 -2.9219
 4490TIP3    H237666   6.304   5.250  10.240 -2.7237 -1.1761 -2.3336
 4491TIP3   OH237667   5.587   2.447   9.799  0.2705  0.0531 -0.3991
 4491TIP3    H137668   5.599   2.494   9.882  0.9877  3.2721 -2.1629
 4491TIP3    H237669   5.494   2.423   9.799  0.5391 -1.2431  1.8662
 4492TIP3   OH237670   5.744   4.893   9.799 -1.0118 -0.3465  0.6212
 4492TIP3    H137671   5.772   4.826   9.862  1.0254  1.6135  1.9639
 4492TIP3    H237672   5.655   4.867   9.775  0.0610 -4.1567  0.0720
 4493TIP3   OH237673   4.747   3.718   9.812 -0.2593  0.1472 -0.2747
 4493TIP3    H137674   4.663   3.672   9.813 -1.5209  2.2898  0.7283
 4493TIP3    H237675   4.743   3.773   9.733 -0.6364  1.5890  0.7071
 4494TIP3   OH237676   7.169   7.523   8.449  0.7124  0.2811  0.4874
 4494TIP3    H137677   7.110   7.565   8.511 -0.1923 -0.0755 -0.1135
 4494TIP3    H237678   7.118   7.451   8.411  0.9344  0.9975 -1.2964
 4495TIP3   OH237679   3.023   5.938   9.232  0.2614  0.0126 -0.5224
 4495TIP3    H137680   2.959   6.009   9.223 -0.4252  0.2728  4.0030
 4495TIP3    H237681   2.976   5.870   9.282  2.7832 -0.7771  0.9550
 4496TIP3   OH237682   0.392   6.594   9.681 -0.3468 -0.3188  0.3702
 4496TIP3    H137683   0.406   6.657   9.611 -0.4865 -1.3127 -0.5889
 4496TIP3    H237684   0.430   6.513   9.648  0.3292 -0.6170  1.7986
 4497TIP3   OH237685   1.640   3.383  10.539  0.1221 -0.3924 -0.1496
 4497TIP3    H137686   1.640   3.472  10.575 -0.9553 -0.6442  0.5326
 4497TIP3    H237687   1.705   3.386  10.469 -1.0699  1.4167 -1.2990
 4498TIP3   OH237688   6.832   4.039  10.033 -0.1476  0.1650 -0.3694
 4498TIP3    H137689   6.895   4.108  10.011  0.1502  0.1070  0.2535
 4498TIP3    H237690   6.879   3.983  10.095 -1.0320  0.4962  0.6302
 4499TIP3   OH237691   4.026   7.402   9.501  0.5024 -0.1134  0.5933
 4499TIP3    H137692   3.933   7.423   9.489  0.7386  1.0853  0.8077
 4499TIP3    H237693   4.073   7.474   9.460  1.3449 -0.2704  1.2445
 4500TIP3   OH237694   3.470   4.520  11.072  0.0457  0.2792  0.0953
 4500TIP3    H137695   3.391   4.570  11.054  0.6305  0.5326 -1.9109
 4500TIP3    H237696   3.456   4.436  11.029 -0.2874 -0.7959  2.1615
 4501TIP3   OH237697   5.586   7.563  11.024  0.3613  0.1399  0.2501
 4501TIP3    H137698   5.680   7.551  11.006  0.7632 -0.0483  2.2539
 4501TIP3    H237699   5.572   7.657  11.016  0.6394  0.1425 -0.3304
 4502TIP3   OH237700   1.209   6.123   9.153  0.1843 -0.4712 -0.6050
 4502TIP3    H137701   1.287   6.095   9.105 -0.3039  0.0001 -1.7007
 4502TIP3    H237702   1.177   6.044   9.197  1.9186 -0.4440  0.8086
 4503TIP3   OH237703   4.301   6.861  10.853  0.0988  0.1279  0.1838
 4503TIP3    H137704   4.208   6.882  10.851  0.1014  0.1090 -2.0465
 4503TIP3    H237705   4.326   6.874  10.945 -1.2269  3.8592  0.1954
 4504TIP3   OH237706   2.069   0.328  10.488 -0.6315  0.2295 -0.5658
 4504TIP3    H137707   2.152   0.280  10.480 -0.7399  0.1462 -1.3302
 4504TIP3    H237708   2.003   0.265  10.458 -1.0248  0.1562  0.4272
 4505TIP3   OH237709   4.246   6.173   9.869 -0.2762 -0.3115 -0.2085
 4505TIP3    H137710   4.321   6.186   9.811 -1.2930 -0.3983 -1.6019
 4505TIP3    H237711   4.207   6.260   9.879 -0.6149 -0.4401 -0.3830
 4506TIP3   OH237712   3.164   5.269   9.392  0.5020 -0.2583 -0.5340
 4506TIP3    H137713   3.167   5.181   9.355 -0.3671 -0.3102 -0.4920
 4506TIP3    H237714   3.256   5.290   9.410  0.8028 -0.7894 -1.3888
 4507TIP3   OH237715   0.801   0.278  10.392 -0.7710 -0.0677 -0.1299
 4507TIP3    H137716   0.876   0.239  10.437 -0.1742  0.0818 -0.9732
 4507TIP3    H237717   0.731   0.276  10.457 -0.0674 -0.2916  0.6443
 4508TIP3   OH237718   2.013   6.425   9.678 -0.8501  0.3183  0.1173
 4508TIP3    H137719   2.071   6.488   9.721 -0.5570 -0.3510  0.7448
 4508TIP3    H237720   2.066   6.389   9.606 -0.2773 -0.6610  1.0012
 4509TIP3   OH237721   6.610   6.212   8.892  0.3474  0.1793  0.1134
 4509TIP3    H137722   6.553   6.275   8.847  1.9212  0.1687 -2.0783
 4509TIP3    H237723   6.663   6.265   8.951  1.0939  0.8461 -1.1132
 4510TIP3   OH237724   7.646   4.038  10.615  0.1375  0.1504 -0.2499
 4510TIP3    H137725   7.714   4.012  10.552 -1.1477  1.5142 -2.3497
 4510TIP3    H237726   7.654   4.133  10.620 -1.0692  0.2517  0.0779
 4511TIP3   OH237727   6.871   0.410   8.999  0.4799 -0.0861  0.7380
 4511TIP3    H137728   6.829   0.347   8.941  1.4199 -0.9713  0.9920
 4511TIP3    H237729   6.885   0.488   8.945 -1.0358  0.0686  0.5234
 4512TIP3   OH237730   0.453   5.874  10.812  0.4753 -0.3431 -0.0085
 4512TIP3    H137731   0.528   5.928  10.837 -0.1319  1.2330 -1.3440
 4512TIP3    H237732   0.379   5.912  10.860  0.2410 -0.7884 -0.0096
 4513TIP3   OH237733   6.438   3.962  11.046 -0.2885 -0.2575  0.1880
 4513TIP3    H137734   6.519   3.992  11.005 -0.4101 -0.8843 -0.5390
 4513TIP3    H237735   6.446   3.867  11.049 -1.8588 -0.5254 -1.8701
 4514TIP3   OH237736   3.891   2.116   8.368  0.2491 -0.1205  0.0691
 4514TIP3    H137737   3.866   2.138   8.279 -0.0032 -1.1840 -0.1352
 4514TIP3    H237738   3.809   2.094   8.411  0.6747 -3.7552 -0.6350
 4515TIP3   OH237739   1.148   2.848   8.831  0.1110  1.0092  0.0876
 4515TIP3    H137740   1.205   2.816   8.901 -2.8243 -0.4945  1.9907
 4515TIP3    H237741   1.149   2.944   8.842  1.3569  0.9387  0.7630
 4516TIP3   OH237742   4.733   4.022  10.353  0.2159 -0.4330  0.0306
 4516TIP3    H137743   4.817   3.999  10.312  0.9187  0.1639  1.1018
 4516TIP3    H237744   4.681   4.058  10.281  1.6578  1.1936 -0.2757
 4517TIP3   OH237745   7.557   3.206  11.078 -0.1909 -0.4690 -0.1610
 4517TIP3    H137746   7.565   3.123  11.126 -0.7457 -0.9726 -0.9134
 4517TIP3    H237747   7.643   3.247  11.088  0.3257 -1.4539 -0.3344
 4518TIP3   OH237748   4.036   3.968  11.127  0.4426 -0.0333 -0.1014
 4518TIP3    H137749   4.001   4.000  11.210  1.7960  1.0775  0.0788
 4518TIP3    H237750   4.026   3.872  11.133 -1.0897  0.1337  0.5524
 4519TIP3   OH237751   4.197   7.336  11.072  0.1778  0.0133  0.4961
 4519TIP3    H137752   4.204   7.420  11.116 -0.4092  1.8869 -2.7250
 4519TIP3    H237753   4.104   7.327  11.052  0.4976 -0.3972 -0.9386
 4520TIP3   OH237754   4.177   0.693   9.430 -0.0567 -0.0138  0.2376
 4520TIP3    H137755   4.267   0.675   9.456 -0.1102 -0.8122 -0.0713
 4520TIP3    H237756   4.128   0.694   9.512  0.5781  2.9436  0.6850
 4521TIP3   OH237757   2.329   4.020  11.311 -0.0860  0.1442 -0.7124
 4521TIP3    H137758   2.320   3.985  11.400  3.1802  0.0232 -0.2993
 4521TIP3    H237759   2.260   4.087  11.304 -2.6966 -2.2230  0.5623
 4522TIP3   OH237760   3.102   3.294  10.583 -0.0822 -0.0457  0.4906
 4522TIP3    H137761   3.113   3.346  10.504  0.4354 -1.1663 -0.1954
 4522TIP3    H237762   3.175   3.232  10.582 -0.3005 -0.3505  1.6293
 4523TIP3   OH237763   7.456   1.326   9.137  0.6390  0.5020  0.0352
 4523TIP3    H137764   7.405   1.268   9.193  1.6373 -1.2599 -0.7989
 4523TIP3    H237765   7.412   1.322   9.052  2.4298 -1.6346 -0.9147
 4524TIP3   OH237766   3.960   1.223  10.695 -0.0503  0.4372 -0.0487
 4524TIP3    H137767   3.915   1.280  10.633 -0.4396 -1.3025 -1.4649
 4524TIP3    H237768   3.981   1.145  10.644  2.0210  0.0037  1.3358
 4525TIP3   OH237769   1.937   3.556  11.439 -0.5310 -0.2060 -0.3165
 4525TIP3    H137770   1.970   3.539  11.527 -1.4229  2.0400  0.5226
 4525TIP3    H237771   1.974   3.641  11.416 -3.5082  1.1833 -0.3989
 4526TIP3   OH237772   1.447   7.658  10.257 -0.3531 -0.4102 -0.2688
 4526TIP3    H137773   1.528   7.664  10.206 -0.1276 -0.9491  0.0132
 4526TIP3    H237774   1.415   7.748  10.263  0.1541 -0.2120 -0.5013
 4527TIP3   OH237775   3.550   4.391  10.310  0.2174 -0.2042  0.1738
 4527TIP3    H137776   3.500   4.470  10.292 -0.6404 -0.6975  0.3182
 4527TIP3    H237777   3.637   4.422  10.337 -0.8991  0.8128  2.9286
 4528TIP3   OH237778   3.787   4.649   9.102  0.0263  0.6312 -0.1445
 4528TIP3    H137779   3.746   4.595   9.035  0.4943  0.1343 -0.0357
 4528TIP3    H237780   3.880   4.652   9.078  0.2685  0.1320  0.6755
 4529TIP3   OH237781   7.456   3.889  11.032  0.0895 -0.3754 -0.1894
 4529TIP3    H137782   7.491   3.814  11.079  1.3526 -0.7267 -1.6184
 4529TIP3    H237783   7.445   3.957  11.099 -1.9553 -2.0656  1.2996
 4530TIP3   OH237784   1.647   4.227   9.414 -0.2320  0.4275  0.0802
 4530TIP3    H137785   1.668   4.249   9.323 -1.3034 -1.7058 -0.7744
 4530TIP3    H237786   1.573   4.166   9.407  1.0268 -1.5349  2.2109
 4531TIP3   OH237787   6.603   1.543   9.199 -0.5902  0.4253  0.4829
 4531TIP3    H137788   6.612   1.568   9.107  0.1250  0.5212  0.5761
 4531TIP3    H237789   6.688   1.561   9.238 -0.0810 -1.9518  0.6054
 4532TIP3   OH237790   2.320   3.829   9.639 -0.1330 -0.3307  0.0516
 4532TIP3    H137791   2.404   3.831   9.685  0.7323  0.7759 -1.4617
 4532TIP3    H237792   2.258   3.866   9.702  0.5601 -0.8409  1.0745
 4533TIP3   OH237793   6.715   2.944   9.125 -0.0834  0.1514 -0.1095
 4533TIP3    H137794   6.620   2.953   9.127  0.0383  2.0318 -1.1050
 4533TIP3    H237795   6.736   2.927   9.034  0.4735 -1.7365  0.3234
 4534TIP3   OH237796   3.414   6.709   9.028 -0.5939 -0.3411 -0.0492
 4534TIP3    H137797   3.452   6.630   9.066 -0.5617 -0.3173 -0.0321
 4534TIP3    H237798   3.489   6.759   8.996 -0.7285 -1.3158 -2.0273
 4535TIP3   OH237799   0.822   2.649  10.367  0.0585  0.2977  0.5098
 4535TIP3    H137800   0.751   2.704  10.400  0.3523  0.9542  0.0502
 4535TIP3    H237801   0.783   2.561  10.361 -0.3654  0.4145  1.3889
 4536TIP3   OH237802   7.031   4.813  10.572 -0.3477  0.1168  0.8881
 4536TIP3    H137803   7.109   4.850  10.531 -1.5529  0.5412 -1.1466
 4536TIP3    H237804   6.979   4.889  10.599 -1.5476 -0.0488 -0.7904
 4537TIP3   OH237805   3.961   0.645   8.629 -0.3210 -0.7882  0.0902
 4537TIP3    H137806   3.948   0.618   8.720  4.3270  1.5270  1.8087
 4537TIP3    H237807   4.022   0.581   8.593  2.1072  1.0814  0.5820
 4538TIP3   OH237808   4.956   6.295  10.216  0.4162  0.2611  0.4887
 4538TIP3    H137809   5.037   6.301  10.265 -0.4976 -0.4278  2.1811
 4538TIP3    H237810   4.969   6.222  10.156  0.6516 -0.6156  1.5805
 4539TIP3   OH237811   7.655   4.078  10.980 -0.9475 -0.4053 -0.3338
 4539TIP3    H137812   7.649   4.160  10.931 -2.5397  0.2968  0.9087
 4539TIP3    H237813   7.609   4.014  10.926 -0.9156 -0.1421 -0.6764
 4540TIP3   OH237814   1.609   1.249   8.203  0.3574 -0.2734 -0.1868
 4540TIP3    H137815   1.533   1.201   8.236  0.3597 -0.0746  0.1088
 4540TIP3    H237816   1.684   1.206   8.244  0.3156  0.5067  0.7609
 4541TIP3   OH237817   6.197   7.030   8.560 -0.1279 -0.2222  0.1541
 4541TIP3    H137818   6.237   7.032   8.473  0.3498  0.0936  0.3781
 4541TIP3    H237819   6.105   7.006   8.544  0.6413 -3.3619 -0.1742
 4542TIP3   OH237820   0.377   2.170   9.851 -0.0886  0.4419 -0.1812
 4542TIP3    H137821   0.467   2.144   9.830 -0.0064  1.0695 -0.6414
 4542TIP3    H237822   0.326   2.144   9.775 -0.2562  0.3184 -0.0280
 4543TIP3   OH237823   5.169   3.779   9.300  0.4861 -0.2766  0.1387
 4543TIP3    H137824   5.178   3.853   9.360  0.0684 -0.9670  1.0620
 4543TIP3    H237825   5.251   3.732   9.307  1.8062  1.4113 -2.3202
 4544TIP3   OH237826   3.970   0.604  10.976  0.5284  0.7694  0.5383
 4544TIP3    H137827   4.039   0.648  10.926  0.5365  0.8318  0.6045
 4544TIP3    H237828   3.981   0.636  11.066  0.8941  0.1979  0.6985
 4545TIP3   OH237829   7.307   1.265   9.403 -0.6265 -0.2076  0.0696
 4545TIP3    H137830   7.393   1.244   9.442 -2.0970  0.0963  4.0007
 4545TIP3    H237831   7.264   1.180   9.394 -0.7302 -0.1837  0.3297
 4546TIP3   OH237832   4.589   0.194  10.027  0.1537  0.4406  0.1593
 4546TIP3    H137833   4.566   0.116  10.078  2.3587 -1.4250 -1.4214
 4546TIP3    H237834   4.666   0.230  10.071 -1.8319  2.8381  1.8447
 4547TIP3   OH237835   7.039   1.452   9.129 -0.2660 -0.0808  0.4977
 4547TIP3    H137836   6.971   1.509   9.094  0.7094  0.1517 -1.0981
 4547TIP3    H237837   7.104   1.511   9.167 -0.7371 -0.2904  1.6879
 4548TIP3   OH237838   1.363   4.586   9.960  0.2687  0.1984 -0.6395
 4548TIP3    H137839   1.318   4.647  10.018 -0.9616  0.2991 -1.6446
 4548TIP3    H237840   1.455   4.591   9.986 -0.3687 -0.6282  2.0301
 4549TIP3   OH237841   5.415   3.351  10.131  0.0400 -0.1070  0.0050
 4549TIP3    H137842   5.406   3.444  10.151  0.0016 -0.2350  0.5963
 4549TIP3    H237843   5.343   3.332  10.071  1.7639  0.9132 -2.5635
 4550TIP3   OH237844   1.276   0.872   9.074  0.1189  0.0583  0.4068
 4550TIP3    H137845   1.185   0.865   9.043  0.2614  0.7537 -0.2068
 4550TIP3    H237846   1.299   0.784   9.102 -0.6305 -0.2023  0.2260
 4551TIP3   OH237847   6.966   6.383   9.942  0.0430  0.2031  0.4073
 4551TIP3    H137848   6.942   6.291   9.957  0.7513  0.2666  2.0991
 4551TIP3    H237849   6.996   6.385   9.851  0.2144 -1.2888  0.4010
 4552TIP3   OH237850   1.758   3.456  10.274 -0.0406  0.0560 -0.5730
 4552TIP3    H137851   1.691   3.437  10.208  1.3505  0.4438 -2.1545
 4552TIP3    H237852   1.823   3.508  10.228  1.2417 -0.0885  0.9904
 4553TIP3   OH237853   1.236   5.363   9.804  0.6277  0.6103 -0.2829
 4553TIP3    H137854   1.234   5.370   9.709  0.0467  1.1858 -0.2424
 4553TIP3    H237855   1.320   5.324   9.825  0.5033 -0.0865 -1.0659
 4554TIP3   OH237856   1.048   3.163   9.646  0.3972 -0.0768 -0.2171
 4554TIP3    H137857   0.993   3.137   9.573  0.7813 -1.0617 -0.1689
 4554TIP3    H237858   1.013   3.114   9.721  0.9020 -0.1830 -0.0476
 4555TIP3   OH237859   7.429   0.895   9.507  0.2934  0.0146  0.2263
 4555TIP3    H137860   7.458   0.804   9.513 -1.1428 -0.4160  1.1499
 4555TIP3    H237861   7.459   0.935   9.589  0.8287  0.3545 -0.1307
 4556TIP3   OH237862   5.477   1.199  10.141  0.3231  0.1111 -0.1892
 4556TIP3    H137863   5.421   1.244  10.203 -0.2903  0.6861 -1.1442
 4556TIP3    H237864   5.534   1.144  10.196 -1.7077 -1.1481  0.7818
 4557TIP3   OH237865   5.128   1.355  10.846  0.6242  0.7236  0.3636
 4557TIP3    H137866   5.095   1.406  10.920  1.4085  0.4859  0.8883
 4557TIP3    H237867   5.216   1.329  10.872  1.0195  0.8588 -0.7687
 4558TIP3   OH237868   3.595   3.276   9.130 -0.3994 -0.3560 -0.3904
 4558TIP3    H137869   3.577   3.366   9.104  2.5411  0.9656  1.5439
 4558TIP3    H237870   3.509   3.238   9.148 -1.6786  2.5907  0.2599
 4559TIP3   OH237871   7.492   2.335  11.239  0.0725 -0.2435 -0.0984
 4559TIP3    H137872   7.398   2.328  11.224  0.0115  0.7500 -0.2710
 4559TIP3    H237873   7.518   2.249  11.270 -0.6382 -0.9757 -1.4258
 4560TIP3   OH237874   5.024   0.128  11.093 -0.5876 -0.9475 -0.2921
 4560TIP3    H137875   5.033   0.215  11.130  0.3425 -1.2009  0.0932
 4560TIP3    H237876   5.109   0.108  11.056 -0.7618 -1.7331 -0.2893
 4561TIP3   OH237877   1.742   0.563   8.626 -0.1826 -0.1794  0.0339
 4561TIP3    H137878   1.658   0.517   8.628 -0.1128 -0.3094 -0.0078
 4561TIP3    H237879   1.742   0.608   8.541  0.2131 -0.9841 -0.4111
 4562TIP3   OH237880   2.172   0.934   9.681  0.3049  0.2880 -0.5329
 4562TIP3    H137881   2.100   0.898   9.629 -0.4949  0.8763  0.1403
 4562TIP3    H237882   2.245   0.875   9.666  0.0137  0.2922 -2.1071
 4563TIP3   OH237883   2.076   1.768  10.119 -0.0876 -0.1495 -0.1288
 4563TIP3    H137884   2.165   1.802  10.115  0.5781 -1.1976  2.7752
 4563TIP3    H237885   2.025   1.838  10.159  0.2195 -0.7175  1.3206
 4564TIP3   OH237886   2.008   3.344   9.969  0.6506  0.3615 -0.3715
 4564TIP3    H137887   2.050   3.311  10.049  2.5721 -0.9262 -1.8129
 4564TIP3    H237888   2.071   3.325   9.900 -1.1318  1.0428 -2.2755
 4565TIP3   OH237889   6.755   2.153  10.082  0.0385 -0.0582  0.1622
 4565TIP3    H137890   6.843   2.138  10.049 -0.0049  0.3432 -0.1455
 4565TIP3    H237891   6.749   2.098  10.160  0.7445  0.3154  0.4879
 4566TIP3   OH237892   2.720   4.513  11.097  0.3974 -0.0306  0.2277
 4566TIP3    H137893   2.683   4.480  11.179  0.8337  0.1747  0.5106
 4566TIP3    H237894   2.671   4.593  11.079 -3.0375 -2.3945 -2.2083
 4567TIP3   OH237895   4.424   3.223  10.553  0.4408  0.7678  0.0411
 4567TIP3    H137896   4.440   3.137  10.593 -1.4455  0.5403  0.4068
 4567TIP3    H237897   4.341   3.212  10.506  0.8409  2.0374 -0.9923
 4568TIP3   OH237898   2.572   7.565   8.044 -0.0938  0.0654  0.1698
 4568TIP3    H137899   2.627   7.508   7.990  0.0312 -1.0239  1.3956
 4568TIP3    H237900   2.503   7.507   8.078 -0.0210  0.6466  1.3662
 4569TIP3   OH237901   1.998   5.113  10.273  0.0319 -0.1359 -0.9953
 4569TIP3    H137902   2.070   5.164  10.309 -0.1626 -0.4923 -0.0655
 4569TIP3    H237903   1.920   5.165  10.292  0.0550  0.4502 -2.3656
 4570TIP3   OH237904   3.010   4.861  10.158 -0.1266  0.4507 -0.2195
 4570TIP3    H137905   3.061   4.894  10.232 -2.0033 -0.2392  1.4883
 4570TIP3    H237906   2.926   4.905  10.166 -0.8156 -0.6570 -1.1613
 4571TIP3   OH237907   7.269   5.354  10.740 -0.1449  0.3368  0.4905
 4571TIP3    H137908   7.209   5.426  10.758  0.1427  1.0238 -1.1064
 4571TIP3    H237909   7.221   5.275  10.767 -0.5814  1.0769  1.9812
 4572TIP3   OH237910   2.839   3.813  10.586  0.0584  0.3896 -0.7496
 4572TIP3    H137911   2.913   3.754  10.576 -1.0102 -0.9946 -0.8270
 4572TIP3    H237912   2.799   3.787  10.669  0.0056  1.5347 -0.4033
 4573TIP3   OH237913   3.319   7.501   9.200 -0.2393 -0.0710 -0.4114
 4573TIP3    H137914   3.307   7.450   9.280 -0.8166 -0.1627 -0.5531
 4573TIP3    H237915   3.390   7.562   9.220 -0.9486  0.4890  0.4532
 4574TIP3   OH237916   4.554   5.810   9.821  0.0008  0.1061  0.0151
 4574TIP3    H137917   4.483   5.755   9.853  0.7921  0.0711  1.8832
 4574TIP3    H237918   4.531   5.830   9.731 -0.6326 -2.7673 -0.5607
 4575TIP3   OH237919   3.715   2.736   9.035  0.2387 -0.1117 -0.0168
 4575TIP3    H137920   3.729   2.813   9.089 -1.5817  1.1290 -1.1752
 4575TIP3    H237921   3.621   2.719   9.042 -0.3876  0.8742 -3.6059
 4576TIP3   OH237922   4.503   6.875  10.470  0.6040  0.1224 -0.2983
 4576TIP3    H137923   4.552   6.944  10.425  1.9102  0.8215  2.0200
 4576TIP3    H237924   4.521   6.796  10.419  1.9077  0.8762 -1.0667
 4577TIP3   OH237925   2.914   1.536   9.551 -0.5990 -0.5930  0.4982
 4577TIP3    H137926   2.829   1.534   9.508 -0.2030 -0.7520 -0.2990
 4577TIP3    H237927   2.924   1.627   9.579 -0.9513 -0.5351  0.4396
 4578TIP3   OH237928   4.882   0.303  10.005  0.1640  0.6265 -0.2201
 4578TIP3    H137929   4.858   0.252  10.083 -0.7161 -0.2054 -1.0025
 4578TIP3    H237930   4.976   0.287   9.995  0.5659  1.7370  1.3469
 4579TIP3   OH237931   1.402   6.578  10.875 -0.5772  0.2373 -0.2293
 4579TIP3    H137932   1.404   6.574  10.779 -1.6091  0.3581 -0.2671
 4579TIP3    H237933   1.312   6.603  10.896 -1.4055 -3.2711  0.9238
 4580TIP3   OH237934   1.377   0.753  11.022 -0.2357 -0.0200 -0.0338
 4580TIP3    H137935   1.363   0.664  11.052 -1.8359  0.5000  0.8750
 4580TIP3    H237936   1.472   0.766  11.027  0.0054 -1.6037 -0.0624
 4581TIP3   OH237937   2.485   5.977   9.950  0.3082 -0.5713  0.0340
 4581TIP3    H137938   2.403   6.021   9.929 -0.1834 -1.8363 -0.7980
 4581TIP3    H237939   2.489   5.902   9.890  2.4144 -0.1457 -0.4398
 4582TIP3   OH237940   0.712   3.897  10.944  0.0493  0.6966  0.2844
 4582TIP3    H137941   0.626   3.933  10.966 -0.6617 -1.1567  0.6765
 4582TIP3    H237942   0.695   3.836  10.872  1.4014  1.9195 -1.1775
 4583TIP3   OH237943   0.195   3.691  10.041 -0.3459 -0.4877 -0.0883
 4583TIP3    H137944   0.278   3.646  10.049 -0.9262 -1.3658  1.3755
 4583TIP3    H237945   0.134   3.639  10.093 -1.6370  0.5587 -0.4910
 4584TIP3   OH237946   3.307   7.572  10.006 -0.0217 -0.0141 -0.0415
 4584TIP3    H137947   3.280   7.548  10.094 -1.3733  1.5447  0.0303
 4584TIP3    H237948   3.281   7.664   9.997  2.4262  0.6359 -1.1834
 4585TIP3   OH237949   2.525   5.888  10.217  0.2060 -0.7708 -0.2255
 4585TIP3    H137950   2.514   5.904  10.123 -1.6079  1.1076  0.2270
 4585TIP3    H237951   2.618   5.903  10.232  0.2469  0.5982 -1.4844
 4586TIP3   OH237952   3.385   2.272   8.698 -0.5056 -0.3379 -0.3981
 4586TIP3    H137953   3.416   2.216   8.626 -0.3779 -0.7743 -0.0103
 4586TIP3    H237954   3.306   2.313   8.664 -0.5116 -0.6326 -0.7451
 4587TIP3   OH237955   3.397   1.498   9.447 -0.4582 -0.1583 -0.1151
 4587TIP3    H137956   3.463   1.520   9.381 -0.1382  0.4347  0.3853
 4587TIP3    H237957   3.448   1.469   9.523 -0.8416 -1.5559 -0.3654
 4588TIP3   OH237958   2.633   3.593  10.332  0.0249 -0.1107  0.0881
 4588TIP3    H137959   2.646   3.680  10.296  1.4184 -0.4314 -0.2679
 4588TIP3    H237960   2.540   3.575  10.322 -0.4402  1.6360  0.8933
 4589TIP3   OH237961   5.680   7.354  10.717 -0.2132  0.3984 -0.1762
 4589TIP3    H137962   5.619   7.352  10.791  0.3232 -0.3258  0.2594
 4589TIP3    H237963   5.731   7.274  10.726 -0.9038 -0.3095 -2.0028
 4590TIP3   OH237964   4.687   2.153   9.569  0.2297 -0.3596  0.3660
 4590TIP3    H137965   4.637   2.121   9.644 -0.7481 -0.3242 -0.2605
 4590TIP3    H237966   4.777   2.163   9.603  0.0581 -1.4897  1.1984
 4591TIP3   OH237967   7.410   5.364  10.507  0.1198 -0.5676  0.0710
 4591TIP3    H137968   7.502   5.361  10.533  0.7121  2.0271 -1.3263
 4591TIP3    H237969   7.363   5.382  10.588  1.0587 -0.1515  0.5469
 4592TIP3   OH237970   7.653   5.498   9.415 -0.4132 -0.1573  0.2032
 4592TIP3    H137971   7.664   5.403   9.418 -3.7065 -0.7080 -1.3976
 4592TIP3    H237972   7.573   5.515   9.464  0.8352  2.0259  1.6395
 4593TIP3   OH237973   0.439   2.799   8.324 -0.0574  0.0477  0.3944
 4593TIP3    H137974   0.508   2.779   8.260 -1.3643 -1.6566 -0.5508
 4593TIP3    H237975   0.454   2.739   8.396  0.2973  0.6896  0.8690
 4594TIP3   OH237976   6.326   5.236   8.224 -0.1647  0.0401 -0.0747
 4594TIP3    H137977   6.267   5.168   8.255  0.7754 -0.2543  1.1420
 4594TIP3    H237978   6.310   5.310   8.282  0.0155  0.2697 -0.3147
 4595TIP3   OH237979   5.250   0.115  10.914 -0.4337 -0.0980 -1.2535
 4595TIP3    H137980   5.332   0.106  10.963 -0.8854 -0.5595 -0.5775
 4595TIP3    H237981   5.273   0.088  10.825 -0.2776 -2.0601 -0.6539
 4596TIP3   OH237982   4.996   5.034  10.080 -0.6410 -0.0884 -0.0826
 4596TIP3    H137983   5.065   4.995  10.133  1.5795  2.6786 -0.7243
 4596TIP3    H237984   4.980   4.969  10.011 -1.0292 -2.1451  1.8214
 4597TIP3   OH237985   6.966   0.516   9.298 -0.0016  0.2638 -0.3200
 4597TIP3    H137986   7.030   0.485   9.361  0.4289  0.2544 -0.7568
 4597TIP3    H237987   6.971   0.611   9.304  0.6301  0.2810 -0.9100
 4598TIP3   OH237988   2.621   6.715   9.492  0.1767  0.0899 -0.0556
 4598TIP3    H137989   2.582   6.778   9.553  0.0573  0.4535 -0.5059
 4598TIP3    H237990   2.547   6.665   9.458  0.2288 -0.0051 -0.0323
 4599TIP3   OH237991   5.219   6.245  10.020  0.6895 -0.5605 -0.2237
 4599TIP3    H137992   5.228   6.265   9.927  0.0971  3.3345  0.3943
 4599TIP3    H237993   5.127   6.218  10.030 -0.9498  4.1957 -0.2206
 4600TIP3   OH237994   6.469   1.532   8.499  0.5003  0.1336  0.7317
 4600TIP3    H137995   6.398   1.490   8.452  0.2438  1.0583  0.2672
 4600TIP3    H237996   6.548   1.506   8.452  0.1815  1.7592 -0.8010
 4601TIP3   OH237997   7.454   3.968   8.404 -0.0067 -0.0459  0.5093
 4601TIP3    H137998   7.439   4.021   8.326 -0.4151 -1.4991 -0.4503
 4601TIP3    H237999   7.535   3.921   8.386  1.2240  1.3929  2.0355
 4602TIP3   OH238000   5.466   6.408  10.626 -0.0527 -0.0625  0.4047
 4602TIP3    H138001   5.560   6.395  10.613 -0.3789 -1.3881 -0.9180
 4602TIP3    H238002   5.458   6.501  10.648  1.4495  0.4277 -0.8558
 4603TIP3   OH238003   3.507   5.512  10.909 -0.0529  0.4900  0.4637
 4603TIP3    H138004   3.567   5.449  10.949 -0.2902 -0.2591 -0.3368
 4603TIP3    H238005   3.560   5.591  10.898  0.3730  0.2967  1.0751
 4604TIP3   OH238006   0.687   7.044  10.515  0.1172  0.0817 -0.4910
 4604TIP3    H138007   0.622   7.067  10.449 -0.1188 -2.7418 -1.3640
 4604TIP3    H238008   0.769   7.034  10.466  1.2937  3.3601  0.5597
 4605TIP3   OH238009   1.722   3.991   9.955  0.7795 -0.1093  0.0361
 4605TIP3    H138010   1.640   3.945   9.936 -0.8421  1.5534  2.4572
 4605TIP3    H238011   1.732   3.984  10.050  0.9303  3.6245  0.4199
 4606TIP3   OH238012   0.803   3.142   9.264  0.3023 -0.7642  0.0916
 4606TIP3    H138013   0.856   3.213   9.301  0.6701 -1.0799  0.1826
 4606TIP3    H238014   0.783   3.171   9.175 -1.5448  0.5188  0.8717
 4607TIP3   OH238015   4.576   7.000   8.810  0.1510 -0.5434  0.2984
 4607TIP3    H138016   4.493   7.042   8.833  0.3907 -1.1338  2.5735
 4607TIP3    H238017   4.552   6.936   8.743 -0.8409  0.7206 -0.5959
 4608TIP3   OH238018   6.371   0.633   9.532  0.5526  0.0587 -0.2977
 4608TIP3    H138019   6.282   0.609   9.557  0.1397  1.0164 -0.8116
 4608TIP3    H238020   6.376   0.727   9.550  1.4838  0.0002 -0.2161
 4609TIP3   OH238021   2.598   1.944   9.973  0.3070 -0.1483  0.1695
 4609TIP3    H138022   2.619   1.852   9.958  0.9475 -0.0991  0.7106
 4609TIP3    H238023   2.677   1.991   9.948  0.5933  0.1113  1.4896
 4610TIP3   OH238024   2.580   2.274  10.654  0.4583 -0.1831  0.2133
 4610TIP3    H138025   2.498   2.292  10.609 -0.7156 -3.4058  0.8536
 4610TIP3    H238026   2.585   2.179  10.660  5.0483 -0.2648 -1.1558
 4611TIP3   OH238027   1.430   5.118   9.307  0.1574 -0.0689  0.4765
 4611TIP3    H138028   1.358   5.066   9.342 -0.5103  1.2701  1.1581
 4611TIP3    H238029   1.420   5.112   9.212  0.3668 -1.5295  0.5346
 4612TIP3   OH238030   2.359   6.921   9.933  0.4181 -0.0716  0.3947
 4612TIP3    H138031   2.373   6.933   9.839 -0.1951 -0.4435  0.2495
 4612TIP3    H238032   2.354   6.826   9.944 -0.4494  0.0030  0.6588
 4613TIP3   OH238033   5.529   1.012   9.551 -0.0509  0.2979  0.0701
 4613TIP3    H138034   5.469   0.991   9.479 -1.4471 -0.7138  1.4604
 4613TIP3    H238035   5.523   1.107   9.560 -0.1641  0.3888 -0.8826
 4614TIP3   OH238036   1.536   5.113  10.777 -0.2111  0.1551 -0.4506
 4614TIP3    H138037   1.444   5.086  10.773  0.0980 -0.9002 -0.8499
 4614TIP3    H238038   1.570   5.094  10.689  0.5890 -0.2352 -0.0625
 4615TIP3   OH238039   6.837   2.123  10.475  0.9804  0.2515 -0.0195
 4615TIP3    H138040   6.921   2.096  10.439  0.8298 -0.3303  0.0587
 4615TIP3    H238041   6.802   2.045  10.518  0.4977  0.5438  0.1357
 4616TIP3   OH238042   6.393   0.544  10.537  0.0388 -0.1737  0.5507
 4616TIP3    H138043   6.379   0.494  10.617 -1.5572 -1.3844 -0.4214
 4616TIP3    H238044   6.437   0.624  10.566  3.2481 -2.2849  2.0963
 4617TIP3   OH238045   3.931   4.753  10.434  0.3621 -0.1544  0.0152
 4617TIP3    H138046   3.916   4.676  10.488  0.8494  1.2487  2.3012
 4617TIP3    H238047   3.845   4.776  10.399 -0.3475 -0.0962  1.7144
 4618TIP3   OH238048   5.086   7.508  10.538 -0.2176 -0.2102 -0.0854
 4618TIP3    H138049   5.081   7.423  10.493  0.3877 -0.1544 -0.2657
 4618TIP3    H238050   5.068   7.488  10.629  0.7016 -0.6659  0.0099
 4619TIP3   OH238051   5.817   3.970   8.854 -0.7577  0.1275 -0.5370
 4619TIP3    H138052   5.767   3.961   8.935  0.6253  0.1809  0.3656
 4619TIP3    H238053   5.872   3.892   8.852 -1.9953 -0.7714 -2.3619
 4620TIP3   OH238054   5.148   4.423  10.327  0.2749  0.9228 -0.2905
 4620TIP3    H138055   5.108   4.508  10.345  0.3404  1.4036 -2.1914
 4620TIP3    H238056   5.098   4.361  10.379  0.5313  2.1643  1.5197
 4621TIP3   OH238057   2.585   3.827   9.774 -0.4659 -0.3983 -0.1896
 4621TIP3    H138058   2.561   3.864   9.859 -1.4357  0.4422 -0.8135
 4621TIP3    H238059   2.638   3.750   9.796 -0.7072 -0.2036  1.1702
 4622TIP3   OH238060   2.314   3.097   9.059 -0.1856  0.2900 -0.2071
 4622TIP3    H138061   2.228   3.068   9.090  0.2688 -0.4828  0.3432
 4622TIP3    H238062   2.294   3.160   8.989 -1.1998  0.6225  0.3667
 4623TIP3   OH238063   5.062   2.502  11.159  0.2597  0.6914 -0.1463
 4623TIP3    H138064   5.091   2.555  11.085  0.2862 -2.3319 -2.5215
 4623TIP3    H238065   4.967   2.513  11.162  0.1505  0.1592 -1.2722
 4624TIP3   OH238066   2.674   0.885   9.732 -0.2937 -0.0039  0.2990
 4624TIP3    H138067   2.762   0.911   9.705  0.4153 -0.6760  1.8107
 4624TIP3    H238068   2.633   0.966   9.761  0.4066  0.1025  1.0452
 4625TIP3   OH238069   2.620   6.096  10.660 -0.4737  0.2114 -0.4279
 4625TIP3    H138070   2.646   6.011  10.625 -0.9345 -0.0802 -0.0596
 4625TIP3    H238071   2.605   6.081  10.753 -1.1043  0.5706 -0.4709
 4626TIP3   OH238072   2.395   4.889  10.318 -0.3869 -0.3206  0.2018
 4626TIP3    H138073   2.321   4.888  10.257  0.5201 -0.8673 -0.9536
 4626TIP3    H238074   2.465   4.845  10.270  0.5511 -0.2258  1.4375
 4627TIP3   OH238075   2.753   3.785   8.867 -0.4526  0.1351  0.2939
 4627TIP3    H138076   2.819   3.854   8.876  0.4320 -0.5998 -0.4225
 4627TIP3    H238077   2.720   3.795   8.778 -0.8148  0.0446  0.4145
 4628TIP3   OH238078   6.002   1.001   9.948  0.3005 -0.5648 -0.2553
 4628TIP3    H138079   5.975   1.075  10.003 -0.8045 -0.0910 -1.4049
 4628TIP3    H238080   5.920   0.963   9.917  0.9038 -0.9579 -1.3995
 4629TIP3   OH238081   5.702   2.264  10.130  0.2732  0.1406 -0.1695
 4629TIP3    H138082   5.700   2.233  10.220 -1.0438 -0.1661 -0.2979
 4629TIP3    H238083   5.692   2.359  10.137 -0.1361  0.0842 -0.0169
 4630TIP3   OH238084   4.031   5.052  10.751  0.2041 -0.0886  0.8370
 4630TIP3    H138085   4.112   5.062  10.801 -0.0301  1.4903  0.9674
 4630TIP3    H238086   4.048   5.098  10.669 -0.1542 -0.8055  0.3481
 4631TIP3   OH238087   3.171   6.084  11.191  0.3634 -0.2795 -0.1631
 4631TIP3    H138088   3.212   5.999  11.201  1.5165  0.1253 -1.1679
 4631TIP3    H238089   3.101   6.070  11.127  0.3419 -0.5219 -0.0883
 4632TIP3   OH238090   3.276   2.540  10.865 -0.2185  0.4422  0.1740
 4632TIP3    H138091   3.331   2.470  10.901 -2.3873 -1.7933 -0.5645
 4632TIP3    H238092   3.199   2.541  10.921  0.8136  4.2461  1.8566
 4633TIP3   OH238093   5.336   6.638   9.479 -0.2371  0.0632  0.2526
 4633TIP3    H138094   5.403   6.683   9.428  0.1966 -0.4664  0.3436
 4633TIP3    H238095   5.253   6.665   9.439  0.0985 -0.5270 -0.8954
 4634TIP3   OH238096   4.915   7.056   9.820  0.6432  0.2490 -0.2904
 4634TIP3    H138097   4.942   7.148   9.822 -0.3911  0.5992 -1.6677
 4634TIP3    H238098   4.973   7.016   9.756  0.1107  0.2704 -0.7869
 4635TIP3   OH238099   5.188   3.801   9.881  0.2529 -0.4554 -0.0632
 4635TIP3    H138100   5.246   3.726   9.869 -0.5761 -0.9741 -0.9844
 4635TIP3    H238101   5.132   3.800   9.804  0.5502  1.4194 -0.3362
 4636TIP3   OH238102   2.140   3.647  10.821 -0.0536  0.1494  0.3359
 4636TIP3    H138103   2.048   3.671  10.810 -0.2185 -0.6282 -0.0468
 4636TIP3    H238104   2.157   3.586  10.750  0.7514  0.2516  0.4357
 4637TIP3   OH238105   7.358   1.066  11.005  0.0096  0.2966 -0.1443
 4637TIP3    H138106   7.383   1.137  10.945  2.5284  0.0495  0.5181
 4637TIP3    H238107   7.428   1.064  11.070 -0.0282 -2.7488 -0.0867
 4638TIP3   OH238108   4.516   1.880   8.966 -0.5806 -0.3129  0.2180
 4638TIP3    H138109   4.473   1.953   9.010  0.3106 -1.3806  3.0415
 4638TIP3    H238110   4.474   1.802   9.001  1.7377 -1.2937  1.0156
 4639TIP3   OH238111   5.378   2.158   9.355 -0.1683 -0.4118  0.0499
 4639TIP3    H138112   5.374   2.101   9.432  1.6140  1.0377  1.2952
 4639TIP3    H238113   5.293   2.203   9.355 -0.1752 -0.3943  1.2002
 4640TIP3   OH238114   3.355   7.534   8.876 -0.3885 -0.2844 -0.4108
 4640TIP3    H138115   3.263   7.546   8.850 -0.5798 -1.2183 -0.1926
 4640TIP3    H238116   3.402   7.522   8.794 -0.5718 -0.5047 -0.4850
 4641TIP3   OH238117   4.887   5.616   9.541 -0.0545 -0.1559  1.0018
 4641TIP3    H138118   4.914   5.608   9.632  1.2107  0.5297  0.7175
 4641TIP3    H238119   4.838   5.698   9.537 -2.5741 -1.5389  1.5743
 4642TIP3   OH238120   2.002   2.054  10.935  0.0631 -0.4089  0.7773
 4642TIP3    H138121   1.953   2.106  10.999 -0.1402 -0.4892  0.6889
 4642TIP3    H238122   2.006   2.111  10.857  2.3688  0.6832  1.6061
 4643TIP3   OH238123   2.224   6.299  10.648  0.0914 -0.1286  0.0724
 4643TIP3    H138124   2.192   6.225  10.699  2.6933 -1.1906  0.3429
 4643TIP3    H238125   2.249   6.261  10.564  0.5267  0.6193 -0.1463
 4644TIP3   OH238126   1.622   4.915  10.542 -0.1942 -0.3470 -0.3051
 4644TIP3    H138127   1.665   4.972  10.478  0.3854  2.0445  2.0385
 4644TIP3    H238128   1.695   4.878  10.592 -0.6630 -1.7291 -0.6111
 4645TIP3   OH238129   1.592   1.827   9.384 -0.3375 -0.4241  0.1394
 4645TIP3    H138130   1.629   1.749   9.425  0.2908  0.5083  1.3986
 4645TIP3    H238131   1.631   1.829   9.297  0.6874 -0.7923  0.5744
 4646TIP3   OH238132   0.245   4.213  10.539 -0.6426 -0.2864  0.7751
 4646TIP3    H138133   0.284   4.242  10.457  1.5774  2.0906  2.4960
 4646TIP3    H238134   0.254   4.117  10.538 -1.0105 -0.3529 -1.8290
 4647TIP3   OH238135   4.137   1.172  10.419 -0.1470 -0.7411 -0.1346
 4647TIP3    H138136   4.075   1.128  10.361  0.9293 -1.2480 -0.9493
 4647TIP3    H238137   4.188   1.102  10.458 -0.3951 -0.3559  0.8930
 4648TIP3   OH238138   6.079   7.342   9.040 -0.1481  0.7954 -0.3566
 4648TIP3    H138139   6.104   7.341   8.948 -3.2695  2.8147 -1.3879
 4648TIP3    H238140   6.142   7.402   9.081  1.3743 -0.2462 -1.0568
 4649TIP3   OH238141   6.562   0.620  10.206 -0.2509 -0.7404  0.3790
 4649TIP3    H138142   6.532   0.558  10.139 -0.2797  0.3096 -0.6004
 4649TIP3    H238143   6.566   0.568  10.286 -2.1832 -1.5362  0.0045
 4650TIP3   OH238144   3.046   5.479   9.489  0.3609 -0.2855 -0.1788
 4650TIP3    H138145   3.036   5.462   9.583 -1.2184 -0.7744 -0.4055
 4650TIP3    H238146   3.080   5.396   9.454  1.8421  0.1828  0.0525
 4651TIP3   OH238147   2.551   0.598  10.003 -0.1926  0.1851  0.0309
 4651TIP3    H138148   2.507   0.539  10.063  0.7247  0.7783  1.3276
 4651TIP3    H238149   2.644   0.578  10.014 -0.0359 -0.9407 -2.5173
 4652TIP3   OH238150   6.685   4.248   9.908  0.5100  0.4989  0.7888
 4652TIP3    H138151   6.595   4.244   9.940  0.4001 -0.2149  0.3934
 4652TIP3    H238152   6.736   4.199   9.972  0.3591 -0.5331  0.1363
 4653TIP3   OH238153   3.211   1.236   8.580 -0.1328  0.3232  0.1691
 4653TIP3    H138154   3.131   1.184   8.580 -0.3459  0.6440  0.6934
 4653TIP3    H238155   3.267   1.194   8.645 -0.5839  1.1494  1.1237
 4654TIP3   OH238156   0.994   1.200   8.898  0.2784  0.6297  0.5655
 4654TIP3    H138157   0.957   1.161   8.818  0.4944 -0.4094  0.9463
 4654TIP3    H238158   1.088   1.207   8.879  0.9953 -3.0477  1.9548
 4655TIP3   OH238159   1.666   7.022  10.162 -0.0227  0.3045  0.0524
 4655TIP3    H138160   1.586   7.050  10.117 -0.9005 -1.1005  0.6531
 4655TIP3    H238161   1.634   6.976  10.239  1.2775 -2.1073 -0.7473
 4656TIP3   OH238162   2.687   2.979  10.154  0.3533  0.0101  0.1655
 4656TIP3    H138163   2.772   2.946  10.183  0.3380 -0.3979 -0.2600
 4656TIP3    H238164   2.656   2.916  10.090 -1.5707 -1.4092  2.3036
 4657TIP3   OH238165   1.273   2.348   8.305 -0.0954  0.0702 -0.0359
 4657TIP3    H138166   1.273   2.376   8.214  0.9274  1.5863  0.3908
 4657TIP3    H238167   1.220   2.268   8.306 -0.2458  0.1112 -1.9154
 4658TIP3   OH238168   2.656   4.234  10.364 -0.3553  0.3067 -0.2990
 4658TIP3    H138169   2.679   4.324  10.385 -0.9764  0.4582 -0.2498
 4658TIP3    H238170   2.619   4.199  10.446  1.5014 -0.5452  0.2230
 4659TIP3   OH238171   4.890   4.744   9.993 -0.2636  0.0458 -0.2935
 4659TIP3    H138172   4.822   4.770  10.055  0.2962 -0.8718  0.7383
 4659TIP3    H238173   4.958   4.703  10.047  0.2762 -0.7181 -1.5051
 4660TIP3   OH238174   2.613   3.108  10.914  0.6310 -0.6097 -0.1772
 4660TIP3    H138175   2.594   3.197  10.943 -0.3386 -0.9927  0.3977
 4660TIP3    H238176   2.689   3.081  10.967  3.4810  1.1698 -2.9615
 4661TIP3   OH238177   3.108   5.634   9.908  0.7850  0.1519 -0.4590
 4661TIP3    H138178   3.167   5.698   9.870  2.0393 -1.4274 -1.2869
 4661TIP3    H238179   3.164   5.579   9.962 -0.0910 -0.8172 -0.5016
 4662TIP3   OH238180   3.170   1.628  10.264  0.5300  0.0542 -0.0498
 4662TIP3    H138181   3.121   1.588  10.335  0.7837  0.5530  0.4205
 4662TIP3    H238182   3.105   1.644  10.195  0.6924 -2.5820 -0.9279
 4663TIP3   OH238183   3.472   1.942   8.943 -0.2019  0.6365 -0.5118
 4663TIP3    H138184   3.425   1.988   9.013 -1.2361 -1.5420  0.3409
 4663TIP3    H238185   3.558   1.982   8.941 -0.9503  2.3874  0.3456
 4664TIP3   OH238186   6.933   5.279  10.495  0.2224 -0.2169  0.3662
 4664TIP3    H138187   6.884   5.327  10.429  0.1763 -1.3326 -0.4215
 4664TIP3    H238188   7.024   5.287  10.468  0.1455 -1.2502 -0.2263
 4665TIP3   OH238189   4.208   4.513  10.669 -0.0739 -0.1413 -0.5862
 4665TIP3    H138190   4.292   4.472  10.649  0.0937  0.1597 -0.4942
 4665TIP3    H238191   4.226   4.607  10.668 -0.3042 -0.0926 -0.0828
 4666TIP3   OH238192   1.007   2.618  10.125 -0.1549  0.3144  0.0280
 4666TIP3    H138193   0.952   2.627  10.202  0.9453  0.2186  0.8393
 4666TIP3    H238194   1.042   2.706  10.110 -2.7207  1.1226 -2.2398
 4667TIP3   OH238195   5.567   1.459  10.548 -0.1375 -0.2819  0.4610
 4667TIP3    H138196   5.644   1.506  10.514 -1.0113  0.8847  0.0354
 4667TIP3    H238197   5.493   1.502  10.506 -1.0556 -1.1055  1.2088
 4668TIP3   OH238198   1.617   0.183   9.127 -0.0855  0.1845  0.7154
 4668TIP3    H138199   1.673   0.113   9.160  1.2007  0.6810 -0.3114
 4668TIP3    H238200   1.529   0.144   9.123  0.5781 -1.3370  0.2815
 4669TIP3   OH238201   1.484   6.213  10.352  0.4041 -0.2219 -0.0665
 4669TIP3    H138202   1.561   6.158  10.335  0.5960  0.0081  0.0440
 4669TIP3    H238203   1.489   6.232  10.446  0.3887  0.0592 -0.1224
 4670TIP3   OH238204   6.566   0.473   9.967  0.4802 -0.2452 -0.1315
 4670TIP3    H138205   6.563   0.558   9.923  2.2576  0.1284  0.3980
 4670TIP3    H238206   6.478   0.437   9.955 -0.1664  1.4487 -0.7797
 4671TIP3   OH238207   6.604   0.529   9.455 -0.1213 -0.4607  0.2669
 4671TIP3    H138208   6.650   0.613   9.464 -0.2463 -0.6500  3.9138
 4671TIP3    H238209   6.513   0.549   9.478 -0.8414 -1.1184 -1.7570
 4672TIP3   OH238210   5.235   2.134   9.017 -0.1616 -0.3073 -0.3345
 4672TIP3    H138211   5.199   2.204   8.962 -0.0979  1.9420  2.2649
 4672TIP3    H238212   5.312   2.173   9.059  1.1284 -2.6690 -0.3158
 4673TIP3   OH238213   0.983   3.910   9.596  0.1699 -0.6174 -0.9804
 4673TIP3    H138214   1.072   3.927   9.627  0.2932 -0.1249 -1.6060
 4673TIP3    H238215   0.965   3.820   9.625 -0.2908  0.2757  1.8428
 4674TIP3   OH238216   1.397   1.238   8.373 -0.3990 -0.0419  0.2971
 4674TIP3    H138217   1.372   1.324   8.338  0.0614 -0.5516 -1.3983
 4674TIP3    H238218   1.316   1.186   8.368 -0.3208 -0.1305 -0.1001
 4675TIP3   OH238219   1.173   0.599   8.349  0.7233 -0.5191  0.1980
 4675TIP3    H138220   1.099   0.548   8.382  0.3933 -0.3176 -0.2311
 4675TIP3    H238221   1.232   0.606   8.425  0.5603 -1.1387  0.3925
 4676TIP3   OH238222   0.983   3.214  10.523  0.0803 -0.4990 -0.0092
 4676TIP3    H138223   0.961   3.237  10.432 -0.1090 -2.4777 -0.5043
 4676TIP3    H238224   1.074   3.242  10.533  0.3580 -0.9757 -1.0832
 4677TIP3   OH238225   4.258   3.980   9.893  0.4221 -0.4846 -0.2672
 4677TIP3    H138226   4.286   3.945   9.808  0.3651 -0.3293 -0.3508
 4677TIP3    H238227   4.293   3.919   9.957  0.0397 -0.8839 -0.4292
 4678TIP3   OH238228   3.573   7.073  10.344  0.1572  0.1370 -0.0925
 4678TIP3    H138229   3.625   7.021  10.283 -0.0701 -0.4796  0.2249
 4678TIP3    H238230   3.510   7.119  10.289 -1.4193 -1.9986 -0.2033
 4679TIP3   OH238231   7.513   4.173   9.664 -0.1115 -0.1701 -0.2438
 4679TIP3    H138232   7.552   4.101   9.715 -1.6860 -0.3103  0.8385
 4679TIP3    H238233   7.588   4.222   9.631  1.0063 -1.8246 -0.3225
 4680TIP3   OH238234   4.489   4.906  10.900  0.7132 -0.6505  0.2196
 4680TIP3    H138235   4.554   4.976  10.898  0.5627 -0.4338  1.9649
 4680TIP3    H238236   4.495   4.869  10.987 -2.6530  0.5353  1.1174
 4681TIP3   OH238237   6.054   0.983   9.528 -0.1124 -0.1142  0.0384
 4681TIP3    H138238   6.108   1.028   9.462 -1.9854  1.5072 -0.4700
 4681TIP3    H238239   5.966   0.983   9.491 -0.7472 -1.4734  1.4516
 4682TIP3   OH238240   5.043   5.315   9.935  0.6672 -0.2580  0.6617
 4682TIP3    H138241   4.991   5.236   9.922 -1.3606  1.1418 -0.3237
 4682TIP3    H238242   5.031   5.337  10.027  0.4844 -0.6006  0.7222
 4683TIP3   OH238243   1.896   2.409   9.689 -0.2961  0.1981  0.7298
 4683TIP3    H138244   1.884   2.473   9.759 -2.0714 -1.6456  2.2168
 4683TIP3    H238245   1.991   2.395   9.686 -0.0417  1.5672  1.5690
 4684TIP3   OH238246   0.911   2.519   9.899  0.1470  0.2551 -0.1338
 4684TIP3    H138247   0.954   2.556   9.976 -1.5690  0.7489  0.6425
 4684TIP3    H238248   0.921   2.424   9.908 -0.3409  0.2899  0.9164
 4685TIP3   OH238249   5.777   5.151   9.775 -0.0184 -0.7988 -0.4934
 4685TIP3    H138250   5.725   5.137   9.696 -0.2378 -0.9620 -0.3202
 4685TIP3    H238251   5.800   5.063   9.806  1.5812 -0.7349 -1.3603
 4686TIP3   OH238252   6.860   0.679  10.775 -0.1818  0.4393  0.4165
 4686TIP3    H138253   6.908   0.761  10.785  1.1601 -0.5174  3.0190
 4686TIP3    H238254   6.845   0.650  10.865  0.4657 -2.7207 -0.3749
 4687TIP3   OH238255   0.885   1.653   8.399 -0.4370  0.6678  0.3624
 4687TIP3    H138256   0.927   1.736   8.378 -1.2240  1.5792  2.1316
 4687TIP3    H238257   0.937   1.617   8.470  0.2665 -0.7093 -0.8002
 4688TIP3   OH238258   4.632   3.708  10.674  0.3202 -0.4647 -0.1584
 4688TIP3    H138259   4.586   3.625  10.661 -0.3794  0.0342 -1.0103
 4688TIP3    H238260   4.608   3.735  10.763  0.8177 -1.3235  0.2468
 4689TIP3   OH238261   5.219   7.151  10.534  0.6956  0.2563 -0.1873
 4689TIP3    H138262   5.254   7.226  10.486  0.0156  1.4228  1.0546
 4689TIP3    H238263   5.131   7.139  10.500  0.1559  1.1833  0.8277
 4690TIP3   OH238264   5.116   3.507  10.180  0.4571 -0.0929  0.4383
 4690TIP3    H138265   5.041   3.497  10.238  0.8258 -0.9511  0.7913
 4690TIP3    H238266   5.105   3.436  10.115  0.1495  0.7329 -0.4366
 4691TIP3   OH238267   6.356   1.270   9.398 -0.4662 -0.2760  0.1517
 4691TIP3    H138268   6.315   1.346   9.439  0.9582  0.9589 -0.6117
 4691TIP3    H238269   6.418   1.238   9.464  1.7400  1.6393 -0.8450
 4692TIP3   OH238270   2.710   0.680  10.706  0.0448 -0.0149  0.8540
 4692TIP3    H138271   2.648   0.744  10.741  1.2333 -0.1323  3.5028
 4692TIP3    H238272   2.793   0.728  10.701 -0.0298 -0.0661 -1.8660
 4693TIP3   OH238273   5.722   7.034   8.992  0.1150  0.0352 -0.6371
 4693TIP3    H138274   5.671   6.953   8.985  0.3316 -0.0612 -1.1727
 4693TIP3    H238275   5.662   7.104   8.969  0.0566 -0.0200 -0.6520
 4694TIP3   OH238276   5.429   2.523  10.014  0.4586  0.0446 -0.3561
 4694TIP3    H138277   5.383   2.587   9.959  2.3653  1.8373 -0.0329
 4694TIP3    H238278   5.407   2.438   9.976 -0.4179  1.0347 -2.2192
 4695TIP3   OH238279   5.136   2.832   9.256 -0.2469 -0.1336  0.0366
 4695TIP3    H138280   5.210   2.842   9.197  2.2397  0.7489  3.0158
 4695TIP3    H238281   5.078   2.906   9.235  2.0822  1.9872  0.6084
 4696TIP3   OH238282   3.976   5.927  10.453 -0.5365 -0.0908  0.5249
 4696TIP3    H138283   4.011   6.010  10.420 -0.8946  0.4153  1.3802
 4696TIP3    H238284   3.965   5.873  10.376  0.5088  0.3573  0.0410
 4697TIP3   OH238285   5.286   1.077   9.952  0.2560 -0.1359  0.1513
 4697TIP3    H138286   5.349   1.137   9.991  0.5533 -0.0075 -0.5109
 4697TIP3    H238287   5.211   1.080  10.010  0.4204  0.5823  0.3346
 4698TIP3   OH238288   1.780   7.646  10.193 -0.3985  0.2699  0.2778
 4698TIP3    H138289   1.786   7.557  10.158 -2.1351  0.2345 -0.0182
 4698TIP3    H238290   1.733   7.695  10.126  1.3657  1.6944  0.0079
 4699TIP3   OH238291   6.607   3.796   9.747  0.4876  0.0017  0.6286
 4699TIP3    H138292   6.651   3.718   9.780 -0.1127 -1.4696 -1.7724
 4699TIP3    H238293   6.626   3.796   9.653 -2.1443  0.9628  0.0211
 4700TIP3   OH238294   7.116   2.233   9.184  0.0565  0.4459 -0.6235
 4700TIP3    H138295   7.148   2.321   9.207 -0.0707  0.3305  0.0120
 4700TIP3    H238296   7.183   2.174   9.218  0.0168  0.2873 -0.8252
 4701TIP3   OH238297   0.337   1.499  10.353 -0.2361 -0.0180  0.2140
 4701TIP3    H138298   0.277   1.568  10.324  1.7742  2.0171  0.5339
 4701TIP3    H238299   0.421   1.523  10.313  0.9256 -1.3304  1.7378
 4702TIP3   OH238300   0.850   3.714   9.930 -0.0172 -0.4135  0.2911
 4702TIP3    H138301   0.807   3.796   9.904  0.7649  0.7175  2.3395
 4702TIP3    H238302   0.861   3.666   9.848  0.4239  1.9744 -1.1419
 4703TIP3   OH238303   7.644   0.503  11.024 -0.0951  0.4137 -0.4142
 4703TIP3    H138304   7.551   0.494  11.048  0.2001 -0.6285  0.4258
 4703TIP3    H238305   7.684   0.421  11.052  0.7195 -0.0325 -2.6852
 4704TIP3   OH238306   3.356   5.331  10.544 -0.2544  0.1922 -0.0422
 4704TIP3    H138307   3.383   5.284  10.623 -0.6181 -2.9984 -1.6743
 4704TIP3    H238308   3.433   5.330  10.488 -0.3996  1.2746 -0.2893
 4705TIP3   OH238309   5.918   1.529  10.129  0.2186 -0.6644  0.1396
 4705TIP3    H138310   5.892   1.437  10.129  1.3714 -1.0212 -0.7325
 4705TIP3    H238311   5.859   1.570  10.066 -0.8473 -0.6152  1.1389
 4706TIP3   OH238312   4.924   3.149   9.580  0.2083  0.0582  0.3753
 4706TIP3    H138313   4.879   3.188   9.506 -0.8651 -0.5638  0.6748
 4706TIP3    H238314   4.959   3.066   9.546  0.2515  0.0612  0.4115
 4707TIP3   OH238315   4.326   2.989   8.305  0.0748  0.0795 -0.4484
 4707TIP3    H138316   4.395   3.054   8.317 -2.4498  2.4716  2.9935
 4707TIP3    H238317   4.329   2.936   8.384 -1.2217 -0.5608 -0.8049
 4708TIP3   OH238318   2.512   2.175   9.625 -0.4264 -0.1635 -0.0460
 4708TIP3    H138319   2.522   2.084   9.652  0.1892 -0.0135  0.2475
 4708TIP3    H238320   2.505   2.171   9.529 -1.8135 -0.6313  0.0502
 4709TIP3   OH238321   0.970   6.208   9.032 -0.6582 -0.1819  0.8840
 4709TIP3    H138322   1.044   6.197   9.093 -0.0320 -1.7797 -0.1050
 4709TIP3    H238323   1.000   6.275   8.970 -0.5288  0.0542  1.1971
 4710TIP3   OH238324   3.037   3.440   9.742 -0.2639 -0.0582 -0.3996
 4710TIP3    H138325   2.995   3.356   9.723 -2.3991  0.4686  1.4941
 4710TIP3    H238326   3.023   3.491   9.662 -1.1108 -0.7254 -0.7022
 4711TIP3   OH238327   3.656   7.355   8.617 -0.3969  0.1430  0.3092
 4711TIP3    H138328   3.576   7.407   8.624  0.0252  0.8640 -0.0731
 4711TIP3    H238329   3.636   7.273   8.662 -1.6410 -0.0314 -0.5175
 4712TIP3   OH238330   0.982   2.326  10.973  0.0845 -0.3129 -0.0989
 4712TIP3    H138331   1.030   2.337  10.891 -0.9252 -2.6966 -1.1019
 4712TIP3    H238332   0.970   2.415  11.006  1.7992  0.6062 -1.7529
 4713TIP3   OH238333   5.290   2.825  10.759  0.0369  0.1181 -0.0026
 4713TIP3    H138334   5.275   2.765  10.687 -0.5788 -0.1632  0.3524
 4713TIP3    H238335   5.384   2.840  10.759  0.2301 -1.0252  0.0463
 4714TIP3   OH238336   1.491   3.527   9.920 -0.6169  0.7595 -0.9527
 4714TIP3    H138337   1.573   3.498   9.880 -1.2816  0.9089 -2.5174
 4714TIP3    H238338   1.496   3.623   9.917 -1.1272  0.7752 -1.7267
 4715TIP3   OH238339   1.973   0.123   8.617  0.2500 -0.8359  0.1835
 4715TIP3    H138340   2.011   0.060   8.556  0.0570 -0.6667 -0.1162
 4715TIP3    H238341   1.918   0.179   8.562 -0.6415 -1.2413  0.6408
 4716TIP3   OH238342   7.404   4.994   9.180 -0.3392  0.1469  0.1289
 4716TIP3    H138343   7.441   5.013   9.094  1.2834 -0.1620  0.7402
 4716TIP3    H238344   7.407   4.899   9.187 -2.7506 -0.0569 -0.4156
 4717TIP3   OH238345   5.899   6.100   9.971 -0.0373  0.0107 -0.2147
 4717TIP3    H138346   5.986   6.135   9.987  0.4479 -1.5362  0.7996
 4717TIP3    H238347   5.845   6.136  10.042 -0.2184  0.8799 -0.7794
 4718TIP3   OH238348   7.382   1.613  10.903 -0.0252  0.1792 -0.2096
 4718TIP3    H138349   7.416   1.671  10.971 -0.9477  1.1321 -0.5437
 4718TIP3    H238350   7.369   1.669  10.827  2.3613 -1.1253 -1.7098
 4719TIP3   OH238351   2.526   1.273  10.418 -0.3137 -0.5785 -0.4912
 4719TIP3    H138352   2.618   1.288  10.398 -0.0132 -0.7937  0.6915
 4719TIP3    H238353   2.515   1.305  10.507 -1.3683 -0.6311 -0.5882
 4720TIP3   OH238354   6.483   1.986   8.685 -0.3558  0.0743  0.0663
 4720TIP3    H138355   6.430   1.912   8.654  0.2720  0.0481 -0.9882
 4720TIP3    H238356   6.573   1.951   8.688 -0.3456  0.1816  1.6123
 4721TIP3   OH238357   0.430   3.100   9.207  0.0537  0.3674 -0.0302
 4721TIP3    H138358   0.428   3.080   9.301  1.0726  2.2127  0.4280
 4721TIP3    H238359   0.338   3.097   9.180 -0.4976  1.7846  1.5083
 4722TIP3   OH238360   4.588   3.662   7.886  0.0717  0.3637 -0.8100
 4722TIP3    H138361   4.639   3.725   7.938 -1.1174  0.5545  0.1941
 4722TIP3    H238362   4.651   3.623   7.826  1.2307  1.1259 -0.1318
 4723TIP3   OH238363   4.643   0.841  10.956 -0.2245 -0.0248 -0.2701
 4723TIP3    H138364   4.663   0.783  11.030 -0.4582  1.1476  0.7370
 4723TIP3    H238365   4.671   0.928  10.985  1.5569  0.1810 -2.3419
 4724TIP3   OH238366   0.992   1.863   9.418 -0.1479 -0.0093 -0.7187
 4724TIP3    H138367   0.909   1.818   9.430 -0.1328  0.2821  0.6151
 4724TIP3    H238368   1.020   1.839   9.329 -1.9086  0.3331 -1.3999
 4725TIP3   OH238369   3.957   4.491   9.815  0.7716  0.2640 -0.3341
 4725TIP3    H138370   3.920   4.408   9.784 -1.4187  0.8176  0.6794
 4725TIP3    H238371   4.051   4.472   9.826  0.6004 -1.6097 -1.5971
 4726TIP3   OH238372   0.337   7.189   9.288 -0.3035  0.2327  0.1636
 4726TIP3    H138373   0.326   7.098   9.259 -1.3684  0.2438  0.4834
 4726TIP3    H238374   0.361   7.182   9.380  1.1049  0.2491 -0.1868
 4727TIP3   OH238375   1.544   0.170   8.396 -0.1131  0.5626  0.1235
 4727TIP3    H138376   1.597   0.103   8.355 -0.0739  0.2313  0.7051
 4727TIP3    H238377   1.454   0.138   8.389 -0.2214  1.0061 -0.6397
 4728TIP3   OH238378   0.159   5.855   9.980 -0.3455 -0.2555 -0.1774
 4728TIP3    H138379   0.158   5.764  10.010 -0.6733 -0.2014 -0.0179
 4728TIP3    H238380   0.251   5.880   9.983 -0.1115 -0.9271 -1.2698
 4729TIP3   OH238381   2.864   5.559   8.358  0.3431 -0.4116  0.7023
 4729TIP3    H138382   2.916   5.639   8.362  0.1501 -0.1708 -0.8928
 4729TIP3    H238383   2.896   5.505   8.430  2.0816  0.1532  0.3856
 4730TIP3   OH238384   6.278   0.631  10.140 -0.7781 -0.2095  0.6646
 4730TIP3    H138385   6.210   0.690  10.172  0.1261  1.3160 -0.0876
 4730TIP3    H238386   6.310   0.673  10.060  2.7884  0.5681  2.2988
 4731TIP3   OH238387   2.813   2.418   9.352 -0.4279  0.0086 -0.0993
 4731TIP3    H138388   2.736   2.447   9.302 -0.4542  0.1681  0.0323
 4731TIP3    H238389   2.879   2.399   9.286 -0.2533  0.8235 -0.1725
 4732TIP3   OH238390   5.041   3.859   9.644 -0.0734  0.5651 -0.0937
 4732TIP3    H138391   4.951   3.851   9.614 -1.4484  3.3275  2.7255
 4732TIP3    H238392   5.081   3.921   9.583 -1.1993  2.0282  0.6056
 4733TIP3   OH238393   5.053   7.311   9.741  0.4555 -0.0235  0.3248
 4733TIP3    H138394   5.133   7.333   9.788  0.0595 -1.6628  1.8571
 4733TIP3    H238395   4.998   7.390   9.748 -0.0074 -0.5036  3.5812
 4734TIP3   OH238396   0.137   5.139  10.761 -0.2091  0.4121 -0.1420
 4734TIP3    H138397   0.059   5.192  10.780 -0.2047  0.9845 -1.6232
 4734TIP3    H238398   0.160   5.161  10.671 -1.3296 -3.5467 -1.6068
 4735TIP3   OH238399   2.843   6.195   9.201  0.2338  0.0984 -0.5431
 4735TIP3    H138400   2.887   6.244   9.270 -0.3016 -0.7708  0.4569
 4735TIP3    H238401   2.765   6.160   9.244 -0.9323  0.7989 -2.0020
 4736TIP3   OH238402   7.423   2.275  10.843 -0.5367  0.1830  0.3301
 4736TIP3    H138403   7.351   2.326  10.805 -0.8420 -0.1205  0.4988
 4736TIP3    H238404   7.380   2.203  10.889 -0.1516  0.4337  1.0847
 4737TIP3   OH238405   0.730   0.832   9.018 -0.0722  0.2169  0.7869
 4737TIP3    H138406   0.737   0.751   8.968 -0.3895  1.6435 -1.7598
 4737TIP3    H238407   0.687   0.894   8.958  2.7274  3.1378  1.4862
 4738TIP3   OH238408   1.202   0.913  10.895 -0.0140 -0.0453  0.4300
 4738TIP3    H138409   1.177   0.829  10.857 -1.3037 -1.2165  3.5183
 4738TIP3    H238410   1.270   0.891  10.959 -0.4292  1.2282  1.3596
 4739TIP3   OH238411   0.626   1.522  10.262  0.1650  0.2599  0.0980
 4739TIP3    H138412   0.715   1.488  10.252  0.4834  1.3762 -1.0865
 4739TIP3    H238413   0.587   1.513  10.175  0.5311  3.4970 -0.5516
 4740TIP3   OH238414   7.092   4.193   9.565 -0.3318 -0.1580  0.2596
 4740TIP3    H138415   7.186   4.187   9.547 -0.3683  1.1044 -0.5535
 4740TIP3    H238416   7.054   4.118   9.520  0.2823 -0.7067  0.6340
 4741TIP3   OH238417   0.677   0.190  10.145  0.1801  0.5059  0.6129
 4741TIP3    H138418   0.656   0.203  10.237 -1.4686 -1.0655  0.5175
 4741TIP3    H238419   0.722   0.105  10.142 -1.8425 -0.6133 -0.2113
 4742TIP3   OH238420   6.474   2.711   9.924  0.6635  0.1152 -0.5522
 4742TIP3    H138421   6.462   2.630   9.973 -0.4303  0.2536 -0.5715
 4742TIP3    H238422   6.389   2.755   9.929  0.8265  0.5968 -1.7349
 4743TIP3   OH238423   4.655   1.901  11.208  0.0142 -0.3263 -0.4238
 4743TIP3    H138424   4.677   1.992  11.228  0.0477 -0.6143  0.9443
 4743TIP3    H238425   4.586   1.907  11.143  0.7505  0.6534 -1.1531
 4744TIP3   OH238426   0.853   2.876  10.978  0.8166 -0.0537 -0.0693
 4744TIP3    H138427   0.801   2.885  11.058  1.3057  1.3189  0.1096
 4744TIP3    H238428   0.851   2.782  10.959 -1.9463 -0.0564 -0.2160
 4745TIP3   OH238429   2.967   5.428   8.580  0.7770  0.2615  0.1008
 4745TIP3    H138430   2.944   5.362   8.645  0.7735  0.1585 -0.0043
 4745TIP3    H238431   3.007   5.499   8.631 -2.0723  1.6007  0.6516
 4746TIP3   OH238432   1.601   7.505   9.108  0.2284  0.5417  0.2851
 4746TIP3    H138433   1.643   7.429   9.068 -1.7982 -0.3874 -0.2169
 4746TIP3    H238434   1.583   7.563   9.034 -0.5632  0.3153  0.2950
 4747TIP3   OH238435   0.732   2.419  10.267 -0.2808 -0.4569  0.4158
 4747TIP3    H138436   0.711   2.332  10.232  0.3323 -0.1839 -0.6852
 4747TIP3    H238437   0.681   2.479  10.213 -1.6832 -0.1673  1.9749
 4748TIP3   OH238438   6.274   5.959  10.089  0.4696 -0.0990  0.3235
 4748TIP3    H138439   6.233   5.880  10.055  1.7291 -0.0369 -1.5596
 4748TIP3    H238440   6.257   6.026  10.022  1.9558  0.3993  0.3896
 4749TIP3   OH238441   5.853   5.719   9.212  0.0653 -0.2778 -0.0796
 4749TIP3    H138442   5.913   5.755   9.148 -0.6813  1.5486  0.1860
 4749TIP3    H238443   5.855   5.625   9.197  1.1564 -0.0338 -1.6608
 4750TIP3   OH238444   2.000   5.543  10.746 -0.0686  1.0223  0.0828
 4750TIP3    H138445   2.054   5.610  10.787  1.4455 -0.6477  0.9474
 4750TIP3    H238446   2.029   5.461  10.785 -1.7930 -0.1776 -0.9984
 4751TIP3   OH238447   0.523   6.514   8.654  0.3258 -0.5832 -0.4901
 4751TIP3    H138448   0.427   6.510   8.650  0.2893  0.4685 -1.0804
 4751TIP3    H238449   0.553   6.451   8.589  0.0436 -1.0533 -0.1720
 4752TIP3   OH238450   0.863   1.489   8.657 -0.2982 -0.1514  0.2163
 4752TIP3    H138451   0.841   1.419   8.719 -2.3064  1.6987  1.7387
 4752TIP3    H238452   0.866   1.568   8.711  0.0300  1.2256 -1.7392
 4753TIP3   OH238453   1.539   2.362  10.354 -0.2144  0.2617  0.0321
 4753TIP3    H138454   1.473   2.354  10.422  0.3208 -0.0742  0.5206
 4753TIP3    H238455   1.537   2.278  10.308 -0.9869  0.6958 -0.7650
 4754TIP3   OH238456   5.519   2.076  10.431 -0.1413  0.1306 -0.9193
 4754TIP3    H138457   5.590   2.013  10.440  0.1138  0.3986 -1.0475
 4754TIP3    H238458   5.509   2.112  10.519 -1.4829 -1.3582 -0.4188
 4755TIP3   OH238459   5.848   6.283  10.846 -0.0267  0.1691 -0.2584
 4755TIP3    H138460   5.812   6.194  10.846  1.2852 -0.4053 -1.0329
 4755TIP3    H238461   5.844   6.311  10.937  0.1067 -0.9394  0.1030
 4756TIP3   OH238462   2.699   0.183  10.728 -0.0055  0.1214  0.2094
 4756TIP3    H138463   2.743   0.267  10.739 -0.8663  0.5418  0.5434
 4756TIP3    H238464   2.608   0.200  10.753 -0.2463 -0.8490  0.0400
 4757TIP3   OH238465   6.041   1.208  10.804 -0.4315  0.6525 -0.2700
 4757TIP3    H138466   6.124   1.184  10.845 -1.7696  0.0007  2.2770
 4757TIP3    H238467   6.036   1.153  10.726  0.6415 -0.8158  0.6303
 4758TIP3   OH238468   0.818   0.630   8.212  0.1052  0.1644 -0.8923
 4758TIP3    H138469   0.811   0.588   8.297 -0.4938  1.7749 -0.0923
 4758TIP3    H238470   0.893   0.588   8.169 -0.0788 -1.2129  0.0880
 4759TIP3   OH238471   0.775   1.342  10.636  0.2884 -0.1404 -0.3278
 4759TIP3    H138472   0.784   1.398  10.712 -2.2112  0.0037 -0.0379
 4759TIP3    H238473   0.860   1.299  10.626  0.8189  0.2074  2.2267
 4760TIP3   OH238474   3.134   4.225  10.165  0.3777  0.1124  0.0315
 4760TIP3    H138475   3.126   4.235  10.260  0.3482  1.3055 -0.0928
 4760TIP3    H238476   3.198   4.154  10.154 -3.3410 -3.8288  0.9751
 4761TIP3   OH238477   3.228   5.912  10.068 -0.1341  0.3250 -0.5955
 4761TIP3    H138478   3.248   5.875   9.982 -1.1727  0.4202 -0.8860
 4761TIP3    H238479   3.269   5.998  10.067  0.9206 -0.1538 -0.5137
 4762TIP3   OH238480   1.557   1.893   8.046  0.5019 -0.1700 -0.3126
 4762TIP3    H138481   1.532   1.970   7.994  0.8982 -1.4171 -2.4675
 4762TIP3    H238482   1.652   1.901   8.056  0.8540 -1.2588 -2.2071
 4763TIP3   OH238483   6.766   0.382  10.122 -0.1535 -0.1712  0.2475
 4763TIP3    H138484   6.705   0.412  10.054  0.7197 -0.0589 -0.5003
 4763TIP3    H238485   6.718   0.396  10.204 -0.9676  0.3252 -0.2920
 4764TIP3   OH238486   7.143   5.388   8.733 -0.4488 -0.0468  0.1642
 4764TIP3    H138487   7.093   5.388   8.651 -1.0740 -1.6373  0.5139
 4764TIP3    H238488   7.177   5.477   8.740 -4.7400  1.7944  0.8628
 4765TIP3   OH238489   4.330   5.002  10.560  0.1279 -0.0789  0.1539
 4765TIP3    H138490   4.277   4.974  10.486 -0.8947  1.6448  0.1820
 4765TIP3    H238491   4.341   4.924  10.614 -2.3546 -0.5140  0.1184
 4766TIP3   OH238492   3.465   1.512  10.336 -0.1202  0.4612 -0.1196
 4766TIP3    H138493   3.395   1.483  10.394 -0.8781 -0.1220 -1.3086
 4766TIP3    H238494   3.493   1.433  10.290  1.5190  0.6268  0.5170
 4767TIP3   OH238495   5.715   0.826  10.852  0.2240 -0.0162 -0.0899
 4767TIP3    H138496   5.727   0.854  10.761 -0.0116  0.1123 -0.0847
 4767TIP3    H238497   5.629   0.782  10.851  0.0814  0.2551  0.1316
 4768TIP3   OH238498   3.363   0.739  10.074 -0.2757 -0.6082  0.0354
 4768TIP3    H138499   3.417   0.731  10.152 -0.1588  0.1287  0.0441
 4768TIP3    H238500   3.327   0.828  10.079 -2.2118 -1.3776  0.4918
 4769TIP3   OH238501   5.842   0.732  11.052  0.3902 -0.2678  0.4503
 4769TIP3    H138502   5.816   0.784  10.976  0.1640  1.2786  1.5209
 4769TIP3    H238503   5.765   0.679  11.072 -0.7163  1.5683  1.3851
 4770TIP3   OH238504   2.282   5.511  10.926  0.1854  0.7277 -0.1709
 4770TIP3    H138505   2.209   5.449  10.930  1.4183 -0.7437  0.3733
 4770TIP3    H238506   2.317   5.501  10.837  0.1549  0.9065 -0.2025
 4771TIP3   OH238507   4.447   3.370  11.056  0.1390  0.3120  0.0220
 4771TIP3    H138508   4.474   3.461  11.044 -0.9229  0.6679  0.2061
 4771TIP3    H238509   4.376   3.374  11.120  0.4209 -0.7109  0.4232
 4772TIP3   OH238510   5.485   5.823  10.022  0.0235 -1.0305 -0.2995
 4772TIP3    H138511   5.423   5.841  10.094 -0.5387 -0.3371 -0.9423
 4772TIP3    H238512   5.489   5.904   9.973  2.0392 -0.8233  0.1304
 4773TIP3   OH238513   0.112   4.233  10.102  0.2152 -0.2792 -0.5713
 4773TIP3    H138514   0.020   4.252  10.088 -0.3159 -1.0994  1.5338
 4773TIP3    H238515   0.114   4.141  10.130  1.5574  0.0029  0.3441
 4774TIP3   OH238516   2.466   6.939   9.636  0.5180 -0.2495 -0.5090
 4774TIP3    H138517   2.416   6.973   9.561  1.8443  1.7377 -0.5753
 4774TIP3    H238518   2.483   7.016   9.690  1.4658 -1.2897  0.7295
 4775TIP3   OH238519   0.861   0.628  10.948  0.1865  0.0959 -0.6459
 4775TIP3    H138520   0.877   0.533  10.956 -0.9459 -0.0963 -0.4974
 4775TIP3    H238521   0.771   0.634  10.916  0.2411  1.1328 -0.6208
 4776TIP3   OH238522   5.171   2.629  11.399 -0.1997 -0.5225  0.3095
 4776TIP3    H138523   5.229   2.678  11.341  1.0864 -0.1046  1.8636
 4776TIP3    H238524   5.086   2.630  11.355 -0.1894  2.8830  0.0705
 4777TIP3   OH238525   2.335   4.669   9.941  0.1168 -0.0801  0.1896
 4777TIP3    H138526   2.285   4.606   9.889 -0.1743 -0.3074  0.7345
 4777TIP3    H238527   2.311   4.754   9.906 -0.6991 -0.1822  0.4790
 4778TIP3   OH238528   1.383   3.964  10.326  0.7763  0.1550 -0.1558
 4778TIP3    H138529   1.333   3.911  10.265 -0.2373 -0.9470  1.5620
 4778TIP3    H238530   1.318   3.999  10.387  1.7155  1.4715  0.1455
 4779TIP3   OH238531   4.190   1.325  10.895 -0.2997 -0.1113  0.1618
 4779TIP3    H138532   4.182   1.246  10.949  1.6591  0.4040  1.3393
 4779TIP3    H238533   4.229   1.294  10.813 -0.4007 -0.5057  0.2604
 4780TIP3   OH238534   6.151   3.079  10.823  0.0769 -0.3604 -0.4899
 4780TIP3    H138535   6.155   3.162  10.775  0.6869  1.0541  1.8277
 4780TIP3    H238536   6.238   3.069  10.861 -0.8781 -0.3487  1.8820
 4781TIP3   OH238537   7.244   2.013  10.614  0.4474  0.1213  0.2119
 4781TIP3    H138538   7.198   2.092  10.585  0.5092  0.2836  0.5546
 4781TIP3    H238539   7.216   1.945  10.553  0.7292  0.5053 -0.3478
 4782TIP3   OH238540   1.715   6.626  10.375 -0.1022 -0.0845  0.3252
 4782TIP3    H138541   1.625   6.654  10.395 -0.6625 -0.7315 -1.1848
 4782TIP3    H238542   1.710   6.591  10.286  1.1119 -2.5296  1.1458
 4783TIP3   OH238543   2.586   7.451   9.609 -0.4369 -0.8266  0.2260
 4783TIP3    H138544   2.659   7.397   9.576 -1.4692 -1.4756 -1.0964
 4783TIP3    H238545   2.615   7.541   9.595  0.6349 -1.0498  0.9192
 4784TIP3   OH238546   5.652   0.930  10.593 -0.1070  0.4901 -0.3108
 4784TIP3    H138547   5.629   1.011  10.549  1.3094  0.8066 -0.5120
 4784TIP3    H238548   5.711   0.885  10.531 -1.8222 -1.2777 -0.7431
 4785TIP3   OH238549   5.243   7.154  11.133  0.2724 -0.5214 -0.1040
 4785TIP3    H138550   5.333   7.184  11.121  0.2745  0.4587  2.0203
 4785TIP3    H238551   5.208   7.208  11.203 -2.0405 -0.8080 -0.9384
 4786TIP3   OH238552   3.291   7.409   9.448  0.1567 -0.3479  0.6022
 4786TIP3    H138553   3.247   7.493   9.459  1.2820  0.0049  2.9736
 4786TIP3    H238554   3.277   7.363   9.531  1.6210 -1.4725  0.2664
 4787TIP3   OH238555   5.224   4.690   8.736 -0.2491 -0.0942  0.6198
 4787TIP3    H138556   5.159   4.663   8.671  2.0202 -0.1495 -1.7519
 4787TIP3    H238557   5.186   4.770   8.774 -1.2361  0.5311 -1.4944
 4788TIP3   OH238558   7.348   6.956   9.562  0.1817  0.3001  0.1040
 4788TIP3    H138559   7.437   6.979   9.588 -0.3895  0.8009  1.6942
 4788TIP3    H238560   7.345   6.860   9.569  1.0495  0.1068 -1.5807
 4789TIP3   OH238561   1.604   6.343   8.325  0.2779 -0.9167 -0.3333
 4789TIP3    H138562   1.518   6.352   8.367  0.7221 -3.5480  1.3418
 4789TIP3    H238563   1.592   6.379   8.237 -2.0428  0.3047  0.3980
 4790TIP3   OH238564   6.325   6.329   9.686 -0.0963  0.5116  0.0306
 4790TIP3    H138565   6.248   6.385   9.686  0.6378  1.5680 -0.0772
 4790TIP3    H238566   6.397   6.388   9.663  0.3294 -1.0384 -3.0447
 4791TIP3   OH238567   3.552   0.658   8.712 -0.6208 -0.1003 -0.8799
 4791TIP3    H138568   3.619   0.716   8.748 -1.1250  0.5675 -1.0088
 4791TIP3    H238569   3.593   0.571   8.711 -0.2422  0.0516  0.3330
 4792TIP3   OH238570   0.678   4.889   9.331 -0.5003  0.1720 -0.1408
 4792TIP3    H138571   0.763   4.863   9.366 -2.1819 -1.6742  3.0517
 4792TIP3    H238572   0.671   4.982   9.350  0.2237  0.0231  0.9348
 4793TIP3   OH238573   3.974   4.127   9.325  0.4114  0.1831  0.2129
 4793TIP3    H138574   3.997   4.134   9.232  2.4245  0.0405  0.6625
 4793TIP3    H238575   3.945   4.215   9.349 -1.9200 -0.1987 -0.9442
 4794TIP3   OH238576   3.049   1.007   8.623  0.3805 -0.3280  0.2870
 4794TIP3    H138577   2.963   1.027   8.586  0.9206  0.4421 -0.5949
 4794TIP3    H238578   3.076   0.926   8.580  0.6823  0.1713 -0.5002
 4795TIP3   OH238579   3.600   3.124  10.611  0.6090  0.1039 -0.4001
 4795TIP3    H138580   3.608   3.218  10.630 -0.2484  0.0240  0.3862
 4795TIP3    H238581   3.513   3.115  10.572  0.5022 -0.4321 -0.0438
 4796TIP3   OH238582   6.479   4.914   9.522 -0.0283 -0.3687  0.3792
 4796TIP3    H138583   6.491   4.824   9.553 -0.2847 -0.2878  0.7144
 4796TIP3    H238584   6.423   4.955   9.588 -0.1868 -0.0583  0.0542
 4797TIP3   OH238585   6.442   7.090   9.040 -0.4144 -0.4479  0.3834
 4797TIP3    H138586   6.424   7.116   8.950 -0.1430 -0.8846  0.2027
 4797TIP3    H238587   6.432   7.171   9.091 -1.7048 -0.4238  0.1239
 4798TIP3   OH238588   1.861   0.335  11.063  0.2745  0.4329 -0.3903
 4798TIP3    H138589   1.811   0.301  10.989 -1.0225 -0.1403  0.7121
 4798TIP3    H238590   1.920   0.263  11.087  1.4116  0.9779 -1.4611
 4799TIP3   OH238591   1.437   3.821  10.586  0.0838 -0.1172  0.4681
 4799TIP3    H138592   1.357   3.796  10.540 -0.5295 -0.3961  1.6425
 4799TIP3    H238593   1.414   3.902  10.632 -0.1916 -1.2779  2.4573
 4800TIP3   OH238594   4.024   4.247  11.028  0.6475  0.2695 -0.5567
 4800TIP3    H138595   4.044   4.163  11.068 -0.9307 -1.4277 -2.9928
 4800TIP3    H238596   4.109   4.288  11.013  1.6028 -1.7360 -0.9083
 4801TIP3   OH238597   3.126   0.431  10.977 -0.2114  0.8518 -0.2331
 4801TIP3    H138598   3.206   0.422  11.029 -0.8197  0.4878  0.6770
 4801TIP3    H238599   3.156   0.445  10.887  0.8702  0.0764 -0.0112
 4802TIP3   OH238600   0.111   1.467  10.044 -0.3147 -0.3439  0.3366
 4802TIP3    H138601   0.134   1.509   9.962 -0.1102  1.0453  1.0740
 4802TIP3    H238602   0.195   1.435  10.078 -0.0561  0.9682  0.9968
 4803TIP3   OH238603   1.837   3.295   8.698  0.0664  0.0500  0.0844
 4803TIP3    H138604   1.798   3.349   8.628 -1.1373  3.3035  2.9688
 4803TIP3    H238605   1.927   3.326   8.704  0.2629 -0.4549 -0.1827
 4804TIP3   OH238606   4.681   6.846  11.131  0.0246  0.0776 -0.4412
 4804TIP3    H138607   4.742   6.883  11.195  1.0270  0.7247 -1.7409
 4804TIP3    H238608   4.728   6.773  11.092 -0.2548  0.2149 -1.0424
 4805TIP3   OH238609   0.178   2.761   9.601  0.4878  0.0101 -0.2014
 4805TIP3    H138610   0.263   2.802   9.590  0.7304 -0.8400 -1.9325
 4805TIP3    H238611   0.198   2.671   9.628  0.3119 -0.8004 -2.5073
 4806TIP3   OH238612   6.775   7.176  10.696 -0.0678 -0.2807 -0.1025
 4806TIP3    H138613   6.691   7.132  10.683 -0.2436 -0.0331  0.1745
 4806TIP3    H238614   6.763   7.227  10.776  0.1288  0.2676 -0.4132
 4807TIP3   OH238615   6.480   3.450  10.886  0.1988 -0.3651  0.3157
 4807TIP3    H138616   6.532   3.522  10.853 -0.6673  0.7378  1.2807
 4807TIP3    H238617   6.408   3.442  10.824  0.9085 -1.2046 -0.4372
 4808TIP3   OH238618   0.406   6.367   9.519 -0.4201 -0.2012  0.0183
 4808TIP3    H138619   0.372   6.298   9.462 -0.2250 -1.8088  1.7527
 4808TIP3    H238620   0.463   6.419   9.463  1.1847 -2.7947 -0.8845
 4809TIP3   OH238621   6.609   0.261   8.595  0.3343  0.0393 -0.4842
 4809TIP3    H138622   6.579   0.349   8.572  0.9049  0.3871  0.0547
 4809TIP3    H238623   6.612   0.214   8.512  1.1089  0.8695 -0.9465
 4810TIP3   OH238624   7.544   0.569   9.056 -0.5538 -0.0179 -0.1100
 4810TIP3    H138625   7.598   0.647   9.065 -0.9475  0.2375  0.0506
 4810TIP3    H238626   7.464   0.600   9.014 -1.3813 -0.0390  1.4061
 4811TIP3   OH238627   6.671   2.949  10.691  0.0853  0.3023 -0.3492
 4811TIP3    H138628   6.589   2.993  10.670 -0.2973 -0.7248 -1.1372
 4811TIP3    H238629   6.647   2.857  10.699  0.9696  0.1413  0.5739
 4812TIP3   OH238630   1.402   4.748   8.633  0.1535  0.2373 -0.2814
 4812TIP3    H138631   1.357   4.820   8.587 -1.4527 -0.5534 -0.0195
 4812TIP3    H238632   1.335   4.680   8.642  1.7833 -1.5542 -1.0375
 4813TIP3   OH238633   3.790   6.553  10.627 -0.7179  0.0766 -0.5210
 4813TIP3    H138634   3.875   6.539  10.587  0.0219  0.0106  0.9875
 4813TIP3    H238635   3.774   6.475  10.679 -1.4114  0.3613 -0.2839
 4814TIP3   OH238636   7.302   5.573   8.493 -0.0656 -0.1887 -0.3404
 4814TIP3    H138637   7.251   5.558   8.573 -0.8559 -0.4961 -0.8847
 4814TIP3    H238638   7.319   5.485   8.459 -1.3601 -0.0248 -1.4896
 4815TIP3   OH238639   5.289   2.700   9.852 -0.0360  0.4011  0.8048
 4815TIP3    H138640   5.223   2.770   9.851  1.4409  1.8393  0.6087
 4815TIP3    H238641   5.322   2.696   9.762  3.4864  3.0911  1.7530
 4816TIP3   OH238642   2.653   4.241   9.305  0.4301  0.4863  0.2691
 4816TIP3    H138643   2.713   4.171   9.333  0.3865  1.0877  1.9685
 4816TIP3    H238644   2.574   4.194   9.279  1.4388 -0.2960 -1.6635
 4817TIP3   OH238645   0.643   1.767  10.407 -0.6003 -0.0719  0.0359
 4817TIP3    H138646   0.626   1.674  10.395  0.8907 -0.4303  0.4838
 4817TIP3    H238647   0.691   1.772  10.491  3.2039  0.5531 -1.9371
 4818TIP3   OH238648   2.029   4.340   9.210  0.3088 -0.4474 -0.3805
 4818TIP3    H138649   2.120   4.365   9.221 -0.2133  0.5711  2.5038
 4818TIP3    H238650   2.021   4.256   9.257 -0.4740  0.2044  0.7275
 4819TIP3   OH238651   1.226   3.303   9.884 -0.2072 -0.2381  0.6442
 4819TIP3    H138652   1.160   3.355   9.931 -0.8729 -0.5368  0.0619
 4819TIP3    H238653   1.193   3.299   9.794  0.9191  0.1057  0.2015
 4820TIP3   OH238654   5.393   0.119   9.709  0.5825 -0.3435  0.3920
 4820TIP3    H138655   5.400   0.192   9.648 -0.3461 -0.4933  0.0939
 4820TIP3    H238656   5.362   0.159   9.791  1.3936 -0.2105  0.6449
 4821TIP3   OH238657   3.071   2.539  10.443  0.0612  0.3653  0.6613
 4821TIP3    H138658   3.126   2.574  10.374 -0.0831  0.4588  0.5919
 4821TIP3    H238659   2.996   2.500  10.397  0.4585 -0.4815  0.7037
 4822TIP3   OH238660   6.683   5.395   9.069  0.2799  0.2681 -0.1282
 4822TIP3    H138661   6.669   5.326   9.135 -0.8137 -0.1514 -0.7903
 4822TIP3    H238662   6.610   5.455   9.081  0.3031  0.4111 -0.6880
 4823TIP3   OH238663   5.390   7.515   8.723 -0.4435 -0.4347  0.0643
 4823TIP3    H138664   5.355   7.602   8.742 -0.8818  0.2035 -3.1773
 4823TIP3    H238665   5.485   7.528   8.720 -0.3263 -0.6155  1.7101
 4824TIP3   OH238666   7.424   0.945   8.781  0.0669  0.2955  0.1090
 4824TIP3    H138667   7.504   0.893   8.774 -0.3367 -0.5339  1.2579
 4824TIP3    H238668   7.412   0.957   8.875 -1.1139  0.4724 -0.0510
 4825TIP3   OH238669   3.446   2.563   9.879 -0.4277  0.5356  0.1916
 4825TIP3    H138670   3.434   2.583   9.786  0.2442 -0.3832 -0.1132
 4825TIP3    H238671   3.479   2.473   9.880  1.6715  1.2468  1.1887
 4826TIP3   OH238672   6.585   1.968  11.041 -0.2557 -0.5446 -0.0411
 4826TIP3    H138673   6.590   1.893  10.982 -2.9332 -0.8477 -0.0176
 4826TIP3    H238674   6.610   2.043  10.986 -1.6214 -0.9646 -1.3246
 4827TIP3   OH238675   5.619   4.385  10.460 -0.1399  0.1917  0.4354
 4827TIP3    H138676   5.706   4.374  10.422 -0.4543  0.5116 -0.3929
 4827TIP3    H238677   5.627   4.463  10.515  0.2632 -0.1570  0.8809
 4828TIP3   OH238678   4.472   3.636   8.161 -0.4832  0.8024 -0.0133
 4828TIP3    H138679   4.504   3.647   8.071  0.4863 -0.5556  0.1289
 4828TIP3    H238680   4.392   3.688   8.164  0.1629  1.9498 -1.2635
 4829TIP3   OH238681   2.393   7.562  10.650 -0.5127  0.2889 -0.0385
 4829TIP3    H138682   2.323   7.538  10.711  0.2976 -1.7688  0.1766
 4829TIP3    H238683   2.464   7.592  10.706 -0.5121  0.4394 -0.1204
 4830TIP3   OH238684   7.560   1.565   9.380  0.1537 -0.8983 -0.2852
 4830TIP3    H138685   7.502   1.495   9.351 -2.6813  0.9936  0.4287
 4830TIP3    H238686   7.516   1.645   9.352  0.7754  0.7754  3.0700
 4831TIP3   OH238687   3.286   0.887  10.638  0.2056  0.0261  0.6141
 4831TIP3    H138688   3.286   0.972  10.595  2.4122  0.7564  1.9381
 4831TIP3    H238689   3.293   0.906  10.731 -1.9876 -1.5829  1.2036
 4832TIP3   OH238690   7.640   4.021   9.853 -0.0473 -0.2516 -0.1344
 4832TIP3    H138691   7.713   3.963   9.831  0.6510 -0.0847  1.5269
 4832TIP3    H238692   7.613   3.992   9.941 -1.5188  0.1582 -0.4296
 4833TIP3   OH238693   0.999   4.175   9.468 -0.4877  0.3677  0.2931
 4833TIP3    H138694   0.953   4.134   9.541  0.0891 -2.1401 -0.6543
 4833TIP3    H238695   1.079   4.210   9.506 -0.7435  0.1253  1.0661
 4834TIP3   OH238696   4.482   1.328   9.981  0.2957 -0.4239 -0.1300
 4834TIP3    H138697   4.453   1.240  10.005  0.5053 -0.2809  0.6857
 4834TIP3    H238698   4.537   1.355  10.054 -0.9480  0.9488  0.3477
 4835TIP3   OH238699   4.325   7.154  11.240 -0.3401 -0.2094 -0.2011
 4835TIP3    H138700   4.274   7.216  11.186 -1.7410 -2.0209 -1.0853
 4835TIP3    H238701   4.416   7.174  11.220 -0.6444  2.6346  0.8256
 4836TIP3   OH238702   5.580   4.473   9.972 -0.0685  0.4377  0.1813
 4836TIP3    H138703   5.644   4.402   9.972  0.5183  0.9070  2.2302
 4836TIP3    H238704   5.520   4.451   9.901  1.6342 -0.6609 -0.9931
 4837TIP3   OH238705   7.254   6.661  10.320 -0.9603  0.1431  0.4325
 4837TIP3    H138706   7.209   6.626  10.243  1.4015 -4.8345  0.8900
 4837TIP3    H238707   7.324   6.715  10.284 -1.6207  0.2512 -0.7341
 4838TIP3   OH238708   4.080   3.497  10.895  0.1109 -0.3220 -0.3765
 4838TIP3    H138709   4.096   3.445  10.973 -0.7519 -0.1131 -0.0506
 4838TIP3    H238710   4.084   3.434  10.823 -0.6075 -0.7971 -0.0152
 4839TIP3   OH238711   6.922   3.759   9.876 -0.0597 -0.0689 -0.6955
 4839TIP3    H138712   7.003   3.799   9.843  0.2582 -1.1151 -1.2134
 4839TIP3    H238713   6.896   3.816   9.949  0.3868  1.0624 -1.3788
 4840TIP3   OH238714   4.567   3.418  10.671  0.3082  0.6561  0.0157
 4840TIP3    H138715   4.636   3.368  10.716 -0.8655  0.3912  1.6369
 4840TIP3    H238716   4.512   3.351  10.630 -0.5688  0.6484  1.1500
 4841TIP3   OH238717   0.832   1.132   8.689  0.4118  0.5062  0.4857
 4841TIP3    H138718   0.855   1.064   8.625  0.7140  0.7281  0.3553
 4841TIP3    H238719   0.739   1.149   8.673  0.4351  0.4155  0.2399
 4842TIP3   OH238720   4.930   6.852   8.551 -0.2404  0.4920  0.3246
 4842TIP3    H138721   4.971   6.938   8.559  0.3003  0.2752 -0.0553
 4842TIP3    H238722   4.843   6.870   8.517 -0.6372  0.9953  1.5472
 4843TIP3   OH238723   1.522   0.953   8.903  0.2585 -0.0255 -0.3789
 4843TIP3    H138724   1.503   1.041   8.869 -0.0103  0.5221  1.1146
 4843TIP3    H238725   1.445   0.931   8.955 -0.2313 -1.7070 -1.7397
 4844TIP3   OH238726   1.624   6.523  10.159 -0.7177 -0.2132  0.4573
 4844TIP3    H138727   1.531   6.518  10.180 -0.6309 -1.3726  0.6202
 4844TIP3    H238728   1.631   6.496  10.068 -0.4630 -0.9125  0.6768
 4845TIP3   OH238729   4.330   5.971  10.838  0.2318 -0.7320 -0.3111
 4845TIP3    H138730   4.327   5.916  10.916 -0.0605 -0.0936  0.1376
 4845TIP3    H238731   4.389   6.043  10.861 -1.1292  0.3620 -0.0493
 4846TIP3   OH238732   4.730   4.357  10.308  0.1001  0.1729  0.1065
 4846TIP3    H138733   4.805   4.339  10.252  0.8093 -0.0371  1.0893
 4846TIP3    H238734   4.744   4.302  10.386 -0.0230  1.5895  1.1813
 4847TIP3   OH238735   2.721   3.550   8.203  0.0889 -0.1793  0.5694
 4847TIP3    H138736   2.671   3.468   8.197  1.4232 -1.0145  0.4458
 4847TIP3    H238737   2.783   3.535   8.274  2.1761 -0.3553 -1.1797
 4848TIP3   OH238738   1.447   5.864  10.264  0.6770 -0.7922  0.3471
 4848TIP3    H138739   1.447   5.919  10.342  0.2819 -0.6296  0.2377
 4848TIP3    H238740   1.532   5.880  10.223  0.0112  0.8814 -0.4693
 4849TIP3   OH238741   1.848   2.838   8.728  0.0364  0.0644  0.4534
 4849TIP3    H138742   1.788   2.770   8.699 -0.8815  0.7620  0.6739
 4849TIP3    H238743   1.809   2.920   8.696  1.3535  0.4562 -0.2129
 4850TIP3   OH238744   7.433   6.013   8.424 -0.5403  0.2018 -0.0287
 4850TIP3    H138745   7.395   5.937   8.380 -0.2889  1.1268 -1.9585
 4850TIP3    H238746   7.521   5.985   8.448 -1.3832 -1.0210  1.9460
 4851TIP3   OH238747   3.685   3.608  11.315  0.1803  0.3189 -0.0550
 4851TIP3    H138748   3.701   3.596  11.408  0.2027  1.1174  0.0436
 4851TIP3    H238749   3.687   3.702  11.301  1.3749  0.1677 -1.0822
 4852TIP3   OH238750   0.471   3.550  10.384  0.3966  0.0446 -0.5403
 4852TIP3    H138751   0.528   3.576  10.457 -1.8877  0.2914  1.2574
 4852TIP3    H238752   0.452   3.458  10.401 -0.5815  0.2481 -0.4929
 4853TIP3   OH238753   0.504   6.675  10.816 -0.0684  0.5330 -0.0534
 4853TIP3    H138754   0.590   6.686  10.775  0.7870  1.2476  1.8225
 4853TIP3    H238755   0.449   6.741  10.774  0.6738  1.0038 -0.3125
 4854TIP3   OH238756   6.294   0.640  10.857 -0.2431 -0.2957 -0.2567
 4854TIP3    H138757   6.385   0.655  10.884 -0.0348  0.4601 -1.3353
 4854TIP3    H238758   6.295   0.553  10.815  0.2459  0.2294 -1.3616
 4855TIP3   OH238759   3.104   3.269   8.456 -0.5033 -0.2814  0.6703
 4855TIP3    H138760   3.137   3.250   8.368 -1.0773  0.2597  0.3371
 4855TIP3    H238761   3.144   3.201   8.511 -2.4006 -2.4699 -0.4469
 4856TIP3   OH238762   6.851   2.922   9.357  0.1139 -0.0319  0.6781
 4856TIP3    H138763   6.806   2.934   9.273 -1.1470  2.0607  1.5963
 4856TIP3    H238764   6.815   2.840   9.392  1.4880 -1.5604 -1.2596
 4857TIP3   OH238765   3.391   1.123  11.039 -0.3301  0.1119 -1.1078
 4857TIP3    H138766   3.466   1.177  11.015  0.8027  0.8217  3.2051
 4857TIP3    H238767   3.326   1.184  11.073 -0.9014 -0.8749 -0.3658
 4858TIP3   OH238768   2.545   1.722   8.031 -0.4872  0.2709 -0.2705
 4858TIP3    H138769   2.487   1.761   7.966  0.1394  0.2698 -0.8372
 4858TIP3    H238770   2.625   1.775   8.027  0.8938 -1.8224 -1.9871
 4859TIP3   OH238771   0.967   4.122  10.827  0.8488 -0.5197 -0.4688
 4859TIP3    H138772   1.009   4.167  10.754  0.8000 -0.7197 -0.6201
 4859TIP3    H238773   0.906   4.187  10.862 -0.2014 -0.9006 -1.5272
 4860TIP3   OH238774   1.090   0.367   9.064  0.1306 -0.3232 -0.2348
 4860TIP3    H138775   1.068   0.459   9.052 -0.6358 -0.5285 -0.4300
 4860TIP3    H238776   1.179   0.359   9.029 -0.4378 -0.0083 -1.8294
 4861TIP3   OH238777   5.387   2.800   8.361  0.5438 -0.1081  0.0949
 4861TIP3    H138778   5.327   2.763   8.296 -0.2750  0.0853  0.7393
 4861TIP3    H238779   5.467   2.748   8.350 -0.5881 -2.1532  1.0074
 4862TIP3   OH238780   2.407   0.269   9.647  0.0832  0.1080  0.1561
 4862TIP3    H138781   2.411   0.174   9.653  0.1531  0.1318  0.5536
 4862TIP3    H238782   2.492   0.299   9.682  0.7048  0.2682 -1.4182
 4863TIP3   OH238783   0.458   2.005   9.532  0.1700  0.3036 -0.0892
 4863TIP3    H138784   0.543   2.044   9.517  0.0087  0.3007 -1.0640
 4863TIP3    H238785   0.397   2.079   9.534  0.1721  0.2972  0.5000
 4864TIP3   OH238786   4.965   3.149   9.856 -0.1972 -0.6192  0.1080
 4864TIP3    H138787   4.976   3.128   9.764 -0.8596 -0.2210 -0.0682
 4864TIP3    H238788   4.873   3.175   9.864  0.0526  0.1256  0.7137
 4865TIP3   OH238789   2.682   0.351   8.552  0.4890 -0.5983  0.3653
 4865TIP3    H138790   2.720   0.418   8.495  2.1729 -1.4962  0.3742
 4865TIP3    H238791   2.715   0.269   8.518 -0.8743 -1.3957  0.8709
 4866TIP3   OH238792   7.159   2.772   9.720  0.1440 -0.3922 -0.0144
 4866TIP3    H138793   7.075   2.725   9.716  1.0781 -2.1738  0.0143
 4866TIP3    H238794   7.201   2.753   9.636  1.3938 -1.3208  0.7828
 4867TIP3   OH238795   0.918   7.151   9.666 -0.3184  0.2280 -0.4270
 4867TIP3    H138796   0.861   7.075   9.671 -0.9859  0.6393 -1.6036
 4867TIP3    H238797   0.983   7.128   9.599 -0.7934  0.8718 -1.1091
 4868TIP3   OH238798   3.916   5.977   8.893 -0.5442  0.6245  0.9740
 4868TIP3    H138799   3.996   5.993   8.843  0.4423  1.8177  2.7922
 4868TIP3    H238800   3.863   6.056   8.880 -0.4111  0.8121  1.5345
 4869TIP3   OH238801   5.008   4.195   9.179 -0.0479  0.5737 -0.1083
 4869TIP3    H138802   4.937   4.249   9.214  0.2138  0.6022  0.3901
 4869TIP3    H238803   4.990   4.107   9.211 -0.2875  0.4287 -0.6366
 4870TIP3   OH238804   5.805   1.997   9.674  0.2014  0.0388 -0.1250
 4870TIP3    H138805   5.778   2.034   9.759 -0.9722  0.3697 -0.6188
 4870TIP3    H238806   5.724   1.994   9.623  0.8403 -0.4506 -1.1306
 4871TIP3   OH238807   6.872   3.189  10.618  0.0636 -0.0384 -0.2381
 4871TIP3    H138808   6.801   3.208  10.680 -0.4462  0.7371 -1.0408
 4871TIP3    H238809   6.840   3.115  10.567  0.8607 -1.2881  0.9799
 4872TIP3   OH238810   2.650   2.481  10.883  0.2309 -0.5822  0.1238
 4872TIP3    H138811   2.650   2.388  10.903  1.8819 -0.6415  0.0285
 4872TIP3    H238812   2.739   2.498  10.852 -0.5551  0.6619 -1.5845
 4873TIP3   OH238813   2.238   6.560  10.717 -0.4905 -0.1549  0.2481
 4873TIP3    H138814   2.224   6.471  10.685 -2.4275 -0.1706  1.0073
 4873TIP3    H238815   2.153   6.603  10.705  1.3082  2.8422 -3.7036
 4874TIP3   OH238816   0.950   1.761   9.812 -0.5405 -0.0993  0.0174
 4874TIP3    H138817   0.910   1.842   9.782  0.7829  0.1256 -1.2383
 4874TIP3    H238818   0.946   1.766   9.908 -0.5331  1.4017 -0.0415
 4875TIP3   OH238819   3.085   6.828   9.318 -0.3730  0.3509  0.2160
 4875TIP3    H138820   3.058   6.746   9.360  0.3902 -0.5300 -0.9489
 4875TIP3    H238821   3.155   6.862   9.374  1.6973 -1.5881 -1.0448
 4876TIP3   OH238822   2.777   4.539   9.073 -0.1007 -0.3604  0.0140
 4876TIP3    H138823   2.726   4.481   9.017  1.1006 -1.5978  0.1488
 4876TIP3    H238824   2.715   4.570   9.139 -1.3240  0.4069 -1.4246
 4877TIP3   OH238825   0.403   6.434  10.808 -0.6870 -0.3072 -0.3404
 4877TIP3    H138826   0.310   6.439  10.831 -0.3344 -0.0443  1.1370
 4877TIP3    H238827   0.432   6.525  10.804 -0.0206 -0.4213  1.3565
 4878TIP3   OH238828   6.312   2.200  10.043  0.3765  0.2891  0.0447
 4878TIP3    H138829   6.240   2.150  10.005  0.4865  0.7371 -0.7685
 4878TIP3    H238830   6.334   2.152  10.123 -1.8630  1.0256  1.1698
 4879TIP3   OH238831   4.671   2.231  10.050  0.4334 -0.1598  0.3083
 4879TIP3    H138832   4.762   2.210  10.071  0.2353  0.0667  1.4274
 4879TIP3    H238833   4.666   2.326  10.057 -0.0007 -0.2089  0.7546
 4880TIP3   OH238834   1.748   3.706   9.350  0.6498 -0.0860  0.8320
 4880TIP3    H138835   1.723   3.746   9.267  1.5328  0.7911  0.9646
 4880TIP3    H238836   1.695   3.753   9.416 -1.1913 -1.8033  0.6879
 4881TIP3   OH238837   1.674   5.616  10.336  0.1063  0.1092  0.6521
 4881TIP3    H138838   1.670   5.600  10.242  1.2097  0.1221  0.5928
 4881TIP3    H238839   1.618   5.548  10.374 -1.2515  0.7951 -0.0729
 4882TIP3   OH238840   3.578   4.422   9.232 -0.9729  0.3444 -0.3800
 4882TIP3    H138841   3.558   4.511   9.263 -1.1535 -0.0308  0.6119
 4882TIP3    H238842   3.561   4.366   9.307 -1.1254 -0.5726 -1.0796
 4883TIP3   OH238843   4.593   2.202   9.049 -0.3628  0.8266 -0.0326
 4883TIP3    H138844   4.615   2.139   9.117  1.6994  1.7627  0.2546
 4883TIP3    H238845   4.498   2.213   9.055 -0.8028 -2.1219 -0.0444
 4884TIP3   OH238846   0.859   3.420  10.686  0.9636  0.2852  0.3081
 4884TIP3    H138847   0.841   3.339  10.640  1.1775 -0.0388  0.7889
 4884TIP3    H238848   0.955   3.424  10.691  0.9394  0.1469  1.0106
 4885TIP3   OH238849   7.628   2.990  11.219 -0.0446 -0.2012 -0.3371
 4885TIP3    H138850   7.697   2.997  11.284 -0.5794  1.4277  0.1110
 4885TIP3    H238851   7.662   2.929  11.153  1.9436  0.7838 -0.2824
 4886TIP3   OH238852   2.563   7.228  10.525  0.0649 -0.7054 -0.3179
 4886TIP3    H138853   2.633   7.172  10.490  0.1409 -0.4230 -0.6247
 4886TIP3    H238854   2.512   7.253  10.448  1.5141  1.7275 -0.5866
 4887TIP3   OH238855   6.434   5.055  10.041 -0.7993  0.4743  0.1294
 4887TIP3    H138856   6.507   5.024  10.095 -1.8351 -0.8854  0.8215
 4887TIP3    H238857   6.428   5.149  10.060  1.0347  0.7115 -0.2954
 4888TIP3   OH238858   3.454   2.815  11.018 -0.0451  0.1252 -0.2870
 4888TIP3    H138859   3.545   2.845  11.015  0.2507 -0.8173 -1.0484
 4888TIP3    H238860   3.432   2.795  10.927  0.3361 -3.5564  0.2809
 4889TIP3   OH238861   3.602   5.293  10.409 -0.2549  0.0446  0.0548
 4889TIP3    H138862   3.675   5.232  10.405  0.3462  0.8255 -1.4996
 4889TIP3    H238863   3.640   5.379  10.390 -1.6339  0.3805 -1.4567
 4890TIP3   OH238864   6.770   3.385   9.648  0.2501  0.4655  0.4871
 4890TIP3    H138865   6.692   3.392   9.592  0.2524  0.9031  0.5402
 4890TIP3    H238866   6.828   3.326   9.600  0.3582  1.0327 -0.0948
 4891TIP3   OH238867   5.221   7.582  10.090 -0.0922 -0.2637  0.3712
 4891TIP3    H138868   5.152   7.599  10.026  1.2730  1.6889 -0.6663
 4891TIP3    H238869   5.298   7.561  10.038  1.1138  1.6300  1.2831
 4892TIP3   OH238870   0.839   5.796  10.807 -0.1957  0.3523 -0.3162
 4892TIP3    H138871   0.805   5.707  10.795 -0.5132  0.3835  0.2825
 4892TIP3    H238872   0.843   5.832  10.718 -0.6434 -0.0542 -0.5111
 4893TIP3   OH238873   5.913   4.651   9.474  0.0385  0.4628  0.0964
 4893TIP3    H138874   6.007   4.635   9.472  0.1143  0.9306 -0.6477
 4893TIP3    H238875   5.902   4.735   9.428 -1.0440 -1.2892 -3.2044
 4894TIP3   OH238876   0.582   4.203  10.805 -0.3439  0.2325 -0.7602
 4894TIP3    H138877   0.586   4.142  10.878 -2.4618  0.9603  0.0371
 4894TIP3    H238878   0.654   4.264  10.820 -0.5922  0.2120  0.5847
 4895TIP3   OH238879   4.351   5.580  10.813  0.0448  0.4976  0.4125
 4895TIP3    H138880   4.308   5.587  10.728  1.2173  0.1133 -0.2297
 4895TIP3    H238881   4.419   5.648  10.812  0.9579 -0.3874  0.4898
 4896TIP3   OH238882   4.018   6.942  10.620 -0.3762 -0.2574 -0.3192
 4896TIP3    H138883   3.972   6.985  10.548  1.7613 -0.3888 -1.8558
 4896TIP3    H238884   4.104   6.920  10.584  0.3137 -1.5127  1.8963
 4897TIP3   OH238885   1.053   2.063  10.908  0.2380 -0.0804  0.8222
 4897TIP3    H138886   0.995   2.137  10.928  0.0108 -0.1389  0.3997
 4897TIP3    H238887   1.069   2.070  10.814  0.3942 -0.4408  0.8200
 4898TIP3   OH238888   2.209   7.332   9.872 -0.9788  0.1873 -0.5839
 4898TIP3    H138889   2.162   7.291   9.945  0.4118 -0.0330  0.2141
 4898TIP3    H238890   2.231   7.419   9.904 -2.6981  1.1194 -1.7630
 4899TIP3   OH238891   0.469   4.020  10.199  0.2132 -0.0799  0.1405
 4899TIP3    H138892   0.405   3.984  10.138  1.9436 -1.5956 -0.9034
 4899TIP3    H238893   0.479   3.951  10.266  1.3569 -0.2733 -0.2015
 4900TIP3   OH238894   1.689   0.380  10.001  0.2590 -0.1311 -0.9510
 4900TIP3    H138895   1.748   0.441   9.957 -0.2091  0.6169 -0.5557
 4900TIP3    H238896   1.714   0.385  10.093 -1.4671  1.4357 -0.5197
 4901TIP3   OH238897   2.609   1.418   9.497  0.2392  0.2566 -0.6628
 4901TIP3    H138898   2.563   1.486   9.547  0.8838 -0.1491  0.5296
 4901TIP3    H238899   2.650   1.465   9.425  1.0122  1.2237  0.3699
 4902TIP3   OH238900   7.225   7.277   9.262 -0.1670  0.3265  0.3858
 4902TIP3    H138901   7.187   7.268   9.175  0.8271 -0.1402 -0.0132
 4902TIP3    H238902   7.195   7.199   9.309  0.1630  0.0428  0.1260
 4903TIP3   OH238903   6.832   5.478   9.900  0.0481  0.1882  0.0663
 4903TIP3    H138904   6.795   5.431   9.975  0.3568 -2.5456 -1.3658
 4903TIP3    H238905   6.763   5.474   9.834 -0.1813  2.4845  0.0810
 4904TIP3   OH238906   2.649   0.592   8.052  0.2405 -0.0494  0.2556
 4904TIP3    H138907   2.617   0.630   7.970 -0.4811 -1.0549  0.0565
 4904TIP3    H238908   2.618   0.502   8.050 -0.0347 -0.0063  1.7734
 4905TIP3   OH238909   7.365   5.625   9.088  0.3028 -0.6674  0.4265
 4905TIP3    H138910   7.418   5.545   9.094  1.2579  0.0308  1.9067
 4905TIP3    H238911   7.427   5.696   9.106 -0.2416  0.5560 -2.0417
 4906TIP3   OH238912   4.054   3.418  10.595 -0.3375 -0.2435 -0.9716
 4906TIP3    H138913   4.089   3.506  10.577 -2.0786  0.4619 -1.0864
 4906TIP3    H238914   4.123   3.359  10.565  1.1156  1.0703 -0.3913
 4907TIP3   OH238915   0.528   1.448   8.870  0.2541  0.5265 -0.0586
 4907TIP3    H138916   0.461   1.463   8.802  0.1618 -0.3064 -0.1689
 4907TIP3    H238917   0.485   1.390   8.933  1.5755 -2.0263 -1.3470
 4908TIP3   OH238918   6.142   5.046   8.277 -0.1705 -0.3044 -0.0521
 4908TIP3    H138919   6.151   4.993   8.198 -1.5250 -0.9011  0.1791
 4908TIP3    H238920   6.048   5.061   8.287 -0.0075  0.0233  1.2777
 4909TIP3   OH238921   6.436   4.014  10.655 -0.4587  0.1033  0.4253
 4909TIP3    H138922   6.531   4.023  10.666 -0.1429 -0.7144 -1.2621
 4909TIP3    H238923   6.409   3.953  10.723  0.4919 -0.8428 -0.0207
 4910TIP3   OH238924   3.378   0.600   9.444  0.1773 -0.4532  0.5246
 4910TIP3    H138925   3.301   0.562   9.486 -1.5944  1.9037 -0.4001
 4910TIP3    H238926   3.405   0.535   9.379 -1.1463 -1.2464  0.7417
 4911TIP3   OH238927   6.953   5.778   9.573  0.3856  0.3776  0.0256
 4911TIP3    H138928   6.928   5.778   9.481  0.0745  1.0235  0.1008
 4911TIP3    H238929   6.894   5.716   9.615  1.3891 -0.9184 -0.4185
 4912TIP3   OH238930   3.560   1.615   9.163 -0.0768 -0.6529  0.1354
 4912TIP3    H138931   3.491   1.590   9.102  1.1459  0.1924 -1.6848
 4912TIP3    H238932   3.602   1.690   9.122  0.6871  0.0865  2.1486
 4913TIP3   OH238933   2.264   1.912   8.428  0.9987 -0.3266  0.3667
 4913TIP3    H138934   2.199   1.850   8.394  2.8091 -2.1673  0.0967
 4913TIP3    H238935   2.331   1.857   8.468  0.7647  1.6087  3.7776
 4914TIP3   OH238936   3.374   6.719   9.959  0.4383  0.0547 -0.3873
 4914TIP3    H138937   3.469   6.732   9.955  0.4560  0.7985  1.4333
 4914TIP3    H238938   3.363   6.624   9.968  0.9806 -0.0550 -0.8282
 4915TIP3   OH238939   7.631   2.822  10.505 -0.6213  0.4999 -0.1004
 4915TIP3    H138940   7.688   2.843  10.431 -1.2809 -0.2581 -0.8390
 4915TIP3    H238941   7.578   2.900  10.517  0.5862  1.2376  0.6310
 4916TIP3   OH238942   2.681   1.249   9.695  0.4476 -0.2034  0.5404
 4916TIP3    H138943   2.644   1.309   9.631 -0.1763  0.3300  1.3871
 4916TIP3    H238944   2.607   1.222   9.750  0.7757 -1.4625  0.4084
 4917TIP3   OH238945   0.388   1.346  11.220 -0.2545  0.1188  0.3018
 4917TIP3    H138946   0.363   1.262  11.182  0.4492  0.5542 -1.2267
 4917TIP3    H238947   0.415   1.325  11.309  1.0635 -1.4972 -0.4122
 4918TIP3   OH238948   6.872   0.246   9.240 -0.5071 -0.7115  0.6358
 4918TIP3    H138949   6.895   0.284   9.156 -2.4969 -0.2825  0.2335
 4918TIP3    H238950   6.928   0.290   9.303 -0.5328  0.5837 -0.2214
 4919TIP3   OH238951   6.718   1.884  10.552 -0.3551 -1.1181  0.0919
 4919TIP3    H138952   6.634   1.893  10.596  0.0195  1.0649  0.4817
 4919TIP3    H238953   6.697   1.855  10.464 -1.5309 -0.4635  0.1466
 4920TIP3   OH238954   1.344   5.774   8.888 -0.7583 -0.4494  0.7573
 4920TIP3    H138955   1.344   5.810   8.800 -1.6770  0.8444  1.2560
 4920TIP3    H238956   1.436   5.773   8.914 -0.5100 -0.5515 -0.0883
 4921TIP3   OH238957   2.853   0.695   8.514  0.0525 -0.1294 -0.1463
 4921TIP3    H138958   2.801   0.631   8.466  0.1990  1.2752 -2.3259
 4921TIP3    H238959   2.791   0.735   8.575 -1.2644  0.8415 -2.0274
 4922TIP3   OH238960   6.698   1.056  10.208 -0.1401 -0.8197 -0.0532
 4922TIP3    H138961   6.649   0.980  10.239  0.3818 -0.7757  0.8880
 4922TIP3    H238962   6.662   1.073  10.120  0.3306 -2.6777 -0.6441
 4923TIP3   OH238963   2.378   6.919   9.310 -0.1272  0.1938  0.0147
 4923TIP3    H138964   2.392   6.826   9.297 -0.2137  0.3357 -1.1710
 4923TIP3    H238965   2.465   6.958   9.307 -0.0621  0.1205  0.8254
 4924TIP3   OH238966   4.154   5.113   9.592 -0.2675 -0.0115 -0.3115
 4924TIP3    H138967   4.080   5.149   9.543 -0.4178  0.0089 -0.0722
 4924TIP3    H238968   4.129   5.024   9.613 -0.0186 -0.1621 -0.6454
 4925TIP3   OH238969   5.333   6.043   9.300 -0.0179 -0.3771  0.2501
 4925TIP3    H138970   5.298   6.114   9.246  0.5812 -0.1951  0.0946
 4925TIP3    H238971   5.427   6.059   9.302  0.0907 -1.0384  0.4127
 4926TIP3   OH238972   7.248   0.378  10.317  0.5459 -0.6816 -0.3492
 4926TIP3    H138973   7.192   0.443  10.275 -0.0061 -0.7474  0.2688
 4926TIP3    H238974   7.211   0.294  10.291 -0.4454 -0.7237  1.0762
 4927TIP3   OH238975   1.247   2.006  10.304  0.4758 -0.1990 -0.0832
 4927TIP3    H138976   1.164   2.049  10.322  0.7361 -0.3809  1.7234
 4927TIP3    H238977   1.225   1.914  10.289  0.3781 -0.2901  0.6313
 4928TIP3   OH238978   2.880   6.665  10.332  0.3687  0.5448  0.6881
 4928TIP3    H138979   2.799   6.657  10.383 -0.4293 -0.6126 -0.7040
 4928TIP3    H238980   2.927   6.583  10.349  0.1436  0.1919 -0.3143
 4929TIP3   OH238981   5.189   6.730   9.133 -0.4511  0.2595 -0.1914
 4929TIP3    H138982   5.280   6.715   9.158 -0.6602 -0.1109  0.3671
 4929TIP3    H238983   5.141   6.659   9.175 -1.0727  0.7953  0.0046
 4930TIP3   OH238984   2.651   6.456  10.142  0.5656 -0.1819  0.5333
 4930TIP3    H138985   2.609   6.385  10.094 -1.5141  1.6917 -0.5974
 4930TIP3    H238986   2.698   6.412  10.213  2.8420 -2.9957 -2.4231
 4931TIP3   OH238987   3.126   0.169   9.740 -0.5587 -0.2673  0.2895
 4931TIP3    H138988   3.118   0.125   9.655  0.3394  0.2431 -0.0784
 4931TIP3    H238989   3.038   0.167   9.777 -0.7653 -1.3412 -0.2281
 4932TIP3   OH238990   2.794   3.839  11.051 -0.6767 -0.5330  0.1757
 4932TIP3    H138991   2.762   3.922  11.086  1.3522  0.0202  0.8657
 4932TIP3    H238992   2.861   3.811  11.113  1.1599 -0.8829 -1.8407
 4933TIP3   OH238993   4.383   3.317   9.301 -0.4713  0.4631 -0.2653
 4933TIP3    H138994   4.463   3.270   9.324 -0.1474  1.4481  0.6950
 4933TIP3    H238995   4.408   3.375   9.230 -0.2930  0.8252  0.0845
 4934TIP3   OH238996   5.607   6.475   8.852  0.2134  0.4333 -0.0832
 4934TIP3    H138997   5.535   6.506   8.797 -0.2531 -2.6845 -1.4835
 4934TIP3    H238998   5.567   6.460   8.938 -0.3798  0.4339 -0.3505
 4935TIP3   OH238999   4.226   7.553  10.098  0.2128  0.1226  0.2258
 4935TIP3    H139000   4.225   7.475  10.043  0.5497 -0.4639  1.0368
 4935TIP3    H239001   4.226   7.626  10.036 -0.1902 -0.5142 -0.5413
 4936TIP3   OH239002   7.536   3.701  10.061  0.3568 -0.0248  0.4552
 4936TIP3    H139003   7.567   3.642  10.129  1.9815  0.8688  0.5474
 4936TIP3    H239004   7.588   3.781  10.073  1.4185 -0.1503 -2.3843
 4937TIP3   OH239005   6.866   1.544  10.214  0.3632 -0.6137 -0.0723
 4937TIP3    H139006   6.803   1.474  10.233  0.5066 -0.3341  1.5733
 4937TIP3    H239007   6.863   1.600  10.292  2.6917 -0.6252  0.0843
 4938TIP3   OH239008   5.888   3.294   9.732  0.2168  0.0455 -0.2412
 4938TIP3    H139009   5.844   3.220   9.689 -1.0338  0.5991  0.0377
 4938TIP3    H239010   5.894   3.361   9.664 -0.6042  0.4539  0.0746
 4939TIP3   OH239011   5.316   0.788   9.051  0.0200  0.1919 -0.3644
 4939TIP3    H139012   5.393   0.818   9.099  0.2996 -0.9960 -0.0432
 4939TIP3    H239013   5.350   0.742   8.975 -0.3838  0.1691 -0.5356
 4940TIP3   OH239014   2.918   7.442  10.285  0.1595 -0.0859 -0.6993
 4940TIP3    H139015   2.940   7.518  10.231 -1.0966  0.3481 -0.6454
 4940TIP3    H239016   2.921   7.368  10.225 -1.8293  0.4717 -1.5577
 4941TIP3   OH239017   0.026   4.333   9.556  0.0595  0.1349  0.2384
 4941TIP3    H139018   0.091   4.296   9.615  0.7534  0.1949 -0.4775
 4941TIP3    H239019   0.065   4.327   9.469 -0.9191  0.1019 -0.2191
 4942TIP3   OH239020   4.443   1.724  11.432 -0.1675  0.5647 -0.1208
 4942TIP3    H139021   4.419   1.705  11.523  1.2789  0.2108  0.2166
 4942TIP3    H239022   4.503   1.654  11.408  0.1435  1.1354 -1.0590
 4943TIP3   OH239023   2.405   1.746  10.739 -0.2972 -0.4146 -0.3047
 4943TIP3    H139024   2.361   1.743  10.824  0.6364  2.2826  0.3734
 4943TIP3    H239025   2.351   1.804  10.685 -1.0949 -2.4018 -1.7512
 4944TIP3   OH239026   4.923   2.755  10.721 -0.3755 -0.2034  0.4979
 4944TIP3    H139027   4.846   2.699  10.722 -0.3700 -0.2407 -0.4268
 4944TIP3    H239028   4.930   2.786  10.631 -0.9972  2.1730  1.1844
 4945TIP3   OH239029   0.565   4.090   8.747  0.2642  0.1260 -0.7010
 4945TIP3    H139030   0.490   4.035   8.769  0.7599 -1.1401 -1.9887
 4945TIP3    H239031   0.620   4.090   8.826 -1.2949  1.5239  0.4507
 4946TIP3   OH239032   6.507   2.004   9.440  0.1975 -0.1735  0.4804
 4946TIP3    H139033   6.467   1.991   9.354  0.6440  1.0039  0.0729
 4946TIP3    H239034   6.441   1.975   9.503 -1.5110  2.1544 -0.1453
 4947TIP3   OH239035   2.752   6.265  10.313  0.2375  0.1421  0.4539
 4947TIP3    H139036   2.680   6.278  10.375 -2.5153  0.2522 -2.5099
 4947TIP3    H239037   2.752   6.172  10.294 -0.1643  0.3597 -0.6824
 4948TIP3   OH239038   7.009   0.908  10.674 -0.1448  0.4921 -0.6453
 4948TIP3    H139039   6.954   0.866  10.608 -1.2216  0.4069  0.2809
 4948TIP3    H239040   7.013   1.000  10.646 -0.0589  0.3399 -1.1592
 4949TIP3   OH239041   4.793   5.479   9.149 -0.5351 -0.0988 -0.1476
 4949TIP3    H139042   4.873   5.524   9.175  0.8880 -3.0600  1.1528
 4949TIP3    H239043   4.824   5.398   9.107 -2.8495 -1.0032 -0.2757
 4950TIP3   OH239044   5.914   2.692  10.201 -0.8832 -0.1607  0.0057
 4950TIP3    H139045   5.918   2.758  10.132 -2.0495 -0.7835 -0.6953
 4950TIP3    H239046   5.862   2.621  10.163 -1.7470 -0.4288  1.5987
 4951TIP3   OH239047   3.539   5.552   9.276 -0.4456  0.0762 -0.1067
 4951TIP3    H139048   3.540   5.639   9.316 -0.9130 -0.0059  0.0893
 4951TIP3    H239049   3.544   5.569   9.182 -1.2790  0.3504 -0.1067
 4952TIP3   OH239050   7.519   0.013   8.970  0.6975  0.6988 -0.1900
 4952TIP3    H139051   7.589  -0.005   8.907 -0.1651 -0.9433 -0.7181
 4952TIP3    H239052   7.509   0.109   8.967  0.8587  0.6982 -2.3717
 4953TIP3   OH239053   0.839   4.982   9.918  0.3477  0.0230 -0.6541
 4953TIP3    H139054   0.810   4.904   9.870 -0.2734  0.0939 -0.3991
 4953TIP3    H239055   0.813   5.056   9.862  2.5851  0.0201 -1.8018
 4954TIP3   OH239056   5.093   0.373  10.907  0.1830  0.2824 -0.3158
 4954TIP3    H139057   5.140   0.290  10.908 -1.2551 -0.5689  0.1641
 4954TIP3    H239058   5.002   0.349  10.889 -0.7631  1.4348  2.3132
 4955TIP3   OH239059   1.765   0.260  10.807  0.1277  0.2089  0.0379
 4955TIP3    H139060   1.752   0.304  10.722 -0.1690 -0.1139 -0.0853
 4955TIP3    H239061   1.809   0.178  10.785 -0.3116 -0.0607  0.1514
 4956TIP3   OH239062   7.543   3.549  10.457  0.1558  0.2923  0.2230
 4956TIP3    H139063   7.523   3.467  10.411  0.6302  0.4978 -0.3596
 4956TIP3    H239064   7.472   3.559  10.520  0.1764 -0.6542  0.4138
 4957TIP3   OH239065   2.259   0.761  10.256 -0.0235 -0.5556  0.1036
 4957TIP3    H139066   2.203   0.685  10.240 -1.5187  0.6082 -0.4760
 4957TIP3    H239067   2.262   0.770  10.351 -2.0296  0.1524  0.1512
 4958TIP3   OH239068   0.445   4.119   9.598 -0.2284 -0.7503 -0.4478
 4958TIP3    H139069   0.402   4.203   9.611 -1.6037 -1.5793  0.6357
 4958TIP3    H239070   0.394   4.077   9.527 -0.6041 -1.3226  0.1464
 4959TIP3   OH239071   1.802   6.311  10.128 -0.1414 -0.0700  0.7407
 4959TIP3    H139072   1.763   6.244  10.071 -0.0272 -0.3351  0.9724
 4959TIP3    H239073   1.727   6.353  10.170 -0.2520  0.4696  0.0136
 4960TIP3   OH239074   4.690   6.166  10.877 -0.8053 -0.1263  0.0472
 4960TIP3    H139075   4.609   6.149  10.924 -0.1095 -0.3277  1.2367
 4960TIP3    H239076   4.740   6.085  10.886 -0.4350  0.0276 -0.5847
 4961TIP3   OH239077   5.510   2.754   8.709  0.3485 -0.0607 -0.2179
 4961TIP3    H139078   5.601   2.780   8.724  0.5930  0.4602 -2.2848
 4961TIP3    H239079   5.516   2.666   8.673 -0.1886 -1.1894  2.2937
 4962TIP3   OH239080   7.192   1.086   8.812 -0.0232 -0.5618  0.0347
 4962TIP3    H139081   7.218   1.171   8.849 -0.7890 -0.4488  0.3434
 4962TIP3    H239082   7.274   1.042   8.793  0.5451  1.4913 -3.1026
 4963TIP3   OH239083   6.452   5.606   9.062 -0.7296  0.3001  0.1941
 4963TIP3    H139084   6.402   5.524   9.063  0.6654 -0.6148 -0.6243
 4963TIP3    H239085   6.388   5.674   9.081 -2.0122 -0.9447  0.4940
 4964TIP3   OH239086   2.027   5.892   9.327  0.1155 -0.2271 -0.2633
 4964TIP3    H139087   2.042   5.936   9.244 -1.8625  0.1762 -0.4416
 4964TIP3    H239088   2.037   5.961   9.393 -1.1645  0.1288 -0.4103
 4965TIP3   OH239089   1.956   5.086   9.093  0.3178  0.5653 -0.2731
 4965TIP3    H139090   1.900   5.018   9.131  0.7473  0.1676 -0.3390
 4965TIP3    H239091   1.948   5.074   8.999  0.6267  0.4102 -0.2807
 4966TIP3   OH239092   0.586   6.904  10.217  0.4939  0.4393  0.0048
 4966TIP3    H139093   0.545   6.845  10.154  0.8889  0.7335 -0.5456
 4966TIP3    H239094   0.517   6.963  10.244  0.0523 -0.3699  0.6898
 4967TIP3   OH239095   4.547   0.672  10.053  0.7974  0.6203 -0.5577
 4967TIP3    H139096   4.469   0.718  10.084  1.5632  1.7364 -0.2492
 4967TIP3    H239097   4.539   0.584  10.090 -0.8354  0.3750 -1.3910
 4968TIP3   OH239098   5.868   7.554  10.962  0.0688  0.0118 -0.5012
 4968TIP3    H139099   5.871   7.627  10.900  1.1025  1.0267  0.7069
 4968TIP3    H239100   5.925   7.580  11.034  0.8591 -2.2048 -0.2525
 4969TIP3   OH239101   2.847   2.423  10.325 -0.8075  0.0860  0.7029
 4969TIP3    H139102   2.779   2.471  10.277  0.1587  0.4668 -0.3226
 4969TIP3    H239103   2.831   2.444  10.417 -0.6598  2.0921  0.3227
 4970TIP3   OH239104   0.281   3.482   9.798  0.3674 -0.7395 -0.0643
 4970TIP3    H139105   0.198   3.439   9.777  0.2609 -0.9106  0.6725
 4970TIP3    H239106   0.299   3.456   9.889 -0.4969  2.0087  0.9860
 4971TIP3   OH239107   2.399   3.082  10.178  0.0041 -0.5183  0.1709
 4971TIP3    H139108   2.466   3.021  10.207  0.0655 -0.9407 -0.8394
 4971TIP3    H239109   2.365   3.120  10.259 -0.0621 -1.9103  0.8211
 4972TIP3   OH239110   0.678   2.975  10.689 -0.1365  0.5312 -0.1341
 4972TIP3    H139111   0.590   2.960  10.723 -0.6306 -0.9077 -1.9508
 4972TIP3    H239112   0.726   3.010  10.764 -1.6626 -0.7200  1.5134
 4973TIP3   OH239113   1.755   2.186   9.730  0.2238 -0.2016  0.5105
 4973TIP3    H139114   1.665   2.186   9.697 -0.7658  0.7218  2.9689
 4973TIP3    H239115   1.794   2.265   9.693 -0.6816  0.5271  1.0541
 4974TIP3   OH239116   5.184   7.303   9.481  0.0584 -0.0618  0.1402
 4974TIP3    H139117   5.191   7.210   9.503 -0.0661 -0.3214 -0.8603
 4974TIP3    H239118   5.156   7.345   9.562 -0.0154 -0.9187  0.5665
 4975TIP3   OH239119   3.092   1.582   8.932 -0.3167  0.4103 -0.3711
 4975TIP3    H139120   3.164   1.521   8.946 -0.9386 -0.2252  0.1357
 4975TIP3    H239121   3.061   1.604   9.020 -2.0991 -0.9859 -0.6029
 4976TIP3   OH239122   6.976   4.211   8.271  0.2576 -0.1476 -0.7788
 4976TIP3    H139123   6.972   4.173   8.359 -0.9789  1.4235 -0.1100
 4976TIP3    H239124   7.061   4.255   8.267  0.7177 -1.0053 -0.7419
 4977TIP3   OH239125   3.494   5.171   9.143  0.2871  0.9125 -0.0651
 4977TIP3    H139126   3.445   5.119   9.081  0.0841  1.8257 -0.6940
 4977TIP3    H239127   3.428   5.221   9.191  0.4261  0.0707  1.0388
 4978TIP3   OH239128   1.080   7.669  11.211  0.0552 -0.1239 -0.5433
 4978TIP3    H139129   1.097   7.742  11.152  0.8007  0.6122  0.5310
 4978TIP3    H239130   1.141   7.683  11.284  1.5186 -2.7945 -1.1066
 4979TIP3   OH239131   0.927   5.587  10.631  0.0853 -0.0647  0.3932
 4979TIP3    H139132   1.003   5.537  10.662  0.0233 -1.2663 -1.2750
 4979TIP3    H239133   0.852   5.539  10.666  0.0188  1.5919  2.7511
 4980TIP3   OH239134   4.614   4.457   8.783  0.3961 -0.6360 -0.5206
 4980TIP3    H139135   4.593   4.522   8.716  0.4982 -0.1969 -0.1307
 4980TIP3    H239136   4.601   4.373   8.739 -0.9852 -0.3726 -0.6613
 4981TIP3   OH239137   0.038   7.023   9.945  0.0628  0.0840  0.1974
 4981TIP3    H139138   0.035   6.932   9.975  0.4662  0.0543  0.1597
 4981TIP3    H239139   0.041   7.074  10.026 -0.6039  0.0853  0.2235
 4982TIP3   OH239140   6.974   6.680  10.970  0.0164  0.2895  0.7339
 4982TIP3    H139141   7.039   6.747  10.989 -0.5564  1.4301 -1.0383
 4982TIP3    H239142   7.025   6.601  10.954  0.8072  0.6484  1.4115
 4983TIP3   OH239143   0.197   2.913  10.055  0.1454 -0.6776 -0.3385
 4983TIP3    H139144   0.117   2.895  10.105 -0.1797 -1.5859 -1.1434
 4983TIP3    H239145   0.182   2.870   9.971  0.7822  0.6057 -1.1337
 4984TIP3   OH239146   6.065   6.417   9.773 -0.4507  0.0052  0.2024
 4984TIP3    H139147   6.041   6.432   9.865 -1.9986 -1.2891  0.0521
 4984TIP3    H239148   6.013   6.341   9.747  0.5273 -0.1176 -1.5429
 4985TIP3   OH239149   1.952   0.652  10.112  0.6211  0.7174  0.4403
 4985TIP3    H139150   1.922   0.673  10.024 -1.2413  0.1199  0.8999
 4985TIP3    H239151   1.915   0.721  10.167 -1.2040 -0.8158  1.2189
 4986TIP3   OH239152   0.060   4.582  10.665  0.1987 -0.2025  0.1469
 4986TIP3    H139153   0.101   4.659  10.626 -2.1161  1.9590  1.6546
 4986TIP3    H239154   0.101   4.575  10.752 -0.4846  0.1064  0.4956
 4987TIP3   OH239155   5.537   1.257   9.387 -0.0146  0.6952  0.0040
 4987TIP3    H139156   5.478   1.327   9.362  1.2890  0.8369 -3.1879
 4987TIP3    H239157   5.615   1.302   9.421  0.5169  0.8411 -1.3300
 4988TIP3   OH239158   6.147   5.767   9.705  0.2332  0.1402 -0.4318
 4988TIP3    H139159   6.133   5.702   9.635  0.9034  0.2061 -0.6349
 4988TIP3    H239160   6.172   5.847   9.658  2.2851 -0.2373 -0.0738
 4989TIP3   OH239161   5.289   5.945   9.723  0.5479  0.3452  0.1536
 4989TIP3    H139162   5.210   5.982   9.683  0.8717  0.2103 -0.6423
 4989TIP3    H239163   5.351   5.937   9.650  1.1671  0.1003  0.6945
 4990TIP3   OH239164   3.584   1.125   9.291 -0.9944 -0.0146  0.3455
 4990TIP3    H139165   3.641   1.154   9.362  0.1618 -0.1942 -0.4881
 4990TIP3    H239166   3.497   1.122   9.330 -0.8601  2.5190  1.0561
 4991TIP3   OH239167   3.615   1.620  10.138  0.8104 -0.3269  0.1770
 4991TIP3    H139168   3.552   1.603  10.208 -0.5785 -0.6105 -1.0849
 4991TIP3    H239169   3.619   1.715  10.131  0.8455 -0.3001  0.5276
 4992TIP3   OH239170   0.544   1.567  10.654 -0.1854 -0.2307  0.0400
 4992TIP3    H139171   0.634   1.547  10.677  0.0982 -1.4781 -1.8971
 4992TIP3    H239172   0.518   1.636  10.715  1.3544 -1.3052  2.0265
 4993TIP3   OH239173   6.719   7.181   9.562  0.3729  0.3003  0.2323
 4993TIP3    H139174   6.680   7.107   9.515  1.9289  0.2476 -1.0898
 4993TIP3    H239175   6.803   7.147   9.594  0.4634  1.0848  0.8451
 4994TIP3   OH239176   4.975   2.236   9.559 -0.1648 -0.2473  0.0938
 4994TIP3    H139177   4.967   2.272   9.470 -0.3454 -0.8287 -0.1283
 4994TIP3    H239178   4.975   2.313   9.616 -0.5378  0.1045 -0.3745
 4995TIP3   OH239179   3.616   2.757  10.005  0.2141  0.1032 -0.1310
 4995TIP3    H139180   3.603   2.666   9.979  1.5817  0.2410 -1.4354
 4995TIP3    H239181   3.710   2.765  10.018  0.2200  1.5077 -0.8087
 4996TIP3   OH239182   4.735   2.789  10.015  0.2038 -0.1424  0.2355
 4996TIP3    H139183   4.734   2.860   9.950  1.4034  0.8296  1.2218
 4996TIP3    H239184   4.738   2.709   9.963 -1.4699  0.4889 -0.9138
 4997TIP3   OH239185   5.384   0.936   9.759 -0.0534 -0.4784 -0.1699
 4997TIP3    H139186   5.351   0.996   9.826  1.9565 -0.1579  0.6065
 4997TIP3    H239187   5.456   0.984   9.718  0.9608 -1.9659 -0.2175
 4998TIP3   OH239188   2.248   0.487   9.707  0.0791  0.0187 -0.4534
 4998TIP3    H139189   2.287   0.400   9.712 -0.1189 -0.0693 -0.4357
 4998TIP3    H239190   2.215   0.503   9.795 -0.0057  0.0554 -0.4921
 4999TIP3   OH239191   0.218   5.808   9.203 -0.4943  0.0126 -0.0874
 4999TIP3    H139192   0.265   5.888   9.179 -1.2615  0.9143  1.3096
 4999TIP3    H239193   0.270   5.738   9.164 -0.4270  1.2219 -2.3438
 5000TIP3   OH239194   0.720   6.465   9.829 -0.4011  0.2837  0.0838
 5000TIP3    H139195   0.646   6.404   9.833  1.0472 -1.6945 -1.0304
 5000TIP3    H239196   0.793   6.417   9.868  0.7274  1.4461 -0.5071
 5001TIP3   OH239197   1.863   2.537  10.423  0.2456 -0.1827  0.3756
 5001TIP3    H139198   1.813   2.606  10.465 -1.0148 -1.2523  0.6984
 5001TIP3    H239199   1.858   2.558  10.329 -0.2250  0.0938  0.4597
 5002TIP3   OH239200   7.277   1.932  10.161 -0.3348  0.1364 -0.3083
 5002TIP3    H139201   7.242   1.853  10.202  1.2648 -0.2966  0.2845
 5002TIP3    H239202   7.291   1.908  10.070 -2.7867  0.7432 -0.9315
 5003TIP3   OH239203   4.936   0.672   9.397 -0.2805 -0.1876  0.7370
 5003TIP3    H139204   5.027   0.702   9.389  0.0284 -1.1450  0.5298
 5003TIP3    H239205   4.888   0.749   9.427  0.7672  0.1038  1.7564
 5004TIP3   OH239206   6.369   3.888   9.572 -0.4712  0.1447 -0.2088
 5004TIP3    H139207   6.426   3.928   9.638  0.1508 -1.8152  0.5199
 5004TIP3    H239208   6.290   3.863   9.620 -0.1252 -1.0518 -0.2224
 5005TIP3   OH239209   7.396   7.410  10.206 -0.6229  0.1657 -0.2549
 5005TIP3    H139210   7.465   7.379  10.264 -1.1387 -1.0364 -0.2551
 5005TIP3    H239211   7.429   7.392  10.118 -0.6972  0.1256 -0.2744
 5006TIP3   OH239212   7.410   5.097   9.844 -0.2786 -0.2671 -0.2811
 5006TIP3    H139213   7.460   5.175   9.868  2.9988 -2.1506 -0.4957
 5006TIP3    H239214   7.376   5.064   9.928  0.8455 -0.2108  0.2054
 5007TIP3   OH239215   3.578   5.710   9.751  0.4373  0.0068 -0.2163
 5007TIP3    H139216   3.621   5.626   9.762 -1.2146 -1.1567 -2.0586
 5007TIP3    H239217   3.572   5.746   9.840  4.3110 -0.1055  0.2250
 5008TIP3   OH239218   7.286   5.962   9.269  0.1360  0.0158 -0.2673
 5008TIP3    H139219   7.301   5.953   9.175  0.3814 -0.2027 -0.2094
 5008TIP3    H239220   7.372   5.984   9.305 -0.0186  0.3875 -0.1302
 5009TIP3   OH239221   4.459   3.522   9.144  0.1124  0.1302 -0.1227
 5009TIP3    H139222   4.417   3.570   9.073  3.8457  2.5209 -1.0101
 5009TIP3    H239223   4.510   3.455   9.100  0.1727 -0.2798  0.5722
 5010TIP3   OH239224   7.328   0.227  10.565 -0.7437 -0.2124  0.3073
 5010TIP3    H139225   7.294   0.272  10.487 -0.5689 -0.7431 -0.0792
 5010TIP3    H239226   7.352   0.140  10.534 -0.9288 -0.5253  1.0177
 5011TIP3   OH239227   5.980   7.250  10.506 -0.2112  0.0781  0.4253
 5011TIP3    H139228   6.001   7.304  10.582  1.3397  0.1922 -0.0358
 5011TIP3    H239229   6.052   7.187  10.501 -0.2291  0.1346 -0.9982
 5012TIP3   OH239230   4.537   2.552   8.991  0.3485  0.3706 -0.1950
 5012TIP3    H139231   4.526   2.523   9.082 -0.1445  0.2930 -0.2738
 5012TIP3    H239232   4.619   2.512   8.963 -1.3290 -2.9207 -1.0074
 5013TIP3   OH239233   7.331   5.301   8.407  0.7206  0.5029 -0.3627
 5013TIP3    H139234   7.375   5.249   8.474  1.6591  1.2190 -0.3965
 5013TIP3    H239235   7.238   5.290   8.426  0.9560  1.0718  1.3792
 5014TIP3   OH239236   2.140   4.202  10.370 -0.0739  0.1254  0.8096
 5014TIP3    H139237   2.181   4.125  10.410 -0.6418 -0.3308  0.5429
 5014TIP3    H239238   2.079   4.233  10.437 -1.3453 -0.8978  0.1948
 5015TIP3   OH239239   1.434   3.985   9.053  0.1987  0.9139  0.6378
 5015TIP3    H139240   1.372   3.913   9.041 -0.3214  1.7261 -2.3071
 5015TIP3    H239241   1.414   4.046   8.981  4.9659  0.7936 -1.1374
 5016TIP3   OH239242   2.449   5.840   9.330 -0.4720 -0.1787 -0.2310
 5016TIP3    H139243   2.381   5.888   9.282  1.0800  0.8948 -1.4616
 5016TIP3    H239244   2.473   5.768   9.272 -1.3529 -1.2969  0.7282
 5017TIP3   OH239245   1.349   7.523  10.588  0.3096 -0.2270  0.0702
 5017TIP3    H139246   1.425   7.532  10.530 -1.1697  1.5463 -1.7201
 5017TIP3    H239247   1.307   7.442  10.560  1.3061 -1.0556  0.8650
 5018TIP3   OH239248   6.441   1.565  10.667  0.1931  0.0383  0.1605
 5018TIP3    H139249   6.455   1.574  10.572  0.2688  0.3989  0.2060
 5018TIP3    H239250   6.354   1.602  10.682 -1.1254 -2.6781 -0.1960
 5019TIP3   OH239251   6.283   1.001  10.534  0.3886 -0.9835 -0.2815
 5019TIP3    H139252   6.221   0.991  10.607 -0.2014  0.9198 -0.4627
 5019TIP3    H239253   6.351   1.058  10.569  0.9242 -1.3265 -0.7602
 5020TIP3   OH239254   3.504   4.088  11.095  0.2464  0.6586  0.0004
 5020TIP3    H139255   3.415   4.063  11.120  0.3524 -0.8554 -1.0296
 5020TIP3    H239256   3.535   4.016  11.040  2.4113  0.7497  0.9943
 5021TIP3   OH239257   3.608   4.799  10.669  0.4286  0.5864  0.1489
 5021TIP3    H139258   3.561   4.821  10.750  0.3745  1.4177 -0.0940
 5021TIP3    H239259   3.701   4.805  10.693  0.4213  1.5494 -0.0143
 5022TIP3   OH239260   2.928   7.658  10.121  0.3363  0.4654  0.0927
 5022TIP3    H139261   2.851   7.657  10.065  0.8845 -1.3894 -0.6916
 5022TIP3    H239262   2.912   7.730  10.182 -0.6723  1.9926 -1.8623
 5023TIP3   OH239263   2.086   6.473   9.402  0.1438 -0.1736  0.0994
 5023TIP3    H139264   1.995   6.469   9.375  0.0360 -3.5137  0.5276
 5023TIP3    H239265   2.136   6.467   9.320  0.0385  1.4959 -0.1207
 5024TIP3   OH239266   0.774   2.665   9.129  0.3044  0.1666  0.2808
 5024TIP3    H139267   0.753   2.684   9.221  1.4583  0.5759  0.4765
 5024TIP3    H239268   0.814   2.746   9.097  0.2934 -0.1203 -0.4741
 5025TIP3   OH239269   3.190   2.009   9.574  0.9562 -0.6674 -0.1416
 5025TIP3    H139270   3.118   1.948   9.556  0.3426  0.2951 -1.0782
 5025TIP3    H239271   3.230   2.023   9.488  0.7098  0.7036 -0.0485
 5026TIP3   OH239272   2.992   4.469   9.806  0.2404  0.3100  0.4615
 5026TIP3    H139273   2.987   4.379   9.838 -1.1783 -0.1944 -1.0836
 5026TIP3    H239274   2.969   4.522   9.882  0.5335 -0.6378  1.2387
 5027TIP3   OH239275   5.020   4.103   9.879  0.6724 -0.0762  0.5443
 5027TIP3    H139276   4.931   4.103   9.915  0.9621  1.2152  1.3482
 5027TIP3    H239277   5.013   4.055   9.796 -0.7374 -0.1458  0.6834
 5028TIP3   OH239278   4.681   3.527  10.243  0.0922 -0.3277  0.5647
 5028TIP3    H139279   4.642   3.614  10.231  1.5315  0.6014  2.1837
 5028TIP3    H239280   4.746   3.539  10.312  0.8010 -2.5687  0.3696
 5029TIP3   OH239281   6.909   1.854  10.128  0.0214 -0.0557  0.0608
 5029TIP3    H139282   6.980   1.800  10.164 -0.5036 -1.4680 -0.9422
 5029TIP3    H239283   6.954   1.915  10.069  0.5490  0.0689  0.5831
 5030TIP3   OH239284   4.070   2.453   8.901  0.2366 -0.1325 -0.0321
 5030TIP3    H139285   4.049   2.541   8.931 -0.1217  0.1990 -1.1903
 5030TIP3    H239286   4.153   2.462   8.854 -0.7181 -0.0045 -1.8003
 5031TIP3   OH239287   3.587   2.063   9.515 -0.1215  0.1112 -0.0287
 5031TIP3    H139288   3.536   1.994   9.473 -1.0723  1.6990 -1.5765
 5031TIP3    H239289   3.526   2.137   9.523  1.5773  1.6547 -0.8116
 5032TIP3   OH239290   6.025   2.044  10.249  0.0557  0.0381  0.3338
 5032TIP3    H139291   6.002   1.961  10.209  1.6040 -0.1896 -0.1730
 5032TIP3    H239292   5.984   2.111  10.194 -1.0659 -0.3642  0.6579
 5033TIP3   OH239293   2.410   4.153   9.184  0.3060 -0.0341 -0.0506
 5033TIP3    H139294   2.368   4.132   9.100  1.2756  1.8422 -1.0526
 5033TIP3    H239295   2.345   4.203   9.232  0.0527 -0.3852 -0.0247
 5034TIP3   OH239296   2.295   7.338  10.497  0.0342  0.1968  0.0129
 5034TIP3    H139297   2.320   7.404  10.562  0.7855 -0.8480  0.8251
 5034TIP3    H239298   2.354   7.353  10.423 -0.2476  0.8508 -0.0799
 5035TIP3   OH239299   0.887   3.005  10.297 -0.2826 -0.3800 -0.2451
 5035TIP3    H139300   0.934   2.980  10.377 -0.5935 -0.5999 -0.1259
 5035TIP3    H239301   0.797   2.979  10.314 -0.4131 -0.1220 -0.5404
 5036TIP3   OH239302   2.811   0.430  10.765  0.2123  0.4656  0.3302
 5036TIP3    H139303   2.743   0.497  10.775  0.8250  0.8646  2.2964
 5036TIP3    H239304   2.871   0.465  10.699 -1.8707 -0.2963 -2.1380
 5037TIP3   OH239305   2.929   6.122  10.926  0.6571 -0.2841 -0.4068
 5037TIP3    H139306   2.857   6.141  10.866  1.3892 -0.7652 -1.4806
 5037TIP3    H239307   3.005   6.163  10.885  1.2308 -0.8848  0.0447
 5038TIP3   OH239308   5.450   4.597  10.360  0.1651  0.1902 -0.2170
 5038TIP3    H139309   5.446   4.501  10.356  0.4900  0.2150 -1.2766
 5038TIP3    H239310   5.417   4.618  10.448  0.8836 -0.9321  0.3430
 5039TIP3   OH239311   3.203   6.902  10.286 -0.1237  0.2854  0.0306
 5039TIP3    H139312   3.183   6.890  10.193 -0.6326 -2.1282  0.3879
 5039TIP3    H239313   3.198   6.997  10.300  1.8132  0.9241 -2.7788
 5040TIP3   OH239314   6.518   6.647   9.445  0.1349  0.1232  0.1480
 5040TIP3    H139315   6.461   6.722   9.461 -1.5705 -1.4166  1.7729
 5040TIP3    H239316   6.605   6.677   9.471 -0.4990  1.5342  0.7260
 5041TIP3   OH239317   1.092   3.975   9.311  0.2858  0.7397  0.4058
 5041TIP3    H139318   1.028   3.928   9.257  0.1947  1.2017  0.1053
 5041TIP3    H239319   1.040   4.021   9.376  0.4007  0.1294  0.9374
 5042TIP3   OH239320   1.496   6.278  10.956 -0.4328  0.0709  0.1282
 5042TIP3    H139321   1.412   6.235  10.946  0.3958 -1.9828  1.4184
 5042TIP3    H239322   1.474   6.370  10.973 -2.3285 -0.1712 -0.7958
 5043TIP3   OH239323   6.508   6.867   9.196 -0.0588  0.1758 -0.0878
 5043TIP3    H139324   6.451   6.820   9.135 -1.5745  0.8843  0.7281
 5043TIP3    H239325   6.485   6.960   9.183  0.0909  0.3828  1.0710
 5044TIP3   OH239326   3.993   3.601   9.189  0.2036  0.7613  0.4254
 5044TIP3    H139327   3.991   3.593   9.284 -1.2407  2.3700  0.5661
 5044TIP3    H239328   3.902   3.589   9.162  0.4785  1.1004 -0.6920
 5045TIP3   OH239329   4.803   0.656  10.835 -0.0396 -0.1357  0.3503
 5045TIP3    H139330   4.761   0.727  10.884  2.2444  1.3548  0.2996
 5045TIP3    H239331   4.860   0.701  10.773  1.1928 -2.0226  0.0457
 5046TIP3   OH239332   4.657   5.729   8.316 -0.0118 -0.2775 -0.0379
 5046TIP3    H139333   4.677   5.749   8.408 -0.2048  1.4852 -0.3534
 5046TIP3    H239334   4.743   5.711   8.277  0.2155  0.3042  0.1861
 5047TIP3   OH239335   5.222   4.491   9.357  0.0375 -0.3379  0.1909
 5047TIP3    H139336   5.244   4.446   9.275  0.7917 -0.8676  0.6759
 5047TIP3    H239337   5.145   4.543   9.335 -0.1588 -0.9684 -0.6934
 5048TIP3   OH239338   0.374   0.109   8.721 -0.0164  0.2669 -0.5196
 5048TIP3    H139339   0.430   0.045   8.677 -1.2894 -1.1325 -0.1643
 5048TIP3    H239340   0.436   0.167   8.766  1.1732 -0.9181 -0.5474
 5049TIP3   OH239341   3.431   2.482   9.279  0.4119  0.4199  0.2399
 5049TIP3    H139342   3.350   2.526   9.251  0.8822  0.6705 -0.7819
 5049TIP3    H239343   3.486   2.483   9.201  0.8887 -0.9450  0.5355
 5050TIP3   OH239344   5.745   7.072  10.525 -0.0929 -0.3307  0.4825
 5050TIP3    H139345   5.754   7.069  10.620 -2.0851  0.6819  0.7568
 5050TIP3    H239346   5.818   7.126  10.496  0.9780 -1.2736  1.3439
 5051TIP3   OH239347   0.951   3.864  11.052  0.1944 -0.4592 -0.0454
 5051TIP3    H139348   0.862   3.899  11.044 -0.0362 -0.3593  2.1855
 5051TIP3    H239349   1.008   3.939  11.037 -0.1071 -0.3601 -0.7402
 5052TIP3   OH239350   6.720   5.624   9.611 -0.1679  0.0558  0.4206
 5052TIP3    H139351   6.635   5.583   9.592  0.2964 -1.3027  1.1730
 5052TIP3    H239352   6.699   5.700   9.665 -0.9806  0.3810 -0.3248
 5053TIP3   OH239353   0.931   0.541  10.389  0.0116  0.1500 -0.2950
 5053TIP3    H139354   0.972   0.474  10.444 -0.3206 -0.2859 -0.5729
 5053TIP3    H239355   0.851   0.501  10.357  0.2690  0.3352 -1.2197
 5054TIP3   OH239356   5.823   0.295  10.617 -0.0010 -0.3367 -0.3833
 5054TIP3    H139357   5.903   0.298  10.565 -0.7714  0.9032 -1.5350
 5054TIP3    H239358   5.826   0.374  10.671  0.3557 -1.1582  0.8643
 5055TIP3   OH239359   3.589   1.142  10.658  0.1639  0.5903  0.4358
 5055TIP3    H139360   3.613   1.050  10.672  3.4294  1.2126 -0.1687
 5055TIP3    H239361   3.623   1.188  10.734 -1.0582  1.3911  0.5250
 5056TIP3   OH239362   0.407   6.122  10.602  0.1769  0.2683 -0.1000
 5056TIP3    H139363   0.428   6.029  10.601 -1.5239 -0.1896  1.1636
 5056TIP3    H239364   0.461   6.157  10.673 -0.2249 -0.0571  0.3758
 5057TIP3   OH239365   0.624   0.378  10.675 -0.2287 -0.2276  0.4632
 5057TIP3    H139366   0.579   0.411  10.753 -2.2333  0.2081 -0.8070
 5057TIP3    H239367   0.683   0.449  10.649 -1.1991  0.5556  0.3364
 5058TIP3   OH239368   6.718   6.099   9.739 -0.0387 -0.0425 -0.2093
 5058TIP3    H139369   6.754   6.012   9.723 -0.8998 -0.2057 -1.4379
 5058TIP3    H239370   6.657   6.114   9.666  1.0053  2.1040 -0.7435
 5059TIP3   OH239371   3.760   0.197   9.738 -0.9518  0.5292 -0.3089
 5059TIP3    H139372   3.804   0.179   9.655 -1.3788  0.4823 -0.5258
 5059TIP3    H239373   3.700   0.269   9.718  0.0552  1.5742  0.3227
 5060TIP3   OH239374   1.751   5.559  10.969 -0.3305 -1.0501  0.2779
 5060TIP3    H139375   1.761   5.476  10.924  0.2358 -0.3374 -0.9640
 5060TIP3    H239376   1.820   5.560  11.035  0.8725 -0.7988 -0.9454
 5061TIP3   OH239377   4.289   0.424  10.338  0.3666 -0.0997 -0.0319
 5061TIP3    H139378   4.235   0.346  10.326  0.9629 -0.4865 -0.2719
 5061TIP3    H239379   4.341   0.429  10.258  0.7611  0.2022  0.2436
 5062TIP3   OH239380   0.899   2.926   8.921  0.2188  0.3573  0.2990
 5062TIP3    H139381   0.842   2.972   8.859 -1.2441 -1.5958  0.0911
 5062TIP3    H239382   0.980   2.911   8.872 -0.7204 -0.7017 -1.0126
 5063TIP3   OH239383   6.478   4.463  10.575 -0.3870  0.5823  0.2338
 5063TIP3    H139384   6.490   4.558  10.583  1.9229  0.2982  0.9613
 5063TIP3    H239385   6.426   4.452  10.495  0.6440  2.4141 -0.7734
 5064TIP3   OH239386   5.986   6.513  10.657 -0.1918 -0.2571 -0.6913
 5064TIP3    H139387   6.025   6.453  10.721 -0.3791  0.5742  0.2178
 5064TIP3    H239388   5.893   6.489  10.655 -0.4099  0.4557  0.2158
 5065TIP3   OH239389   1.113   5.644   9.504  0.3844  0.2569  0.2743
 5065TIP3    H139390   1.077   5.555   9.509 -1.0901  0.6440 -1.9596
 5065TIP3    H239391   1.041   5.701   9.530 -0.1538  0.9489 -2.4541
 5066TIP3   OH239392   6.564   3.954   9.989 -0.8791 -0.4506 -0.1690
 5066TIP3    H139393   6.557   3.884   9.924 -1.4989 -0.7557  0.2156
 5066TIP3    H239394   6.656   3.980   9.987 -1.1687  0.7591 -2.4500
 5067TIP3   OH239395   0.894   6.618  10.608  0.6877 -0.4117 -0.1892
 5067TIP3    H139396   0.856   6.570  10.534  1.2171 -0.8984 -0.1433
 5067TIP3    H239397   0.823   6.677  10.636  0.6832  0.2321 -1.4744
 5068TIP3   OH239398   6.687   6.711  10.712 -0.2674 -0.3095  0.4273
 5068TIP3    H139399   6.686   6.622  10.747 -0.3639 -0.3678  0.2765
 5068TIP3    H239400   6.692   6.767  10.790  0.5887 -0.4635  0.4998
 5069TIP3   OH239401   2.983   1.478  10.437  0.2602  0.5393 -0.2377
 5069TIP3    H139402   2.950   1.518  10.517  1.8627  2.3609 -0.4172
 5069TIP3    H239403   2.904   1.460  10.385 -0.6091  2.3147  0.3975
 5070TIP3   OH239404   5.450   0.562   9.510 -0.3154  0.4573 -0.5494
 5070TIP3    H139405   5.464   0.568   9.604 -1.4052 -1.4387 -0.2189
 5070TIP3    H239406   5.536   0.581   9.472  0.7918 -1.1745  0.9510
 5071TIP3   OH239407   0.611   4.887  11.002 -0.0287  0.2264 -0.5521
 5071TIP3    H139408   0.683   4.924  11.054  0.2841  1.2194 -1.6363
 5071TIP3    H239409   0.654   4.844  10.928 -0.5316  1.0470 -1.3463
 5072TIP3   OH239410   5.521   3.472   9.695 -0.0275  0.1231  0.4713
 5072TIP3    H139411   5.487   3.404   9.636  1.3300  1.5851 -2.1754
 5072TIP3    H239412   5.568   3.423   9.762 -2.0238 -1.6462  0.6835
 5073TIP3   OH239413   5.253   1.394   8.626  0.4069  0.1031  0.1061
 5073TIP3    H139414   5.322   1.432   8.572  0.7223 -0.5890  0.0093
 5073TIP3    H239415   5.247   1.303   8.596  1.2209 -0.5696  1.8419
 5074TIP3   OH239416   1.257   3.184  10.393  0.2523  0.3117  0.4420
 5074TIP3    H139417   1.178   3.206  10.343  0.0311 -0.6530  0.3523
 5074TIP3    H239418   1.327   3.184  10.328  0.4461  1.7655  0.6252
 5075TIP3   OH239419   3.173   2.321  17.382  0.2609  0.1889  0.1533
 5075TIP3    H139420   3.248   2.331  17.324 -1.1165 -2.2586 -2.3028
 5075TIP3    H239421   3.199   2.255  17.446  0.9926  1.2007  0.9332
 5076TIP3   OH239422   6.853   5.850  10.735 -0.1567 -0.4167 -0.1995
 5076TIP3    H139423   6.783   5.878  10.795 -0.3353 -1.0033 -0.1276
 5076TIP3    H239424   6.821   5.768  10.698  0.7989 -1.0480  0.3562
 5077TIP3   OH239425   3.615   5.165   9.517 -0.2028 -0.0750  0.2383
 5077TIP3    H139426   3.559   5.087   9.512  0.1878 -0.5337  2.1432
 5077TIP3    H239427   3.695   5.134   9.561  0.5418  1.1116 -0.2325
 5078TIP3   OH239428   5.597   2.104   8.489  0.4240  0.1910  0.9582
 5078TIP3    H139429   5.507   2.083   8.514 -0.2954 -0.9520 -2.1303
 5078TIP3    H239430   5.595   2.196   8.464 -0.5416 -0.3824 -1.2992
 5079TIP3   OH239431   2.599   1.933   9.593  0.0247 -0.0567  0.2500
 5079TIP3    H139432   2.638   1.949   9.507 -1.4816  0.7160 -0.3274
 5079TIP3    H239433   2.565   1.844   9.588 -1.6110  0.5697 -0.6308
 5080TIP3   OH239434   7.478   2.055  10.293  0.2755  0.2807  0.3428
 5080TIP3    H139435   7.488   1.966  10.327  0.7122 -0.2896 -1.2015
 5080TIP3    H239436   7.407   2.049  10.229  0.1239  1.1116  0.4126
 5081TIP3   OH239437   5.611   6.554  10.980  0.0848  0.0570 -0.7139
 5081TIP3    H139438   5.544   6.622  10.978 -0.4165 -0.4379 -0.7317
 5081TIP3    H239439   5.564   6.472  10.963  0.5462 -0.4044  0.1728
 5082TIP3   OH239440   7.367   1.276  10.782  0.0103  0.0360  0.3029
 5082TIP3    H139441   7.324   1.326  10.712 -1.1116 -0.4063  0.6472
 5082TIP3    H239442   7.326   1.309  10.862  1.4649  0.7231  0.8009
 5083TIP3   OH239443   5.778   7.675   9.439 -0.2620 -0.3078  0.2683
 5083TIP3    H139444   5.684   7.687   9.448 -0.1959  0.2000  0.3221
 5083TIP3    H239445   5.793   7.664   9.345 -0.5249 -1.7936  0.3779
 5084TIP3   OH239446   5.396   4.527  10.878 -0.1717 -0.7073 -0.6776
 5084TIP3    H139447   5.315   4.578  10.870 -0.1557 -0.8275 -1.7664
 5084TIP3    H239448   5.368   4.444  10.917 -0.4078 -0.3505 -0.0882
 5085TIP3   OH239449   0.653   6.504  10.305  0.2727  0.5822 -0.2040
 5085TIP3    H139450   0.622   6.467  10.223 -0.1416 -2.4536  1.1812
 5085TIP3    H239451   0.591   6.472  10.371  1.7762  1.1201  1.5611
 5086TIP3   OH239452   1.778   7.184   8.745  0.0506  0.0357  0.2988
 5086TIP3    H139453   1.714   7.225   8.803 -0.8217 -1.0430  0.1150
 5086TIP3    H239454   1.782   7.093   8.774  1.3348  0.0316  0.1578
 5087TIP3   OH239455   0.212   1.094  11.154 -0.4950  0.9672 -0.0845
 5087TIP3    H139456   0.274   1.026  11.181 -2.4008 -0.7436  0.1785
 5087TIP3    H239457   0.211   1.089  11.059  0.2253  1.4813 -0.1361
 5088TIP3   OH239458   2.196   3.075  10.690  0.6811  0.0546 -0.7889
 5088TIP3    H139459   2.278   3.051  10.733 -0.1382 -1.2085  0.1431
 5088TIP3    H239460   2.163   3.149  10.742  0.2597 -0.7307  0.0863
 5089TIP3   OH239461   4.694   4.416  10.996 -0.3937 -0.4053  0.7924
 5089TIP3    H139462   4.733   4.467  11.067 -1.1231 -0.3901  1.1877
 5089TIP3    H239463   4.616   4.465  10.970  0.8617  0.6211 -1.3489
 5090TIP3   OH239464   7.652   0.799  10.718  0.4178 -0.0396  0.1613
 5090TIP3    H139465   7.694   0.793  10.804  1.0666 -2.1064 -0.2328
 5090TIP3    H239466   7.567   0.756  10.730  1.3163 -2.1702 -0.6316
 5091TIP3   OH239467   3.062   2.942  10.894  0.0188 -0.7839 -0.0152
 5091TIP3    H139468   3.148   2.966  10.929  0.1687 -1.3604  0.0108
 5091TIP3    H239469   3.081   2.891  10.816 -0.2759 -2.0467  0.7153
 5092TIP3   OH239470   0.837   6.223  10.856  0.4606  0.1062 -0.1027
 5092TIP3    H139471   0.896   6.168  10.804 -1.7142  0.0557 -2.7598
 5092TIP3    H239472   0.845   6.189  10.945  1.7039 -2.2818 -1.0204
 5093TIP3   OH239473   1.879   0.847  10.917 -0.1216 -0.0243 -0.3037
 5093TIP3    H139474   1.890   0.856  10.823  2.4829  0.1806 -0.0458
 5093TIP3    H239475   1.907   0.757  10.937  2.8017  0.9935  0.6167
 5094TIP3   OH239476   2.993   3.924   8.853  0.4049 -0.0267  0.0330
 5094TIP3    H139477   3.031   3.893   8.936 -0.6851 -1.6834 -0.0548
 5094TIP3    H239478   2.985   4.019   8.865 -0.2936 -0.2983  2.0760
 5095TIP3   OH239479   2.657   4.734  10.286 -0.5045 -0.0930  0.4750
 5095TIP3    H139480   2.619   4.703  10.204  1.7203 -0.6240 -0.4024
 5095TIP3    H239481   2.616   4.680  10.354 -1.0546 -0.8582 -0.4508
 5096TIP3   OH239482   4.911   6.577  10.125  0.2606  0.9367 -0.1749
 5096TIP3    H139483   4.953   6.608  10.205  0.5595  0.2562 -0.0617
 5096TIP3    H239484   4.908   6.482  10.135 -1.3349  0.9677 -0.1669
 5097TIP3   OH239485   3.081   4.144   9.124  0.6510  0.1378 -0.4362
 5097TIP3    H139486   3.056   4.168   9.035  0.2180  1.2137 -0.0417
 5097TIP3    H239487   3.029   4.202   9.180  0.9341 -0.5076  0.5148
 5098TIP3   OH239488   5.643   3.561  10.737 -0.1080  0.2972  0.2487
 5098TIP3    H139489   5.724   3.610  10.752 -0.5320  0.6583  1.5008
 5098TIP3    H239490   5.581   3.625  10.704 -0.2860  0.3407  0.6548
 5099TIP3   OH239491   0.738   1.110   8.053  0.1193  0.2372  0.3014
 5099TIP3    H139492   0.755   1.187   8.108  1.6519  0.4037 -0.3470
 5099TIP3    H239493   0.657   1.073   8.087 -0.7939  2.2801  0.4730
 5100TIP3   OH239494   4.238   4.338  10.896  0.0696 -0.4436  0.0942
 5100TIP3    H139495   4.214   4.395  10.823 -1.7084 -2.1595 -0.7482
 5100TIP3    H239496   4.306   4.386  10.943 -0.1167  1.5607 -1.5690
 5101TIP3   OH239497   0.382   1.015   9.604 -0.5214  0.6642 -0.4488
 5101TIP3    H139498   0.368   1.085   9.540  0.0842 -0.3538 -1.7399
 5101TIP3    H239499   0.329   1.041   9.680 -2.2767  1.3006 -1.8228
 5102TIP3   OH239500   4.304   3.112  11.006 -0.6851 -0.0049  0.5802
 5102TIP3    H139501   4.235   3.094  11.070 -1.1843  1.5457  0.5193
 5102TIP3    H239502   4.335   3.201  11.027 -0.1766  0.1573 -0.7112
 5103TIP3   OH239503   4.854   2.364  10.451  0.6004 -1.1272  0.2384
 5103TIP3    H139504   4.815   2.449  10.431  2.7649 -0.2052 -0.3238
 5103TIP3    H239505   4.807   2.334  10.529  0.0067  0.7458  0.6581
 5104TIP3   OH239506   6.399   0.152  10.460  0.0074  0.0676 -0.2695
 5104TIP3    H139507   6.325   0.204  10.492  0.8112  1.3380 -0.3864
 5104TIP3    H239508   6.402   0.076  10.518 -0.4782  0.7419  0.6616
 5105TIP3   OH239509   6.432   6.343  10.095 -0.1661 -0.6083 -0.1377
 5105TIP3    H139510   6.508   6.309  10.048 -1.1537 -2.1661 -0.6922
 5105TIP3    H239511   6.460   6.345  10.187  1.6216  2.0251 -0.6402
 5106TIP3   OH239512   2.770   7.482  10.690  0.2356  0.3428 -0.5341
 5106TIP3    H139513   2.785   7.537  10.767  0.3030  1.6914 -1.4776
 5106TIP3    H239514   2.686   7.439  10.708  0.3966  0.3985  0.4164
 5107TIP3   OH239515   2.344   2.755   9.737 -0.3468 -0.3052 -0.0492
 5107TIP3    H139516   2.345   2.824   9.671  1.6578 -0.8544 -0.6439
 5107TIP3    H239517   2.398   2.685   9.701 -0.7318 -1.3960  1.3772
 5108TIP3   OH239518   7.080   0.305   9.905 -0.5757  0.6582  0.0605
 5108TIP3    H139519   7.032   0.308   9.822 -0.6584  1.4553  0.1247
 5108TIP3    H239520   7.081   0.212   9.929 -3.1082  0.6858  0.6231
 5109TIP3   OH239521   3.310   4.473  10.561  0.0593 -0.0833  0.1144
 5109TIP3    H139522   3.381   4.408  10.552  0.0065 -0.2865  1.0268
 5109TIP3    H239523   3.308   4.518  10.477  1.3562  0.0027  0.1010
 5110TIP3   OH239524   4.730   0.465  10.518  0.0459  0.1235 -0.4750
 5110TIP3    H139525   4.681   0.470  10.600 -1.4585 -0.4483 -1.3022
 5110TIP3    H239526   4.798   0.399  10.535 -0.9759 -0.8578 -0.0321
 5111TIP3   OH239527   6.920   5.425  10.253 -0.1580  0.3400  0.2202
 5111TIP3    H139528   6.912   5.330  10.249 -1.2107  0.3333  1.8161
 5111TIP3    H239529   6.946   5.451  10.164 -2.9541 -1.1493 -1.1597
 5112TIP3   OH239530   5.815   7.069   9.302  1.0920 -0.2717 -0.0565
 5112TIP3    H139531   5.751   7.001   9.284  2.5054 -1.3319 -1.4209
 5112TIP3    H239532   5.767   7.151   9.295 -0.8945 -1.0701  2.6458
 5113TIP3   OH239533   4.539   3.598  11.006 -0.0597  0.1778 -0.3239
 5113TIP3    H139534   4.529   3.652  11.085 -1.9694  0.8880 -0.9752
 5113TIP3    H239535   4.493   3.647  10.938 -0.9585 -1.7665 -1.2013
 5114TIP3   OH239536   6.730   0.047  10.689 -0.2087  0.1220  0.3576
 5114TIP3    H139537   6.684  -0.037  10.688  1.0585 -0.6104  0.7125
 5114TIP3    H239538   6.752   0.063  10.597  2.1972 -1.5277  0.5309
 5115TIP3   OH239539   4.649   6.665   9.809 -0.4002  0.6791  0.2365
 5115TIP3    H139540   4.660   6.711   9.726 -1.9921  1.5368  0.4523
 5115TIP3    H239541   4.632   6.574   9.784 -0.2304  0.7999 -0.3397
 5116TIP3   OH239542   7.015   2.398  10.291  0.7564  0.4861  0.1427
 5116TIP3    H139543   6.958   2.440  10.227  0.7345  2.3093  1.3018
 5116TIP3    H239544   7.075   2.344  10.238 -0.2835  0.6595 -1.2686
 5117TIP3   OH239545   6.712   1.182   9.958 -0.3173 -0.2063  0.0801
 5117TIP3    H139546   6.739   1.211   9.871 -1.4064  2.1569  0.4269
 5117TIP3    H239547   6.776   1.222  10.017  0.2628 -1.5829  0.4208
 5118TIP3   OH239548   0.217   2.863   9.148  0.2149  0.4785  0.1896
 5118TIP3    H139549   0.241   2.872   9.240  2.0949  1.8970 -0.3777
 5118TIP3    H239550   0.241   2.773   9.125 -0.1765  0.1500  1.0278
 5119TIP3   OH239551   2.272   6.549   9.749 -0.1142 -0.2054 -0.0127
 5119TIP3    H139552   2.360   6.514   9.764  0.3381  0.7114 -0.4245
 5119TIP3    H239553   2.245   6.584   9.834 -0.0592 -0.4468  0.1040
 5120TIP3   OH239554   2.262   2.131  10.893  0.6356  0.0822  0.4377
 5120TIP3    H139555   2.235   2.222  10.880 -0.3963 -0.1860  0.6217
 5120TIP3    H239556   2.188   2.090  10.938  1.1791 -0.7941  0.5539
 5121TIP3   OH239557   5.659   0.677  11.358 -0.0447 -0.6528 -0.6067
 5121TIP3    H139558   5.675   0.771  11.366  1.0711 -0.5934 -2.8051
 5121TIP3    H239559   5.564   0.669  11.356 -0.1522  0.4237 -0.4372
 5122TIP3   OH239560   1.561   2.493   9.686  0.4123  0.1003  0.2196
 5122TIP3    H139561   1.633   2.541   9.727  1.5648 -1.9042  0.6478
 5122TIP3    H239562   1.521   2.443   9.757 -0.9371  0.5826 -0.1685
 5123TIP3   OH239563   0.743   4.046   8.953  0.3519  0.0853 -0.9329
 5123TIP3    H139564   0.815   4.090   8.997 -1.5692  2.4009  0.1463
 5123TIP3    H239565   0.707   3.987   9.018  0.5122 -0.1416 -1.0509
 5124TIP3   OH239566   2.744   4.119   8.961 -0.2674 -0.6832 -0.0842
 5124TIP3    H139567   2.818   4.175   8.938  0.2267 -0.8403  1.0719
 5124TIP3    H239568   2.675   4.179   8.989  0.3479 -0.6441  1.3977
 5125TIP3   OH239569   2.498   0.807  10.875 -0.2343  0.4515  0.1506
 5125TIP3    H139570   2.445   0.884  10.857 -1.0909  0.3448  2.0687
 5125TIP3    H239571   2.442   0.733  10.852  0.6300  0.3371 -1.8096
 5126TIP3   OH239572   5.897   0.141   9.973 -0.0795 -0.1379  0.4548
 5126TIP3    H139573   5.843   0.080  10.022  0.8455 -0.5687  0.9681
 5126TIP3    H239574   5.910   0.100   9.888 -0.5843 -0.0072  0.3080
 5127TIP3   OH239575   4.960   0.943   8.994  0.0826  0.6087 -0.1594
 5127TIP3    H139576   4.944   0.959   9.087  0.4325  0.5352 -0.0865
 5127TIP3    H239577   4.992   1.026   8.960 -0.2041  0.6826 -0.2508
 5128TIP3   OH239578   1.963   2.002   9.824  0.0698 -0.5690 -0.0942
 5128TIP3    H139579   1.893   2.051   9.780 -1.2349 -2.1680  0.0815
 5128TIP3    H239580   1.996   1.942   9.756  0.5232 -0.5727  0.1283
 5129TIP3   OH239581   5.475   6.322  10.943  0.2831  0.0947  0.0111
 5129TIP3    H139582   5.465   6.271  11.024  1.2234  1.6641  1.1864
 5129TIP3    H239583   5.389   6.360  10.928  0.4040  0.8050  1.0189
 5130TIP3   OH239584   6.233   4.698   9.468  0.4137  0.8721 -0.2848
 5130TIP3    H139585   6.273   4.624   9.515 -1.6447 -0.4720 -0.5318
 5130TIP3    H239586   6.227   4.668   9.378 -2.6389  0.2435  0.0157
 5131TIP3   OH239587   4.257   2.354   8.531  0.0199  0.4383 -0.3569
 5131TIP3    H139588   4.333   2.403   8.501  0.7004  0.1638  0.8426
 5131TIP3    H239589   4.270   2.345   8.625 -0.2116 -1.7666 -0.4752
 5132TIP3   OH239590   6.248   2.723  10.325 -0.0351  0.2988  0.0838
 5132TIP3    H139591   6.223   2.635  10.297  0.3766  0.7142 -1.6633
 5132TIP3    H239592   6.193   2.740  10.402  0.8307 -1.9914  1.3109
 5133TIP3   OH239593   6.777   1.177   9.457  0.2186  0.6410 -0.1627
 5133TIP3    H139594   6.818   1.102   9.500 -0.1980 -0.4681 -1.6101
 5133TIP3    H239595   6.850   1.229   9.424  0.5106  0.7838  0.7059
 5134TIP3   OH239596   2.716   3.582   9.405  0.3267  0.1005  0.1614
 5134TIP3    H139597   2.669   3.660   9.435  2.1144  0.4477  2.3425
 5134TIP3    H239598   2.664   3.508   9.436 -0.2049  0.4276  0.0628
 5135TIP3   OH239599   4.773   7.584   9.662 -0.1857  0.3372  0.5069
 5135TIP3    H139600   4.791   7.531   9.740 -1.7257 -0.8945  0.0680
 5135TIP3    H239601   4.766   7.674   9.696  0.1342 -0.0395  1.6289
 5136TIP3   OH239602   3.823   6.192   9.168 -0.3644 -0.0948  1.2260
 5136TIP3    H139603   3.861   6.135   9.235  1.0341 -0.8125 -0.1320
 5136TIP3    H239604   3.761   6.137   9.122 -0.3987  0.0314  1.1218
 5137TIP3   OH239605   5.928   6.408  10.051  0.0042 -0.7840 -0.2490
 5137TIP3    H139606   6.009   6.380  10.094 -0.0287 -1.4225 -0.5928
 5137TIP3    H239607   5.862   6.345  10.081 -0.7963  0.7443  1.4374
 5138TIP3   OH239608   4.223   7.170  10.600 -0.3153  0.0042 -0.0639
 5138TIP3    H139609   4.242   7.264  10.598  0.8834 -0.2082 -2.8414
 5138TIP3    H239610   4.302   7.131  10.638  0.4209 -0.0606 -1.6060
 5139TIP3   OH239611   2.607   0.807  11.115 -0.1057 -0.0679  0.2842
 5139TIP3    H139612   2.636   0.729  11.161  0.5131 -0.3203 -0.5123
 5139TIP3    H239613   2.598   0.780  11.024  0.3716  0.8395 -0.0519
 5140TIP3   OH239614   4.211   0.816   8.313 -0.1121 -0.2763 -0.7227
 5140TIP3    H139615   4.198   0.724   8.292 -1.5630 -0.7325  1.7587
 5140TIP3    H239616   4.122   0.853   8.313  0.4626  1.2115 -1.8756
 5141TIP3   OH239617   5.122   2.473   9.710 -0.2379  0.8592  0.1412
 5141TIP3    H139618   5.103   2.446   9.800 -0.2591 -1.1898 -0.4418
 5141TIP3    H239619   5.209   2.512   9.715 -0.0231  0.3022  0.9534
 5142TIP3   OH239620   5.985   0.408   9.899 -0.3580  0.1003  0.0388
 5142TIP3    H139621   5.940   0.478   9.947 -3.4624 -2.5391  1.3693
 5142TIP3    H239622   5.993   0.336   9.963  0.8446 -1.5051 -1.7940
 5143TIP3   OH239623   3.862   4.725   9.358 -0.1355  0.3929  0.0297
 5143TIP3    H139624   3.839   4.818   9.359 -3.4961 -0.2500  3.3500
 5143TIP3    H239625   3.825   4.693   9.276 -0.1180  1.7341 -0.5327
 5144TIP3   OH239626   6.138   3.733   9.666  0.4134 -0.0143 -0.0154
 5144TIP3    H139627   6.163   3.653   9.713  1.1923  0.6765  0.7855
 5144TIP3    H239628   6.102   3.790   9.734  0.2154  0.4603 -0.5133
 5145TIP3   OH239629   6.178   4.676  10.383 -0.1772  0.1574 -0.5054
 5145TIP3    H139630   6.141   4.590  10.401 -0.2458  0.1880 -0.5015
 5145TIP3    H239631   6.273   4.661  10.379  0.1741  0.6631  2.8911
 5146TIP3   OH239632   0.135   1.708  10.947 -0.2872 -0.1063  0.1229
 5146TIP3    H139633   0.069   1.765  10.907 -0.1482  0.8993  1.2761
 5146TIP3    H239634   0.095   1.621  10.946 -0.3941 -0.0807 -1.9201
 5147TIP3   OH239635   2.841   4.415  10.514  0.2100  0.9342  0.0606
 5147TIP3    H139636   2.787   4.475  10.566 -0.2469 -0.6290  1.4945
 5147TIP3    H239637   2.855   4.340  10.572  1.2498 -0.0867 -1.4513
 5148TIP3   OH239638   2.571   3.109   8.693  0.4915 -0.3251  0.2980
 5148TIP3    H139639   2.610   3.193   8.667  1.3430 -0.6915  0.3648
 5148TIP3    H239640   2.594   3.100   8.785 -0.1838 -0.3114  0.4682
 5149TIP3   OH239641   5.240   2.980   9.050  0.0050  0.9532  0.2471
 5149TIP3    H139642   5.239   3.069   9.084 -0.1807  1.0133  0.0826
 5149TIP3    H239643   5.157   2.971   9.002  0.4396  1.0070 -0.5378
 5150TIP3   OH239644   1.771   0.702   9.253 -0.0936 -0.0654 -0.1997
 5150TIP3    H139645   1.703   0.675   9.191  1.5495 -0.0463 -2.1358
 5150TIP3    H239646   1.742   0.788   9.284 -2.2363 -1.1915  1.1330
 5151TIP3   OH239647   4.426   6.051   9.322 -0.6969  0.2100 -0.0579
 5151TIP3    H139648   4.481   6.086   9.391 -0.0555  1.3506 -1.1129
 5151TIP3    H239649   4.434   6.113   9.250 -0.4388 -1.5048 -1.5892
 5152TIP3   OH239650   3.811   5.503  10.879  0.6124  0.1659 -0.2163
 5152TIP3    H139651   3.744   5.469  10.820 -0.4058  0.5100  0.7109
 5152TIP3    H239652   3.797   5.598  10.880  2.8967  0.6180 -2.1324
 5153TIP3   OH239653   6.332   6.731   9.038 -0.1825  0.1013 -0.2912
 5153TIP3    H139654   6.256   6.787   9.052 -0.2584  0.2235 -1.1525
 5153TIP3    H239655   6.308   6.676   8.964  0.5132  0.0349 -0.4785
 5154TIP3   OH239656   7.532   2.335   9.468 -0.5189 -0.5092  0.0231
 5154TIP3    H139657   7.573   2.421   9.460  2.6995 -1.5439  3.0305
 5154TIP3    H239658   7.439   2.355   9.478 -0.0664  2.5115 -0.6783
 5155TIP3   OH239659   5.904   3.873   9.410 -0.3778 -0.0563 -0.1038
 5155TIP3    H139660   5.917   3.959   9.450 -0.5711  0.1851 -0.5471
 5155TIP3    H239661   5.888   3.814   9.483  0.5949  0.1227  0.2600
 5156TIP3   OH239662   1.614   0.196  10.378  0.8732 -0.2120  0.3293
 5156TIP3    H139663   1.584   0.185  10.288  1.6863 -0.1111  0.0382
 5156TIP3    H239664   1.547   0.251  10.419  1.9355  2.2134 -1.0207
 5157TIP3   OH239665   4.088   1.149   8.719 -0.2111 -0.7303 -0.0300
 5157TIP3    H139666   4.068   1.076   8.778 -0.0872 -1.1590 -0.5094
 5157TIP3    H239667   4.003   1.190   8.702 -0.1987 -0.3605  0.7503
 5158TIP3   OH239668   3.653   7.269  11.039 -0.4273 -0.1965 -0.1801
 5158TIP3    H139669   3.662   7.234  10.951  1.7043 -1.0636  0.3258
 5158TIP3    H239670   3.567   7.237  11.069 -0.4868 -1.2226 -1.3672
 5159TIP3   OH239671   6.682   6.608   9.190  0.2986 -0.6594  0.6739
 5159TIP3    H139672   6.758   6.626   9.246  2.0390  0.6611 -1.8922
 5159TIP3    H239673   6.624   6.684   9.203  1.9546  1.0309 -1.1492
 5160TIP3   OH239674   3.755   5.503  10.378 -0.1951  0.1719 -0.5622
 5160TIP3    H139675   3.751   5.487  10.284  1.4554  2.4203 -1.1335
 5160TIP3    H239676   3.844   5.476  10.403 -0.4779 -0.0200  0.2659
 5161TIP3   OH239677   6.758   7.101  11.036 -0.2128 -0.2640 -0.2324
 5161TIP3    H139678   6.722   7.139  11.116  1.3980  0.2894  0.2634
 5161TIP3    H239679   6.833   7.156  11.015  0.2031 -1.2237 -1.3647
 5162TIP3   OH239680   6.282   6.782  10.070  0.7683 -0.1171  0.1197
 5162TIP3    H139681   6.267   6.800  10.162 -1.1692  1.7727 -0.4664
 5162TIP3    H239682   6.232   6.850  10.024  1.8122 -0.8791 -2.3187
 5163TIP3   OH239683   6.847   6.634   8.863  0.8315  0.4506  1.2315
 5163TIP3    H139684   6.764   6.680   8.875 -0.4993 -1.8657  1.6238
 5163TIP3    H239685   6.867   6.645   8.770  0.0227  0.9548  1.1042
 5164TIP3   OH239686   0.148   0.077   9.947 -0.0134  0.4160 -0.2496
 5164TIP3    H139687   0.068   0.076   9.894  1.4878  1.3281 -2.6824
 5164TIP3    H239688   0.124   0.128  10.025 -1.9767  0.0738 -0.5722
 5165TIP3   OH239689   6.811   6.463  10.927  0.2640  0.0139 -0.0224
 5165TIP3    H139690   6.725   6.492  10.959 -0.8707  0.4043 -3.0853
 5165TIP3    H239691   6.867   6.540  10.935 -0.4871  0.6319 -0.6418
 5166TIP3   OH239692   2.025   6.013   9.074 -0.2516  0.2422 -0.0339
 5166TIP3    H139693   2.036   6.108   9.070 -0.3515  0.2050 -1.8575
 5166TIP3    H239694   1.938   5.998   9.037 -1.6002 -0.3702  3.0958
 5167TIP3   OH239695   4.161   0.106  10.520  0.1444  0.1049 -0.0386
 5167TIP3    H139696   4.133   0.130  10.431  1.8314  0.7041 -0.4459
 5167TIP3    H239697   4.099   0.151  10.577  0.3931  1.6337 -0.9021
 5168TIP3   OH239698   3.968   7.185  11.025  0.7732 -0.0417 -0.9018
 5168TIP3    H139699   3.944   7.202  10.934  1.0708 -0.0200 -0.9791
 5168TIP3    H239700   3.888   7.200  11.075  0.4106 -0.7782 -1.2412
 5169TIP3   OH239701   0.914   3.361   9.387 -0.1610 -0.0766  0.2494
 5169TIP3    H139702   0.983   3.415   9.424  0.7787 -2.1193  1.6919
 5169TIP3    H239703   0.833   3.402   9.416  0.5147  0.7051  1.0954
 5170TIP3   OH239704   3.776   1.903  11.112 -0.4013  0.0137 -0.2782
 5170TIP3    H139705   3.739   1.972  11.057 -1.1117  0.7896  1.1201
 5170TIP3    H239706   3.869   1.925  11.119 -0.1792 -0.4137 -1.5873
 5171TIP3   OH239707   1.249   1.169   8.783  0.0095  0.6610 -0.1859
 5171TIP3    H139708   1.226   1.215   8.702  1.6838  0.8033 -0.6025
 5171TIP3    H239709   1.283   1.085   8.753 -1.0068 -0.0143  0.4819
 5172TIP3   OH239710   2.628   4.964   9.974  0.4108  0.3765 -0.5348
 5172TIP3    H139711   2.671   5.024  10.034  0.8535 -0.6687  0.2207
 5172TIP3    H239712   2.699   4.930   9.919  0.2704  0.0674 -0.5285
 5173TIP3   OH239713   5.905   2.901   9.189 -0.0508 -0.1311  0.1218
 5173TIP3    H139714   5.984   2.921   9.240 -0.4055 -0.6377  0.8831
 5173TIP3    H239715   5.923   2.938   9.103  1.8280 -1.8509 -0.3118
 5174TIP3   OH239716   5.564   1.074  10.896 -0.2727  0.1258  0.4356
 5174TIP3    H139717   5.567   1.016  10.820 -2.7933 -0.6065  0.8085
 5174TIP3    H239718   5.545   1.016  10.970 -1.2617  1.2137  1.0705
 5175TIP3   OH239719   1.285   7.511  10.855 -0.4088 -0.0658  0.2327
 5175TIP3    H139720   1.317   7.523  10.765  0.4059  0.4649  0.5825
 5175TIP3    H239721   1.364   7.490  10.905 -0.8117 -0.0105  0.8941
 5176TIP3   OH239722   1.968   3.209   9.501  0.1132  0.1537 -0.0155
 5176TIP3    H139723   2.054   3.210   9.460  0.8636 -3.8699  1.0471
 5176TIP3    H239724   1.985   3.184   9.592 -2.1588 -0.8057  0.2178
 5177TIP3   OH239725   7.339   0.258   8.101 -0.1424 -0.2938 -0.4242
 5177TIP3    H139726   7.396   0.310   8.044  0.4052  0.8995  1.1307
 5177TIP3    H239727   7.313   0.319   8.170 -0.0137 -1.9198  1.1242
 5178TIP3   OH239728   1.757   6.202  11.062  0.2419  0.3426 -0.6240
 5178TIP3    H139729   1.745   6.114  11.097  1.0656  0.3821 -0.2207
 5178TIP3    H239730   1.669   6.231  11.038  0.0617 -0.9610 -1.6764
 5179TIP3   OH239731   2.846   1.278  10.871  0.2065  0.1655  0.7035
 5179TIP3    H139732   2.802   1.335  10.935  2.0459  0.3756  1.8521
 5179TIP3    H239733   2.874   1.337  10.801  1.6940  0.6430  1.6641
 5180TIP3   OH239734   7.024   5.678   8.914 -0.1867  0.3350 -0.3892
 5180TIP3    H139735   7.107   5.651   8.874 -0.2810  0.6375 -0.7982
 5180TIP3    H239736   6.998   5.755   8.864 -0.1805  0.8748  0.4268
 5181TIP3   OH239737   1.813   3.611  11.026  0.0926 -0.5859  0.0063
 5181TIP3    H139738   1.898   3.597  11.068  0.3771 -0.5105 -0.5398
 5181TIP3    H239739   1.766   3.530  11.041  0.1875 -0.5589  0.4785
 5182TIP3   OH239740   3.244   4.675  11.002 -0.3489 -0.3117  0.0390
 5182TIP3    H139741   3.156   4.675  11.038 -0.0362 -0.5353  0.8239
 5182TIP3    H239742   3.232   4.694  10.909 -1.2463 -0.6985  0.0673
 5183TIP3   OH239743   6.544   4.775   9.752 -0.3878 -0.0128 -0.3731
 5183TIP3    H139744   6.449   4.786   9.754 -0.4492 -0.3871  2.2859
 5183TIP3    H239745   6.558   4.684   9.779  0.7355  0.6812  1.5427
 5184TIP3   OH239746   6.037   7.508   9.544 -0.0946  0.2415  0.3982
 5184TIP3    H139747   5.984   7.524   9.466  1.1524  0.5998 -0.3947
 5184TIP3    H239748   6.018   7.417   9.568  2.3017 -1.2023 -2.5767
 5185TIP3   OH239749   0.541   5.207  10.317  0.5138 -0.1839 -0.1516
 5185TIP3    H139750   0.540   5.258  10.398  3.1831 -0.2763  0.0259
 5185TIP3    H239751   0.617   5.240  10.269 -0.6578 -0.5402 -2.3851
 5186TIP3   OH239752   3.303   3.707  10.570 -0.0154 -0.0071 -0.4405
 5186TIP3    H139753   3.376   3.768  10.577  0.0704 -0.0266 -1.0422
 5186TIP3    H239754   3.249   3.743  10.500 -0.4873 -0.0912 -0.1226
 5187TIP3   OH239755   1.798   3.531   9.602  0.9396 -0.0383  0.5105
 5187TIP3    H139756   1.758   3.529   9.515  0.1859 -1.5459  0.8602
 5187TIP3    H239757   1.884   3.570   9.588  0.6399  0.1860 -0.8262
 5188TIP3   OH239758   5.493   5.884   9.550 -0.1979 -0.1605 -0.1968
 5188TIP3    H139759   5.551   5.859   9.478 -0.5028  0.2937 -0.6061
 5188TIP3    H239760   5.514   5.822   9.620 -1.1692 -1.7980 -1.2770
 5189TIP3   OH239761   0.578   2.264   9.245  0.0512  0.4229  0.7630
 5189TIP3    H139762   0.644   2.329   9.220  1.5858 -0.6585  1.8381
 5189TIP3    H239763   0.615   2.180   9.220 -0.5447 -0.2808  2.0966
 5190TIP3   OH239764   7.149   4.953  10.003 -0.3021  0.0339  0.0510
 5190TIP3    H139765   7.106   4.997  10.077 -0.2899  0.8537 -0.4121
 5190TIP3    H239766   7.227   4.914  10.041  0.3193  1.4324  0.2836
 5191TIP3   OH239767   5.350   5.031   9.505 -0.3292 -0.0109 -0.3525
 5191TIP3    H139768   5.268   4.982   9.502 -1.8624  2.1201  2.3058
 5191TIP3    H239769   5.337   5.105   9.446  0.2456 -0.3929 -0.9742
 5192TIP3   OH239770   1.986   3.469  11.182 -0.6764  0.4247  0.0757
 5192TIP3    H139771   1.970   3.474  11.276  2.4751  0.8276  0.7001
 5192TIP3    H239772   2.032   3.386  11.171  1.8165  1.8013 -0.5360
 5193TIP3   OH239773   3.213   2.971   9.614  0.1924  0.2420 -0.4980
 5193TIP3    H139774   3.174   3.022   9.685  1.1131  0.1615  0.0712
 5193TIP3    H239775   3.205   2.880   9.642  0.8202  0.2280 -0.3689
 5194TIP3   OH239776   1.175   0.345   9.780  0.1447  0.0573 -0.5932
 5194TIP3    H139777   1.098   0.366   9.832  0.5592 -1.1834  0.5649
 5194TIP3    H239778   1.234   0.419   9.794 -0.0608  0.0968  0.0560
 5195TIP3   OH239779   2.733   7.005   9.062 -0.2614  0.2550 -0.4274
 5195TIP3    H139780   2.663   7.015   9.127 -0.0236 -0.2075 -0.0945
 5195TIP3    H239781   2.739   7.091   9.020  0.0944  0.7888  0.6780
 5196TIP3   OH239782   2.159   7.498  10.781  0.1013  0.1996 -0.3252
 5196TIP3    H139783   2.083   7.450  10.750  0.2510  0.1791 -0.6739
 5196TIP3    H239784   2.124   7.573  10.828 -0.1342  0.3993 -0.8162
 5197TIP3   OH239785   0.885   4.957  10.198 -0.1685 -0.5012 -0.1257
 5197TIP3    H139786   0.884   4.976  10.104 -1.3559  2.9350  0.4197
 5197TIP3    H239787   0.963   5.001  10.231 -0.3784 -0.6844  0.6455
 5198TIP3   OH239788   0.430   3.843  11.652 -0.3447 -0.7836 -0.2057
 5198TIP3    H139789   0.466   3.878  11.734  1.7073  1.3888 -1.8834
 5198TIP3    H239790   0.495   3.779  11.623  0.5893  0.7200 -1.6021
 5199TIP3   OH239791   4.632   3.147   9.854 -0.3618 -0.0595  0.0333
 5199TIP3    H139792   4.546   3.123   9.889 -0.8178  2.2653  0.6953
 5199TIP3    H239793   4.666   3.210   9.917  0.7523  0.8918 -1.4639
 5200TIP3   OH239794   1.190   4.349   8.875  0.6738  0.0429 -0.1356
 5200TIP3    H139795   1.103   4.335   8.912  0.9725  0.3325  0.7137
 5200TIP3    H239796   1.230   4.262   8.875  0.5838  0.0006 -0.0049
 5201TIP3   OH239797   5.383   5.661  10.413 -0.5615 -0.2169 -0.2830
 5201TIP3    H139798   5.477   5.675  10.400 -0.6514  1.5958  0.6971
 5201TIP3    H239799   5.378   5.612  10.495 -0.4879  0.9618  0.4518
 5202TIP3   OH239800   6.693   1.263   9.203  0.0106 -0.0174 -0.0346
 5202TIP3    H139801   6.650   1.348   9.202  1.1979  0.6022 -0.1541
 5202TIP3    H239802   6.718   1.249   9.294 -0.7222 -0.5268  0.0940
 5203TIP3   OH239803   6.286   1.165   8.820  0.0539 -0.1495  0.1420
 5203TIP3    H139804   6.356   1.100   8.809 -0.6821 -1.1144  0.9170
 5203TIP3    H239805   6.324   1.247   8.790  0.8449 -1.0303 -1.4267
 5204TIP3   OH239806   0.046   3.019   8.895  0.3911  0.8445 -0.6683
 5204TIP3    H139807   0.071   2.927   8.888  0.4987  0.7299  0.8190
 5204TIP3    H239808  -0.027   3.030   8.835 -0.8993 -0.7008  0.5389
 5205TIP3   OH239809   5.442   0.419   9.239  0.8378  0.3217  0.4278
 5205TIP3    H139810   5.515   0.437   9.298  1.0774  1.3771 -0.1665
 5205TIP3    H239811   5.476   0.356   9.176  0.7296 -0.4305  1.1034
 5206TIP3   OH239812   4.142   4.910  10.383 -0.5262 -0.3952  0.5689
 5206TIP3    H139813   4.071   4.845  10.389 -1.2207  0.1774 -0.9456
 5206TIP3    H239814   4.100   4.988  10.347  0.5882  0.4574  1.0475
 5207TIP3   OH239815   6.362   5.273   9.146  0.3738  0.4055 -0.4829
 5207TIP3    H139816   6.399   5.308   9.227 -1.4613  1.1380  0.0919
 5207TIP3    H239817   6.431   5.217   9.110  1.2467  0.1070  1.5421
 5208TIP3   OH239818   5.771   0.947   9.056  0.5109  0.0041 -0.0450
 5208TIP3    H139819   5.731   1.031   9.081  0.4126  0.2492 -1.0118
 5208TIP3    H239820   5.817   0.966   8.975  0.6884 -0.8334 -0.1444
 5209TIP3   OH239821   1.213   5.535  10.612  0.1052 -0.9338  0.4560
 5209TIP3    H139822   1.296   5.571  10.644  0.3133 -0.4096 -0.6223
 5209TIP3    H239823   1.199   5.579  10.528 -0.5645 -2.0508 -0.0317
 5210TIP3   OH239824   2.979   6.657  10.026 -0.0581  0.0135 -0.1621
 5210TIP3    H139825   2.939   6.581   9.986 -0.7470  0.0003  0.5292
 5210TIP3    H239826   2.927   6.674  10.104 -0.5247  1.7697 -0.7914
 5211TIP3   OH239827   5.715   4.614   9.091  0.0217 -0.0308  0.0712
 5211TIP3    H139828   5.621   4.625   9.103 -0.0460 -0.8542  0.3725
 5211TIP3    H239829   5.741   4.688   9.036 -0.8698 -0.0307 -0.3630
 5212TIP3   OH239830   5.202   4.014   9.474 -0.5773 -0.0603  0.0981
 5212TIP3    H139831   5.195   4.106   9.448 -1.8346  0.5300  2.2453
 5212TIP3    H239832   5.291   4.006   9.510 -1.0640  0.8818  1.6377
 5213TIP3   OH239833   7.514   1.475  11.178  0.7494 -0.1830 -0.3019
 5213TIP3    H139834   7.450   1.403  11.182  0.7024 -0.0954  0.7422
 5213TIP3    H239835   7.596   1.435  11.205  0.2656  0.6237  2.7507
 5214TIP3   OH239836   7.660   3.793   8.297 -0.4378 -0.3826  0.2332
 5214TIP3    H139837   7.692   3.718   8.245 -0.2858 -1.3092  1.6049
 5214TIP3    H239838   7.725   3.862   8.280 -0.4359 -0.6183 -0.8502
 5215TIP3   OH239839   4.536   5.788  10.728 -0.0408  0.4417 -0.5316
 5215TIP3    H139840   4.618   5.784  10.679  0.3298  1.2992 -0.0096
 5215TIP3    H239841   4.497   5.872  10.704 -1.1374 -0.2731 -1.3264
 5216TIP3   OH239842   6.945   5.166   9.242  0.1172 -0.4306 -0.2460
 5216TIP3    H139843   7.021   5.217   9.214  0.7132 -1.5480 -0.7485
 5216TIP3    H239844   6.981   5.099   9.300 -0.8756  0.7549  1.8781
 5217TIP3   OH239845   5.926   0.709   9.268  0.1779 -0.0884 -0.2643
 5217TIP3    H139846   5.946   0.722   9.175 -1.0106 -1.7322 -0.7915
 5217TIP3    H239847   5.859   0.774   9.288  0.3368  0.1768 -0.5882
 5218TIP3   OH239848   6.771   3.353  10.251  0.5539  0.5061  0.1221
 5218TIP3    H139849   6.753   3.415  10.180  2.0349  0.9421  0.0960
 5218TIP3    H239850   6.781   3.268  10.207  2.0677  0.8752 -0.2963
 5219TIP3   OH239851   6.402   6.434  10.812  0.3834  0.1438 -0.4229
 5219TIP3    H139852   6.360   6.470  10.733 -1.3608  1.5227  1.0566
 5219TIP3    H239853   6.376   6.342  10.813  1.6347 -0.2869 -2.1755
 5220TIP3   OH239854   3.415   5.829   9.281 -0.0639 -0.5698  0.6202
 5220TIP3    H139855   3.373   5.828   9.196 -0.2607 -0.8763  0.7225
 5220TIP3    H239856   3.469   5.908   9.280  0.6753 -1.0680 -0.1481
 5221TIP3   OH239857   2.630   7.065  10.218  0.2637  0.5664  0.5379
 5221TIP3    H139858   2.572   6.991  10.200 -1.0180  1.6450  0.0567
 5221TIP3    H239859   2.665   7.048  10.306  1.5844 -1.5801 -0.3242
 5222TIP3   OH239860   4.156   4.010   8.896 -0.1522 -0.2871  0.1829
 5222TIP3    H139861   4.239   4.001   8.941 -0.7381 -1.3006  1.0849
 5222TIP3    H239862   4.107   4.074   8.947 -0.0900  0.0093 -0.1207
 5223TIP3   OH239863   0.475   1.119   9.058 -0.2300 -0.4401 -0.3208
 5223TIP3    H139864   0.567   1.094   9.069 -0.2565 -0.1503  0.6771
 5223TIP3    H239865   0.470   1.206   9.099 -1.2361 -1.0353  0.8992
 5224TIP3   OH239866   1.104   0.755  10.471  0.4723 -0.0627 -0.1921
 5224TIP3    H139867   1.057   0.679  10.435  0.1847 -0.5257  1.0820
 5224TIP3    H239868   1.096   0.744  10.566  0.0791  1.7845  0.0201
 5225TIP3   OH239869   6.996   1.259  10.480  0.2347  0.2783  0.0574
 5225TIP3    H139870   6.957   1.280  10.565  0.8079  1.9107 -0.0402
 5225TIP3    H239871   7.083   1.301  10.483  1.2093 -1.5870 -0.4701
 5226TIP3   OH239872   2.429   1.335  10.734  0.3854 -0.3311  0.0382
 5226TIP3    H139873   2.500   1.399  10.739  0.5676 -0.5695  0.5270
 5226TIP3    H239874   2.349   1.388  10.733  0.5304 -0.0984  0.5496
 5227TIP3   OH239875   1.338   6.789  10.086  0.3419  0.2095  0.1245
 5227TIP3    H139876   1.391   6.757  10.012  0.9854  0.7385  0.3426
 5227TIP3    H239877   1.263   6.730  10.088  0.7831 -0.4011 -0.3679
 5228TIP3   OH239878   4.020   1.643   9.040  0.3232  1.0096  0.5219
 5228TIP3    H139879   4.020   1.695   8.960 -0.3634 -1.5392 -1.2613
 5228TIP3    H239880   3.937   1.595   9.038  1.4467 -1.1335  1.2896
 5229TIP3   OH239881   4.018   7.441   8.712 -0.7216  0.5371 -0.6991
 5229TIP3    H139882   3.964   7.398   8.778 -0.7087  2.1963  0.4525
 5229TIP3    H239883   3.962   7.509   8.676 -0.8672 -0.5968 -2.7614
 5230TIP3   OH239884   2.461   3.355  10.966  0.0592 -0.3731  0.1015
 5230TIP3    H139885   2.387   3.318  10.919 -1.1345 -0.7783  2.1501
 5230TIP3    H239886   2.474   3.441  10.927 -1.0667 -0.5684 -0.7534
 5231TIP3   OH239887   7.644   2.800   9.176  0.5281  0.1746 -0.4037
 5231TIP3    H139888   7.662   2.829   9.265  1.8811 -0.3044 -0.5076
 5231TIP3    H239889   7.718   2.833   9.124 -0.5394  0.9898 -1.4847
 5232TIP3   OH239890   5.969   2.476   9.515 -0.4940  0.1746  0.3276
 5232TIP3    H139891   6.018   2.530   9.577  0.1312 -0.0576  0.0424
 5232TIP3    H239892   6.033   2.412   9.483 -1.4551 -1.3791  1.3953
 5233TIP3   OH239893   6.502   5.788   9.339  0.0296  0.7383 -0.3303
 5233TIP3    H139894   6.518   5.789   9.434 -0.9941 -1.5285 -0.0691
 5233TIP3    H239895   6.415   5.826   9.330  0.7255  2.3752 -0.5752
 5234TIP3   OH239896   2.921   4.675   9.327  0.0309 -0.2641 -0.4630
 5234TIP3    H139897   2.917   4.642   9.417  1.3140 -2.9860 -1.2721
 5234TIP3    H239898   2.848   4.633   9.283 -0.6420  1.1228 -0.7019
 5235TIP3   OH239899   7.261   3.703  10.717 -0.1241  0.3195 -0.1153
 5235TIP3    H139900   7.304   3.785  10.694  0.4650 -0.0661 -0.4339
 5235TIP3    H239901   7.188   3.696  10.656 -0.2530  0.6719 -0.0003
 5236TIP3   OH239902   4.234   0.899   9.226 -0.4392 -0.2724 -0.3330
 5236TIP3    H139903   4.161   0.959   9.237  0.5859  1.1164 -0.8960
 5236TIP3    H239904   4.232   0.843   9.304 -1.0634  0.8803  0.4969
 5237TIP3   OH239905   1.549   0.613   9.501 -0.5291 -0.0754 -0.3437
 5237TIP3    H139906   1.558   0.530   9.455 -1.5118 -0.2675 -0.2155
 5237TIP3    H239907   1.613   0.671   9.460  2.4324 -1.7272  1.5846
 5238TIP3   OH239908   0.593   6.751   9.481 -0.2589 -0.0423 -0.2295
 5238TIP3    H139909   0.685   6.745   9.504 -0.4025 -1.5398  0.0130
 5238TIP3    H239910   0.593   6.794   9.395  0.7145 -0.6788 -0.5621
 5239TIP3   OH239911   3.732   3.058   9.007  0.1338 -0.2504 -0.6267
 5239TIP3    H139912   3.685   3.029   8.929 -0.7409  0.0622 -0.2317
 5239TIP3    H239913   3.690   3.141   9.030  0.1363 -0.5153  0.3789
 5240TIP3   OH239914   1.130   0.809   9.664 -0.1527 -0.1217 -0.1614
 5240TIP3    H139915   1.172   0.722   9.663 -0.5782 -0.3294 -0.0785
 5240TIP3    H239916   1.111   0.825   9.756  0.6770  0.4328 -0.0737
 5241TIP3   OH239917   2.524   7.017  11.293 -0.5426 -0.5072  0.6361
 5241TIP3    H139918   2.577   6.971  11.358  1.6679  0.9099 -0.0418
 5241TIP3    H239919   2.583   7.030  11.219 -2.7171 -1.3102 -1.3820
 5242TIP3   OH239920   6.759   6.847  10.941 -0.2439 -0.1709 -0.5457
 5242TIP3    H139921   6.837   6.802  10.975  0.5417  0.4698 -1.4558
 5242TIP3    H239922   6.765   6.936  10.976 -0.1094  0.1250 -1.3116
 5243TIP3   OH239923   1.602   7.511  10.888  0.0496 -0.0714 -0.0609
 5243TIP3    H139924   1.588   7.438  10.828 -1.8755  0.0924  0.1482
 5243TIP3    H239925   1.612   7.470  10.974 -2.4659 -0.0784  0.2866
 5244TIP3   OH239926   4.211   3.629  10.506  0.1304 -0.2137  0.2089
 5244TIP3    H139927   4.182   3.681  10.431  0.4335 -0.9720 -0.4408
 5244TIP3    H239928   4.299   3.662  10.525  0.7353 -1.1612 -0.8514
 5245TIP3   OH239929   4.819   0.834  10.606 -0.4861 -0.3475 -0.1802
 5245TIP3    H139930   4.910   0.822  10.581  0.0425 -0.8490  1.7955
 5245TIP3    H239931   4.769   0.799  10.532  0.9219 -1.1897 -0.7727
 5246TIP3   OH239932   5.799   4.712  10.491  0.1933  0.6420  0.0014
 5246TIP3    H139933   5.727   4.702  10.553  1.1411  0.2486  1.0895
 5246TIP3    H239934   5.795   4.633  10.438  0.8489 -0.2540  1.2169
 5247TIP3   OH239935   4.123   7.164  10.339  0.2916 -0.0434 -0.6495
 5247TIP3    H139936   4.191   7.163  10.406 -0.3933 -1.2461  0.0712
 5247TIP3    H239937   4.092   7.255  10.338  2.3877  0.7172 -1.5456
 5248TIP3   OH239938   0.498   3.025   9.476 -0.0754 -0.4093  0.4592
 5248TIP3    H139939   0.590   3.021   9.502 -0.7438 -0.6083  3.0219
 5248TIP3    H239940   0.467   2.935   9.484 -0.8444 -0.0955  1.0403
 5249TIP3   OH239941   5.585   7.476  10.212  0.3226  0.9255 -0.2940
 5249TIP3    H139942   5.537   7.496  10.292  0.3054  0.7965 -0.2721
 5249TIP3    H239943   5.676   7.469  10.239  0.5636  2.5706 -0.5626
 5250TIP3   OH239944   0.005   2.173  10.392 -0.3170 -0.0826 -0.0482
 5250TIP3    H139945  -0.071   2.133  10.350 -1.2152 -0.1468  1.5668
 5250TIP3    H239946  -0.029   2.209  10.474  0.9411  1.9170 -0.3423
 5251TIP3   OH239947   4.753   3.864  10.047 -0.5478 -0.2293  0.0817
 5251TIP3    H139948   4.748   3.794   9.983 -1.5006 -0.2548  0.1618
 5251TIP3    H239949   4.835   3.848  10.095 -1.2161 -1.8735  0.7520
 5252TIP3   OH239950   4.170   5.737   9.515 -0.3503 -0.2330 -0.0053
 5252TIP3    H139951   4.080   5.751   9.544 -0.2839  0.7531 -0.2368
 5252TIP3    H239952   4.186   5.807   9.452  0.8879  0.1719  0.7205
 5253TIP3   OH239953   5.851   3.666   9.584 -0.3801  0.1464 -0.0259
 5253TIP3    H139954   5.939   3.654   9.619  0.2481  0.1890 -1.5192
 5253TIP3    H239955   5.827   3.580   9.549 -0.2102  0.5388 -1.1575
 5254TIP3   OH239956   1.917   6.038  10.102  0.3029 -0.1188  0.2535
 5254TIP3    H139957   1.921   6.088  10.020 -0.1085  1.9639  1.4444
 5254TIP3    H239958   1.974   6.086  10.162  2.0408 -2.6111  0.7449
 5255TIP3   OH239959   4.415   6.693   9.369  0.2321  0.0832  0.0886
 5255TIP3    H139960   4.347   6.753   9.338 -0.5798 -0.3964  0.8641
 5255TIP3    H239961   4.462   6.666   9.290 -1.2817 -0.5262 -0.6420
 5256TIP3   OH239962   1.526   0.452   8.546 -0.1116  0.1646  0.2141
 5256TIP3    H139963   1.567   0.413   8.469 -0.4005 -0.2398  0.2644
 5256TIP3    H239964   1.468   0.384   8.580 -0.9862  0.7946  0.0217
 5257TIP3   OH239965   2.529   5.711   9.851  0.1934  0.4703  0.1517
 5257TIP3    H139966   2.514   5.645   9.784  0.2983  0.6435 -0.0443
 5257TIP3    H239967   2.602   5.677   9.902  0.6937  0.7505 -0.3679
 5258TIP3   OH239968   4.085   3.904   8.412  0.1592  0.0713 -0.3414
 5258TIP3    H139969   4.094   3.882   8.505  0.1882 -1.0915 -0.6067
 5258TIP3    H239970   4.157   3.857   8.370 -0.9826 -0.9424 -1.1866
 5259TIP3   OH239971   4.361   2.375   9.797 -0.5370  0.0192 -0.7310
 5259TIP3    H139972   4.366   2.285   9.829  1.5579 -0.1609 -1.4619
 5259TIP3    H239973   4.382   2.369   9.704 -1.2959  1.1745 -1.0053
 5260TIP3   OH239974   7.445   2.021   9.648 -0.2651 -0.1811  0.1855
 5260TIP3    H139975   7.358   2.060   9.643 -0.2512 -0.0042  1.1150
 5260TIP3    H239976   7.441   1.947   9.588 -0.0837  1.5750 -2.1269
 5261TIP3   OH239977   7.283   7.169  10.923  0.1547 -0.1326  0.1125
 5261TIP3    H139978   7.294   7.217  10.841  1.5449 -0.8725 -0.1611
 5261TIP3    H239979   7.356   7.197  10.978 -0.4875 -0.0108  0.9258
 5262TIP3   OH239980   1.685   0.899   9.451  0.3425  0.5893  0.0248
 5262TIP3    H139981   1.688   0.983   9.497  2.2797  0.1274  0.8785
 5262TIP3    H239982   1.728   0.916   9.367 -0.5980  0.7652 -0.4349
 5263TIP3   OH239983   4.554   5.177  10.493  0.3052  0.2815  0.6057
 5263TIP3    H139984   4.486   5.124  10.534  0.5930 -1.3158 -0.8793
 5263TIP3    H239985   4.508   5.255  10.463 -0.3220  0.4657  1.9647
 5264TIP3   OH239986   6.464   5.075   8.045  0.0156 -0.3060  0.8887
 5264TIP3    H139987   6.403   5.004   8.027  0.2539 -0.2851 -0.0544
 5264TIP3    H239988   6.412   5.140   8.092 -0.6617 -0.3356  0.1986
 5265TIP3   OH239989   0.517   6.576   8.930 -0.2608  0.0197 -0.1835
 5265TIP3    H139990   0.480   6.664   8.931  1.4237  0.7681  0.4836
 5265TIP3    H239991   0.531   6.556   8.837 -2.9666 -0.6274 -0.5253
 5266TIP3   OH239992   3.541   7.639  10.387 -0.1922 -0.1074 -0.3015
 5266TIP3    H139993   3.461   7.593  10.414  0.6654 -2.6345 -1.6985
 5266TIP3    H239994   3.612   7.590  10.427  0.7554  1.9660  0.7301
 5267TIP3   OH239995   7.244   7.678   9.000  0.1866 -0.6776  0.0009
 5267TIP3    H139996   7.332   7.699   9.033  0.6827  1.2190 -2.2682
 5267TIP3    H239997   7.205   7.763   8.981 -0.9812 -1.5717 -1.8356
 5268TIP3   OH239998   6.946   6.251   9.615  0.0481 -0.2809  0.1228
 5268TIP3    H139999   6.977   6.163   9.639 -0.8366 -0.8397 -0.7021
 5268TIP3    H240000   6.860   6.236   9.576 -1.1180  1.1660  1.9453
 5269TIP3   OH240001   1.405   2.729   9.521  0.1469  0.1880 -0.4613
 5269TIP3    H140002   1.412   2.659   9.587  1.6169 -0.0140 -0.7913
 5269TIP3    H240003   1.375   2.805   9.570 -3.9464 -1.1701 -0.4849
 5270TIP3   OH240004   3.241   6.096  10.419 -0.1693 -0.0243  0.1412
 5270TIP3    H140005   3.163   6.084  10.366  0.8526  0.1248 -1.4437
 5270TIP3    H240006   3.268   6.008  10.443 -0.6518 -0.0890  0.4592
 5271TIP3   OH240007   0.813   1.552  10.812  0.0691 -0.3493  0.1543
 5271TIP3    H140008   0.766   1.593  10.884 -1.4054  1.9199 -1.9145
 5271TIP3    H240009   0.905   1.550  10.841 -0.1892  2.1339  1.4368
 5272TIP3   OH240010   0.972   1.259   8.503 -0.3626 -0.0303 -0.4010
 5272TIP3    H140011   0.927   1.325   8.555  0.3778  1.4174 -1.5353
 5272TIP3    H240012   0.996   1.304   8.422  1.6839 -1.1875 -0.5074
 5273TIP3   OH240013   3.877   6.668  10.989 -0.5298  0.3780 -0.3206
 5273TIP3    H140014   3.914   6.745  10.947  0.7550  0.9736  1.7508
 5273TIP3    H240015   3.932   6.595  10.960  0.4937  0.8193  0.4320
 5274TIP3   OH240016   5.612   3.925  10.244  0.1376 -0.2428 -0.9365
 5274TIP3    H140017   5.625   3.840  10.286  2.7962 -0.5392 -2.1252
 5274TIP3    H240018   5.536   3.912  10.187 -0.1474 -1.4849 -0.3238
 5275TIP3   OH240019   0.345   4.768  11.012 -0.6220  0.2139 -0.8701
 5275TIP3    H140020   0.369   4.702  10.947  1.7823  0.2945 -0.1504
 5275TIP3    H240021   0.425   4.819  11.024 -1.9070  2.1286 -0.0718
 5276TIP3   OH240022   4.124   3.100  11.238  0.3265 -0.3007  0.1460
 5276TIP3    H140023   4.158   3.081  11.325 -0.2171 -0.1589  0.3917
 5276TIP3    H240024   4.038   3.058  11.236 -0.0926  0.5553  0.0395
 5277TIP3   OH240025   1.600   2.959  10.619 -0.6505  0.1010 -0.4144
 5277TIP3    H140026   1.655   2.893  10.661 -0.5534  0.6945  0.3978
 5277TIP3    H240027   1.650   2.984  10.541 -1.5379 -2.1317 -1.8103
 5278TIP3   OH240028   6.313   6.216   9.011 -0.0598 -0.4010  0.1680
 5278TIP3    H140029   6.365   6.257   8.942 -0.9712  0.0235 -0.2856
 5278TIP3    H240030   6.370   6.217   9.088  0.9650 -0.8618 -0.5645
 5279TIP3   OH240031   0.340   2.192   9.154 -0.1189  0.0154 -0.1346
 5279TIP3    H140032   0.427   2.233   9.147 -0.3131  0.5660  0.5256
 5279TIP3    H240033   0.299   2.209   9.069 -0.2108  1.2849  0.1324
 5280TIP3   OH240034   6.048   4.185   8.950 -0.3456 -0.3339 -0.3463
 5280TIP3    H140035   6.064   4.279   8.944  4.1409 -0.8124  0.5411
 5280TIP3    H240036   6.077   4.151   8.865 -0.3059 -1.0450 -0.0529
 5281TIP3   OH240037   3.151   0.501   9.529  0.0407  0.0689  0.7573
 5281TIP3    H140038   3.078   0.561   9.516 -0.4806 -0.9754 -1.7015
 5281TIP3    H240039   3.113   0.414   9.517  1.6147 -0.5193 -0.2193
 5282TIP3   OH240040   2.558   5.134  10.790 -0.3290 -0.1140  0.0057
 5282TIP3    H140041   2.587   5.059  10.841 -0.0972 -0.8294 -1.1497
 5282TIP3    H240042   2.564   5.106  10.699 -0.2300  1.3091 -0.4598
 5283TIP3   OH240043   0.985   7.526  10.196 -0.2525 -0.3604  0.0840
 5283TIP3    H140044   1.023   7.551  10.112  0.2946 -1.5147 -0.0409
 5283TIP3    H240045   0.982   7.607  10.247 -1.8144  0.6456 -1.4802
 5284TIP3   OH240046   5.487   0.693   8.842  0.5186  0.0705  0.2029
 5284TIP3    H140047   5.498   0.638   8.765 -1.0683 -1.1101  0.7597
 5284TIP3    H240048   5.559   0.667   8.900  1.7542  1.0073 -0.8622
 5285TIP3   OH240049   5.544   2.816  10.347 -0.7482  0.3915 -0.0725
 5285TIP3    H140050   5.511   2.879  10.284  0.3037  0.2721 -0.7566
 5285TIP3    H240051   5.478   2.746  10.347 -1.1956  0.8091 -0.3727
 5286TIP3   OH240052   4.271   5.085  10.870 -0.0850 -0.1738  0.3012
 5286TIP3    H140053   4.313   5.154  10.819 -1.1173  0.0353 -0.2845
 5286TIP3    H240054   4.332   5.011  10.863 -0.0145 -0.0270 -0.9135
 5287TIP3   OH240055   0.259   2.637   8.639 -0.3502 -0.4582 -0.0743
 5287TIP3    H140056   0.344   2.661   8.603 -0.0669 -1.2470  0.0377
 5287TIP3    H240057   0.230   2.563   8.585 -0.8665 -0.3351  0.0251
 5288TIP3   OH240058   2.805   3.284   8.668 -0.1491  0.1594  0.1667
 5288TIP3    H140059   2.823   3.244   8.583  1.6345 -0.1042  0.6159
 5288TIP3    H240060   2.815   3.378   8.653 -2.0440  0.3135 -0.3719
 5289TIP3   OH240061   1.745   4.617   9.079 -0.9828  0.0438 -0.4106
 5289TIP3    H140062   1.760   4.541   9.023 -2.2484 -0.2084 -0.4478
 5289TIP3    H240063   1.739   4.581   9.168  1.1427  0.4568 -0.0519
 5290TIP3   OH240064   0.735   3.290  10.916 -0.9548 -0.8743  0.4280
 5290TIP3    H140065   0.779   3.206  10.930 -1.1233 -1.0740 -0.1902
 5290TIP3    H240066   0.777   3.326  10.838 -0.6975 -0.2515  0.8490
 5291TIP3   OH240067   4.727   1.367  10.776  0.0922  0.2366  0.0565
 5291TIP3    H140068   4.698   1.453  10.745  2.3937  1.4642  1.1051
 5291TIP3    H240069   4.737   1.377  10.870  1.0175 -0.9931  0.1079
 5292TIP3   OH240070   2.207   3.055   9.956 -0.1918 -0.2634 -0.1169
 5292TIP3    H140071   2.240   3.066  10.045  1.3824 -0.5838 -0.6378
 5292TIP3    H240072   2.279   3.080   9.899 -0.9001 -0.8198 -1.3163
 5293TIP3   OH240073   0.071   2.642  10.191 -0.1868 -0.2349  0.2441
 5293TIP3    H140074   0.015   2.565  10.191  0.6412 -0.8690  1.0400
 5293TIP3    H240075   0.011   2.716  10.189 -1.1303 -0.8525  2.6933
 5294TIP3   OH240076   1.880   2.289  11.023  0.1026 -0.5671 -0.7007
 5294TIP3    H140077   1.884   2.384  11.037  2.1469 -0.8037  0.6895
 5294TIP3    H240078   1.788   2.272  11.001 -0.5105  1.6069 -0.0553
 5295TIP3   OH240079   1.043   0.658   9.048  0.1982  0.1238 -0.1760
 5295TIP3    H140080   0.996   0.710   9.114  0.4575  0.0295  0.0809
 5295TIP3    H240081   1.064   0.721   8.979 -1.7389 -0.1240 -1.0889
 5296TIP3   OH240082   1.934   7.305  10.688 -0.2153  0.2572 -0.1688
 5296TIP3    H140083   1.988   7.245  10.636  0.4975  0.6466  0.1041
 5296TIP3    H240084   1.888   7.249  10.749  0.8051  0.0124  0.3988
 5297TIP3   OH240085   5.206   1.341   9.531  0.2261 -0.1988  0.0644
 5297TIP3    H140086   5.280   1.367   9.477  1.8235 -0.0029  2.1957
 5297TIP3    H240087   5.237   1.353   9.621 -2.5614  0.2988  1.0520
 5298TIP3   OH240088   1.436   4.392   9.406 -0.3435 -0.1136  0.4233
 5298TIP3    H140089   1.445   4.487   9.412  1.6070 -0.2865  1.2164
 5298TIP3    H240090   1.523   4.358   9.431 -0.3079 -2.0486 -1.9649
 5299TIP3   OH240091   3.981   5.277   9.447  0.3856  0.3070 -0.3951
 5299TIP3    H140092   4.051   5.338   9.468  1.5920 -1.3633  0.6091
 5299TIP3    H240093   3.901   5.322   9.475  1.2961  1.1680  0.9263
 5300TIP3   OH240094   5.631   0.305   9.408 -0.4025 -0.4928  0.3684
 5300TIP3    H140095   5.571   0.231   9.419  2.0690 -2.5741  0.9444
 5300TIP3    H240096   5.679   0.308   9.491  0.4301  0.9449 -0.1452
 5301TIP3   OH240097   3.715   6.996   9.277  0.0588 -0.3404  0.1889
 5301TIP3    H140098   3.770   7.073   9.294 -0.6742  0.0391  0.9121
 5301TIP3    H240099   3.742   6.966   9.190  1.0489  0.1354  0.3138
 5302TIP3   OH240100   6.117   1.689  10.224 -1.0979 -0.0051 -0.8434
 5302TIP3    H140101   6.087   1.735  10.303  1.4403  0.3234  0.0027
 5302TIP3    H240102   6.052   1.620  10.211 -1.5475 -0.1363  1.6034
 5303TIP3   OH240103   3.788   1.652   9.535  0.1569  0.1828 -0.2744
 5303TIP3    H140104   3.858   1.713   9.515 -0.7798  1.3653 -0.0234
 5303TIP3    H240105   3.712   1.707   9.554 -0.7967 -1.0559 -0.3553
 5304TIP3   OH240106   2.145   1.681   8.330  0.4319  0.2023 -0.5149
 5304TIP3    H140107   2.236   1.668   8.305  0.4153 -1.2364  0.1165
 5304TIP3    H240108   2.123   1.606   8.386 -0.5464  1.5449  1.0030
 5305TIP3   OH240109   2.568   4.274   9.610  0.6026  0.4058  0.3552
 5305TIP3    H140110   2.628   4.276   9.535  1.9960  1.7897  1.4381
 5305TIP3    H240111   2.620   4.237   9.681 -0.1400  0.7212  1.0782
 5306TIP3   OH240112   6.052   7.387  10.743 -0.0136  0.1324 -0.5742
 5306TIP3    H140113   5.978   7.370  10.802  1.5891 -0.2117  1.4695
 5306TIP3    H240114   6.062   7.482  10.745 -1.2009  0.3284 -1.9813
 5307TIP3   OH240115   5.625   6.355   9.780  0.0788  0.2522  0.0531
 5307TIP3    H140116   5.607   6.397   9.864 -1.3909  1.0172 -0.6065
 5307TIP3    H240117   5.545   6.368   9.729  1.1807  0.4401 -1.7232
 5308TIP3   OH240118   5.540   5.713   9.096  0.2539 -0.2872 -0.2173
 5308TIP3    H140119   5.552   5.633   9.045 -2.4776 -1.2294  0.4382
 5308TIP3    H240120   5.537   5.783   9.030 -0.0685 -1.0775 -1.0665
 5309TIP3   OH240121   1.960   6.594  10.884 -0.9201  0.0728  0.0447
 5309TIP3    H140122   2.014   6.651  10.940  0.3829 -0.1090 -0.9751
 5309TIP3    H240123   1.968   6.507  10.924 -2.4944  0.4500  1.3033
 5310TIP3   OH240124   5.273   4.046  10.756  0.0170  0.0264  0.3528
 5310TIP3    H140125   5.313   4.117  10.806  0.9324 -0.2430  0.0305
 5310TIP3    H240126   5.297   3.966  10.804 -0.2726 -0.1300  0.2395
 5311TIP3   OH240127   4.948   4.979  11.111  0.1386  0.2432 -0.2946
 5311TIP3    H140128   4.966   4.954  11.021  3.6257 -0.2255  0.3544
 5311TIP3    H240129   4.939   4.896  11.158 -0.3011  0.4499 -0.0108
 5312TIP3   OH240130   6.528   1.245   8.415 -0.3494 -0.1419  0.1623
 5312TIP3    H140131   6.596   1.285   8.361 -1.3988  0.0134 -1.0918
 5312TIP3    H240132   6.538   1.151   8.399  0.6780 -0.2468  1.3518
 5313TIP3   OH240133   3.065   2.207   8.421 -0.0177  0.5149 -0.0835
 5313TIP3    H140134   3.151   2.248   8.419 -0.3171  1.1770 -2.2440
 5313TIP3    H240135   3.005   2.277   8.394 -1.0846 -0.2209  0.3279
 5314TIP3   OH240136   2.129   0.495   9.958  0.8135  0.3076  0.0311
 5314TIP3    H140137   2.211   0.462   9.996 -0.2767 -0.7968  1.5622
 5314TIP3    H240138   2.072   0.510  10.033  0.1210  2.6621 -0.8760
 5315TIP3   OH240139   4.434   0.441   9.157  0.4667  0.7284  0.1889
 5315TIP3    H140140   4.478   0.500   9.096  0.1992 -0.1709 -0.9132
 5315TIP3    H240141   4.437   0.486   9.241  0.8750  1.9873 -0.4826
 5316TIP3   OH240142   2.342   5.334  10.730  0.4360 -0.0451  0.0570
 5316TIP3    H140143   2.419   5.278  10.718  0.5398  0.2768 -0.8732
 5316TIP3    H240144   2.268   5.274  10.726  0.6351 -0.3937  1.2188
 5317TIP3   OH240145   0.972   5.772   8.651  0.1613 -0.0420 -0.0109
 5317TIP3    H140146   1.031   5.709   8.693 -2.8447 -1.6361  2.2018
 5317TIP3    H240147   0.903   5.788   8.715 -0.5046  3.8218 -1.3852
 5318TIP3   OH240148   1.236   0.110  10.835  0.3060  0.0107  0.3985
 5318TIP3    H140149   1.309   0.127  10.776 -0.7241 -0.5734 -1.1112
 5318TIP3    H240150   1.220   0.016  10.827 -1.5298  0.3515 -0.4721
 5319TIP3   OH240151   5.471   2.104   8.858 -0.1665  0.1224  0.1403
 5319TIP3    H140152   5.475   2.166   8.931 -0.4489 -0.6815  0.8699
 5319TIP3    H240153   5.392   2.126   8.810  1.3596  2.3454 -1.5266
 5320TIP3   OH240154   7.594   7.012  11.100 -0.5245 -0.3755  0.5595
 5320TIP3    H140155   7.665   7.045  11.045  0.0693  2.8280  2.9817
 5320TIP3    H240156   7.632   6.937  11.146  1.3614  1.2226  1.7493
 5321TIP3   OH240157   2.627   3.551  11.152 -0.0516 -0.0221  0.2758
 5321TIP3    H140158   2.692   3.508  11.208 -0.9389 -0.7018  0.8028
 5321TIP3    H240159   2.657   3.534  11.063  2.0105  2.0246  0.4874
 5322TIP3   OH240160   3.075   2.566  11.042 -0.0568 -0.3549  0.3224
 5322TIP3    H140161   3.122   2.624  11.102 -0.7987  0.4790  0.1219
 5322TIP3    H240162   3.005   2.620  11.006  0.2365 -0.8880 -1.1434
 5323TIP3   OH240163   0.961   2.004  10.309  0.0756 -0.4801 -0.1806
 5323TIP3    H140164   0.877   2.034  10.343 -1.4713 -3.7487 -0.7410
 5323TIP3    H240165   0.960   1.909  10.322  3.8420 -0.6390  0.0277
 5324TIP3   OH240166   6.357   0.166  10.044 -0.3761  0.3156  0.0032
 5324TIP3    H140167   6.336   0.094   9.984 -1.0639 -0.2376  0.8627
 5324TIP3    H240168   6.358   0.244   9.990 -0.7857 -0.1980 -0.7584
 5325TIP3   OH240169   4.157   0.997  10.809 -0.6708 -0.1165 -0.1070
 5325TIP3    H140170   4.148   0.954  10.724 -0.5305 -0.1968 -0.0796
 5325TIP3    H240171   4.100   1.074  10.802 -1.4247 -0.6489  0.0744
 5326TIP3   OH240172   3.783   1.400   9.162 -0.5781  0.4428 -0.1461
 5326TIP3    H140173   3.732   1.482   9.163  2.5139  2.5437  1.3966
 5326TIP3    H240174   3.808   1.387   9.253  0.6782 -1.1465 -0.6797
 5327TIP3   OH240175   4.391   0.158   9.128  0.1906  0.0583 -0.5994
 5327TIP3    H140176   4.436   0.240   9.144  1.4489 -0.9272  1.2355
 5327TIP3    H240177   4.408   0.105   9.206 -2.9407 -0.9349 -0.4466
 5328TIP3   OH240178   4.728   5.878   9.502  0.3389 -0.7013 -0.0764
 5328TIP3    H140179   4.644   5.845   9.532  0.0663 -1.0997 -1.2139
 5328TIP3    H240180   4.722   5.875   9.406  1.4421 -0.2227 -0.1771
 5329TIP3   OH240181   6.043   1.871   8.662  0.6768 -0.0199 -0.0557
 5329TIP3    H140182   6.081   1.832   8.742  0.5743 -0.3175 -0.1487
 5329TIP3    H240183   6.086   1.824   8.591  1.3914  0.8303 -0.1985
 5330TIP3   OH240184   2.245   6.558   8.837  0.3228  0.3926 -0.5077
 5330TIP3    H140185   2.278   6.479   8.882 -0.7117 -1.0565 -2.1735
 5330TIP3    H240186   2.154   6.537   8.815  0.1744  1.8759 -1.4244
 5331TIP3   OH240187   2.047   4.145   9.670  0.0283 -1.0889 -0.6231
 5331TIP3    H140188   2.140   4.152   9.689  0.0117 -2.2644 -0.0646
 5331TIP3    H240189   2.015   4.076   9.728 -1.9292  1.6168  1.8160
 5332TIP3   OH240190   3.332   4.537   8.703 -0.1304 -0.5789  0.2002
 5332TIP3    H140191   3.373   4.461   8.663  1.2880  0.8531 -1.1983
 5332TIP3    H240192   3.247   4.505   8.735 -0.5905 -2.2261 -2.4200
 5333TIP3   OH240193   6.272   5.311   9.713  0.2331 -0.2173  0.2082
 5333TIP3    H140194   6.325   5.234   9.693 -2.4089 -1.9891 -0.3732
 5333TIP3    H240195   6.243   5.297   9.804 -1.3342 -0.6339 -0.3302
 5334TIP3   OH240196   0.267   1.366  10.827  0.1443  0.1997 -0.0576
 5334TIP3    H140197   0.294   1.275  10.845 -1.0378  0.1644  1.9334
 5334TIP3    H240198   0.173   1.366  10.844  0.1027  1.7816 -0.1693
 5335TIP3   OH240199   1.941   1.467  10.798  0.0384  0.0274  0.1542
 5335TIP3    H140200   1.856   1.468  10.841 -0.1008 -0.3559 -0.1033
 5335TIP3    H240201   1.998   1.517  10.856 -0.6976  1.5824 -0.3778
 5336TIP3   OH240202   4.324   1.606  10.215 -0.0318  0.4597 -0.0890
 5336TIP3    H140203   4.419   1.594  10.207 -0.0343  0.7678 -0.7394
 5336TIP3    H240204   4.288   1.518  10.209  0.2375  0.3000  0.5917
 5337TIP3   OH240205   3.243   1.647  10.666  0.1514  0.2380 -0.2234
 5337TIP3    H140206   3.188   1.703  10.611 -0.3779  0.4678  0.5228
 5337TIP3    H240207   3.250   1.695  10.749  2.8237  0.9975 -0.8141
 5338TIP3   OH240208   1.344   6.057  10.820 -0.2094  0.1498 -0.1572
 5338TIP3    H140209   1.425   6.047  10.771  0.0147  0.8548  0.0657
 5338TIP3    H240210   1.317   5.968  10.840  2.7961 -0.1684  3.6009
 5339TIP3   OH240211   5.237   0.395   8.841 -0.7278  0.4538  0.1900
 5339TIP3    H140212   5.209   0.434   8.758 -1.0418 -1.2660 -0.5475
 5339TIP3    H240213   5.156   0.377   8.888 -0.6166  0.2275  0.2976
 5340TIP3   OH240214   7.577   5.828   9.100 -0.1568  0.2889  0.0927
 5340TIP3    H140215   7.582   5.910   9.050  0.3186  0.1776 -0.0535
 5340TIP3    H240216   7.656   5.781   9.075 -0.3225 -0.1226  0.3422
 5341TIP3   OH240217   3.763   0.173   8.388 -0.1979  0.0195 -0.0465
 5341TIP3    H140218   3.809   0.209   8.464  0.7556  0.0189 -0.5981
 5341TIP3    H240219   3.697   0.114   8.425  0.9754 -0.8282  0.7746
 5342TIP3   OH240220   1.212   5.981   9.406 -0.4042 -0.1138  0.6245
 5342TIP3    H140221   1.179   6.047   9.467  1.1643  0.5969  0.7657
 5342TIP3    H240222   1.304   6.007   9.391 -0.4616 -0.8427 -1.2375
 5343TIP3   OH240223   4.311   7.505   8.758 -0.2512  0.2841 -0.7427
 5343TIP3    H140224   4.216   7.518   8.756 -0.1147  1.2178 -1.5437
 5343TIP3    H240225   4.322   7.410   8.759 -1.1904  0.1664 -1.1211
 5344TIP3   OH240226   1.096   0.604   8.102  0.1493  0.2205 -0.1228
 5344TIP3    H140227   1.085   0.692   8.066 -1.0833  0.3202  0.4310
 5344TIP3    H240228   1.121   0.619   8.193  2.2697 -0.0269 -0.6199
 5345TIP3   OH240229   6.186   1.528   8.670 -0.4624  0.2093 -0.1198
 5345TIP3    H140230   6.217   1.465   8.605  0.9354  1.0172 -0.2953
 5345TIP3    H240231   6.126   1.478   8.726 -2.8410 -0.1735 -2.8044
 5346TIP3   OH240232   6.248   5.630  10.132 -0.1827  0.0518 -0.0232
 5346TIP3    H140233   6.306   5.675  10.192  0.4038  0.0480 -0.5809
 5346TIP3    H240234   6.190   5.698  10.098  1.9813  0.8561 -2.4057
 5347TIP3   OH240235   7.034   4.392   9.325 -0.4607 -0.0815  0.0528
 5347TIP3    H140236   6.948   4.368   9.292 -0.4176  0.0017 -0.1209
 5347TIP3    H240237   7.017   4.452   9.397 -0.5457  0.0111 -0.0450
 5348TIP3   OH240238   5.756   0.941   8.659  0.0234 -0.4900 -0.7219
 5348TIP3    H140239   5.825   0.980   8.712  0.1810  0.5930 -1.6998
 5348TIP3    H240240   5.800   0.909   8.581 -0.3702 -1.0962 -0.7067
 5349TIP3   OH240241   1.516   6.661   9.523 -0.2980  0.4316  0.2842
 5349TIP3    H140242   1.466   6.691   9.446 -0.3330 -3.6419 -1.5101
 5349TIP3    H240243   1.607   6.685   9.503 -0.6817  2.5869  0.7985
 5350TIP3   OH240244   2.134   1.797  10.863 -0.8889 -0.3447  0.1358
 5350TIP3    H140245   2.130   1.723  10.923 -2.0720 -0.0474  0.4423
 5350TIP3    H240246   2.072   1.861  10.899 -0.2554  0.5966 -0.3929
 5351TIP3   OH240247   3.254   6.747   8.779 -0.2142 -0.0152  0.9556
 5351TIP3    H140248   3.211   6.665   8.756 -0.4842  0.5843 -0.8165
 5351TIP3    H240249   3.303   6.727   8.859  0.8785 -2.3012 -0.1876
 5352TIP3   OH240250   4.576   2.145  10.298  0.7326  0.2393  0.1826
 5352TIP3    H140251   4.585   2.178  10.209 -0.3245 -0.7065 -0.2993
 5352TIP3    H240252   4.665   2.123  10.325  0.9852 -0.1891 -0.9376
 5353TIP3   OH240253   0.753   0.890  10.998  0.8145  0.0453  0.3457
 5353TIP3    H140254   0.819   0.820  10.999 -0.3059 -1.1150  3.1795
 5353TIP3    H240255   0.683   0.857  10.942  1.4510  0.1162 -0.5086
 5354TIP3   OH240256   2.826   3.998   9.429 -0.0184 -0.3244  0.6967
 5354TIP3    H140257   2.771   3.935   9.476  1.1806 -0.8369  1.4594
 5354TIP3    H240258   2.802   3.987   9.337 -0.9098 -0.8055  0.9797
 5355TIP3   OH240259   1.145   6.833  10.413  1.1964  0.3156 -0.0285
 5355TIP3    H140260   1.143   6.742  10.444  0.9662  0.4536  0.3740
 5355TIP3    H240261   1.062   6.870  10.445  0.8030  0.3807 -1.0796
 5356TIP3   OH240262   7.109   0.644  11.052  0.0575 -0.0724 -0.2114
 5356TIP3    H140263   7.028   0.677  11.091  0.0500  0.0687 -0.3442
 5356TIP3    H240264   7.134   0.711  10.988 -0.3210 -0.6373 -0.9694
 5357TIP3   OH240265   7.350   3.970  10.654 -0.2139 -0.0289 -0.6365
 5357TIP3    H140266   7.314   4.051  10.617 -1.7482 -0.1056  0.5881
 5357TIP3    H240267   7.445   3.985  10.655 -0.3474  1.1336 -1.8065
 5358TIP3   OH240268   3.791   3.482  11.577 -0.2749 -0.2293 -0.3610
 5358TIP3    H140269   3.816   3.413  11.515 -2.1861 -1.6254  0.3138
 5358TIP3    H240270   3.789   3.438  11.661  0.1277  1.1106  0.3758
 5359TIP3   OH240271   5.322   3.586   9.850 -0.0019  0.2029  0.1321
 5359TIP3    H140272   5.334   3.568   9.943  0.6451  2.5049  0.5743
 5359TIP3    H240273   5.389   3.534   9.806 -0.8201 -1.5153  0.8370
 5360TIP3   OH240274   1.380   1.923   8.257 -0.0665  0.4991 -0.5242
 5360TIP3    H140275   1.437   1.974   8.314 -0.6067  0.0334  0.4610
 5360TIP3    H240276   1.437   1.893   8.186  0.8154  0.4251  0.1944
 5361TIP3   OH240277   5.884   6.849   9.523  0.4085 -0.2950 -0.0325
 5361TIP3    H140278   5.872   6.915   9.455  0.0794 -0.1740  0.1426
 5361TIP3    H240279   5.973   6.816   9.508  0.5958  0.2214 -0.0930
 5362TIP3   OH240280   7.259   5.692   9.332  0.6199 -0.6195  0.1695
 5362TIP3    H140281   7.260   5.788   9.340 -0.2917 -0.5049 -0.9196
 5362TIP3    H240282   7.293   5.674   9.245 -0.3308 -1.2106 -0.0975
 5363TIP3   OH240283   5.000   5.223   8.687  0.5441 -0.7628  0.4145
 5363TIP3    H140284   5.077   5.276   8.706 -0.8534  0.7788  2.2694
 5363TIP3    H240285   4.979   5.180   8.769  0.5841 -2.8485 -0.5999
 5364TIP3   OH240286   3.768   4.151   8.356  0.9233 -0.0172  0.3544
 5364TIP3    H140287   3.855   4.174   8.323  0.8080 -0.0458  0.0261
 5364TIP3    H240288   3.760   4.058   8.338  0.1451  0.3205 -1.2131
 5365TIP3   OH240289   0.977   6.787   8.390 -0.5561  0.1588  0.6289
 5365TIP3    H140290   0.976   6.693   8.372 -1.6220  0.4446 -1.0721
 5365TIP3    H240291   0.909   6.800   8.456  0.1453 -0.3394  1.4665
 5366TIP3   OH240292   1.714   7.381  10.114  0.1039 -0.4683  0.1822
 5366TIP3    H140293   1.753   7.337  10.190  0.3573 -1.1808 -0.3376
 5366TIP3    H240294   1.623   7.352  10.113  0.3787 -1.3690 -0.4092
 5367TIP3   OH240295   3.071   5.718  10.532 -0.1731 -0.2961 -0.0066
 5367TIP3    H140296   3.033   5.635  10.503  0.6838 -0.3556 -1.0544
 5367TIP3    H240297   3.154   5.692  10.574  1.1000  0.1001 -2.1130
 5368TIP3   OH240298   5.202   1.537  10.051  0.0348 -0.0975  0.3687
 5368TIP3    H140299   5.257   1.616  10.047 -0.6873  0.4252  0.4637
 5368TIP3    H240300   5.143   1.546   9.975 -0.3486 -0.3159  0.6362
 5369TIP3   OH240301   1.597   1.588  10.541  0.2137  0.3162 -0.1245
 5369TIP3    H140302   1.549   1.522  10.590 -0.6546  1.7015  0.9866
 5369TIP3    H240303   1.587   1.562  10.450 -1.3724 -0.2991  0.1877
 5370TIP3   OH240304   2.841   5.318  10.705 -0.5151  0.0143  0.6435
 5370TIP3    H140305   2.923   5.327  10.753  0.0149  0.8583 -0.3966
 5370TIP3    H240306   2.798   5.403  10.714 -0.6093  0.0388 -0.0182
 5371TIP3   OH240307   6.276   1.314   8.512 -0.3497 -0.2986  0.5505
 5371TIP3    H140308   6.368   1.295   8.494 -0.5978  0.8567 -2.6628
 5371TIP3    H240309   6.229   1.237   8.479 -0.6318 -0.2587  0.8479
 5372TIP3   OH240310   3.520   4.270  10.628  0.0445  0.0407 -0.0419
 5372TIP3    H140311   3.613   4.276  10.604  0.6681 -1.8273  1.6464
 5372TIP3    H240312   3.479   4.230  10.551  0.6716  0.5929 -0.6877
 5373TIP3   OH240313   1.818   3.721  10.182 -0.0667 -0.0299  0.0857
 5373TIP3    H140314   1.723   3.721  10.183 -0.1562 -1.8214  2.9436
 5373TIP3    H240315   1.844   3.740  10.272  2.1840 -1.7230 -0.0911
 5374TIP3   OH240316   4.064   5.693  10.106 -0.3456 -0.1613 -0.3932
 5374TIP3    H140317   4.134   5.757  10.113  0.1085 -0.5718 -1.0321
 5374TIP3    H240318   4.080   5.649  10.023 -1.6413  0.0636 -0.7920
 5375TIP3   OH240319   7.218   1.418  10.976  0.3201  0.4922  0.2478
 5375TIP3    H140320   7.136   1.464  10.959  0.1374  0.8017  1.8267
 5375TIP3    H240321   7.285   1.486  10.973  0.3446  0.4725  0.3626
 5376TIP3   OH240322   0.478   0.081   9.057  0.2883  0.0183  0.2534
 5376TIP3    H140323   0.471   0.141   8.983  1.1440  0.3621  0.4451
 5376TIP3    H240324   0.536   0.124   9.118 -0.3001 -0.3319  1.0795
 5377TIP3   OH240325   6.424   5.256  10.667 -0.0545 -0.5024  0.1987
 5377TIP3    H140326   6.385   5.339  10.638  0.3996 -0.7660 -1.2406
 5377TIP3    H240327   6.354   5.192  10.657 -0.0992 -0.4733  0.3272
 5378TIP3   OH240328   2.742   5.697   8.935  0.1890  0.1789 -0.1758
 5378TIP3    H140329   2.703   5.776   8.972 -1.7231 -0.9231  0.2842
 5378TIP3    H240330   2.751   5.716   8.841 -0.9818  0.6590 -0.1993
 5379TIP3   OH240331   6.111   2.613   8.579  0.1107 -0.3723  0.5674
 5379TIP3    H140332   6.048   2.616   8.506 -0.4204 -0.7386  1.0007
 5379TIP3    H240333   6.106   2.523   8.611 -0.1832 -0.0313  1.5069
 5380TIP3   OH240334   3.380   1.774  10.279 -0.5762  0.3802  0.4778
 5380TIP3    H140335   3.286   1.769  10.259 -0.7050 -0.4275  1.2575
 5380TIP3    H240336   3.409   1.683  10.279  0.0653  0.5859  0.9138
 5381TIP3   OH240337   2.068   7.312   8.913  0.1372 -0.1892  0.1268
 5381TIP3    H140338   2.032   7.305   9.001  0.1810 -1.5560  0.0592
 5381TIP3    H240339   2.022   7.386   8.873 -0.9242 -0.4696  0.8045
 5382TIP3   OH240340   7.293   0.083  10.261 -0.6814 -0.0190 -0.0389
 5382TIP3    H140341   7.316   0.088  10.168  1.7996 -0.5631  0.4633
 5382TIP3    H240342   7.198   0.078  10.262 -0.7212 -2.2574 -2.6867
 5383TIP3   OH240343   5.841   6.586   8.882  0.1867 -0.1705 -0.5575
 5383TIP3    H140344   5.891   6.521   8.931  0.5747 -2.1547 -3.3228
 5383TIP3    H240345   5.754   6.548   8.874 -0.4117  1.0127  0.1527
 5384TIP3   OH240346   5.941   3.210  10.133  0.0835  0.3936  0.2967
 5384TIP3    H140347   5.974   3.176  10.215 -0.9508  0.6556  0.8400
 5384TIP3    H240348   5.858   3.251  10.156 -0.8288 -0.6050 -1.0712
 5385TIP3   OH240349   6.725   1.456   8.399  0.1296  0.2571  0.1809
 5385TIP3    H140350   6.753   1.532   8.449  1.9048  0.7502 -1.4225
 5385TIP3    H240351   6.805   1.424   8.357 -1.0420 -0.8404 -1.3701
 5386TIP3   OH240352   2.864   5.118  10.532 -0.5640  0.2208 -0.5077
 5386TIP3    H140353   2.934   5.063  10.567  0.0779  0.7241 -0.9623
 5386TIP3    H240354   2.866   5.197  10.587 -0.3122  0.5253 -0.9450
 5387TIP3   OH240355   5.764   4.952   9.339 -0.1085  0.0776 -0.3703
 5387TIP3    H140356   5.812   4.882   9.295 -0.1381  0.5970 -1.2391
 5387TIP3    H240357   5.814   5.031   9.321 -0.0003  0.2737  0.7285
 5388TIP3   OH240358   3.094   3.901   8.102 -0.6305  0.3322  0.6035
 5388TIP3    H140359   3.004   3.914   8.132 -0.6394  1.3048  0.1988
 5388TIP3    H240360   3.090   3.824   8.046 -1.0833 -0.0098  1.0931
 5389TIP3   OH240361   1.426   0.332  10.528  0.1934  0.2008 -0.0913
 5389TIP3    H140362   1.375   0.407  10.559 -0.3094 -0.1849  0.0135
 5389TIP3    H240363   1.362   0.263  10.515  0.3469  0.3654 -2.0881
 5390TIP3   OH240364   5.533   7.115  10.344 -0.2525  0.1120 -0.2212
 5390TIP3    H140365   5.500   7.190  10.394  0.7726  0.9394 -0.7372
 5390TIP3    H240366   5.577   7.060  10.409 -0.0908  0.5010 -0.0001
 5391TIP3   OH240367   0.277   3.655   3.109  0.0160 -0.0663  0.1308
 5391TIP3    H140368   0.333   3.579   3.122 -0.3511 -0.5533 -1.0057
 5391TIP3    H240369   0.310   3.695   3.029  0.6512  1.3926  1.0792
 5392TIP3   OH240370   7.142   4.540   3.070  0.6644  0.2958 -0.4311
 5392TIP3    H140371   7.157   4.618   3.124  0.6244 -1.6765  2.6846
 5392TIP3    H240372   7.059   4.558   3.026  0.0087  1.5528  1.1822
 5393TIP3   OH240373   6.425   7.505   2.504  0.4432  0.1021  0.2611
 5393TIP3    H140374   6.490   7.571   2.479  0.7415 -1.1158 -2.6242
 5393TIP3    H240375   6.474   7.442   2.556  0.6845  0.9630  1.1093
 5394TIP3   OH240376   1.826   0.641   4.230  0.1904 -0.5345  0.1725
 5394TIP3    H140377   1.869   0.571   4.280 -1.3407 -1.1935  0.6497
 5394TIP3    H240378   1.890   0.665   4.162  0.6847 -2.5926 -0.1790
 5395TIP3   OH240379   0.811   3.024   4.435 -0.5644 -0.1401  0.2776
 5395TIP3    H140380   0.730   3.074   4.438 -1.2208 -1.1920  1.4488
 5395TIP3    H240381   0.826   2.999   4.526  1.2266  0.2434  0.1197
 5396TIP3   OH240382   1.062   5.081   4.816  0.0140  0.2723  0.0050
 5396TIP3    H140383   0.981   5.132   4.812  0.4697  0.9649 -0.3913
 5396TIP3    H240384   1.130   5.144   4.839  0.5474 -0.1912 -0.2738
 5397TIP3   OH240385   3.323   4.724   3.548  0.2129  0.0233  0.0277
 5397TIP3    H140386   3.345   4.631   3.554  0.0597 -0.1198 -1.3595
 5397TIP3    H240387   3.395   4.768   3.592 -0.0129 -0.7615  1.2581
 5398TIP3   OH240388   5.570   0.175   3.762 -0.1309  0.6283  0.2109
 5398TIP3    H140389   5.575   0.150   3.854  0.1082 -1.7929 -0.3843
 5398TIP3    H240390   5.476   0.177   3.743 -0.2601  2.7865  0.8604
 5399TIP3   OH240391   0.233   6.065   3.093 -0.4475  0.2338 -0.8396
 5399TIP3    H140392   0.270   5.983   3.124 -0.2440  1.1984  1.6776
 5399TIP3    H240393   0.141   6.062   3.119 -0.7698  0.2907 -1.9021
 5400TIP3   OH240394   4.755   2.555   3.045  0.3152  0.1500 -0.1466
 5400TIP3    H140395   4.772   2.473   2.999  2.8262 -0.1883  1.2116
 5400TIP3    H240396   4.751   2.621   2.977 -0.0456 -0.8579 -1.1290
 5401TIP3   OH240397   4.408   1.999   2.794  0.1895  0.0350 -0.1015
 5401TIP3    H140398   4.317   2.022   2.812 -0.3685 -1.3690 -0.9082
 5401TIP3    H240399   4.451   2.002   2.879 -0.2598  2.0716  0.0883
 5402TIP3   OH240400   1.333   7.563   2.907  0.4239 -0.1761 -0.3879
 5402TIP3    H140401   1.336   7.525   2.995  0.7111 -1.3954 -0.9071
 5402TIP3    H240402   1.397   7.514   2.857 -0.6486 -0.3781 -1.6187
 5403TIP3   OH240403   5.752   5.763   2.688 -0.3359 -0.2783  0.3327
 5403TIP3    H140404   5.672   5.722   2.722  0.3055 -1.3297  0.6212
 5403TIP3    H240405   5.759   5.845   2.737 -1.7575  0.3308 -0.4071
 5404TIP3   OH240406   6.931   3.069   2.838  0.5066 -0.1035 -0.0760
 5404TIP3    H140407   6.947   2.980   2.870  1.0635  0.0595  0.1078
 5404TIP3    H240408   6.836   3.079   2.843  0.4109 -0.7922 -0.3819
 5405TIP3   OH240409   5.835   4.275   2.810 -0.5293  0.4509 -0.1801
 5405TIP3    H140410   5.824   4.252   2.718 -0.6131 -0.3509  0.0271
 5405TIP3    H240411   5.790   4.359   2.819 -2.2453 -0.4013 -0.4474
 5406TIP3   OH240412   3.596   3.816   2.721 -0.2347 -0.7554 -0.2138
 5406TIP3    H140413   3.656   3.869   2.670 -1.4261 -1.3704 -2.3945
 5406TIP3    H240414   3.620   3.725   2.700  1.5032 -1.2124  3.1171
 5407TIP3   OH240415   1.267   2.730   2.496 -0.0252 -0.0203 -0.4230
 5407TIP3    H140416   1.210   2.801   2.467 -1.2247 -0.9390 -0.3924
 5407TIP3    H240417   1.339   2.729   2.432  0.7162  2.0289  0.3100
 5408TIP3   OH240418   3.013   3.949   4.541 -0.4663 -0.2766  1.1248
 5408TIP3    H140419   2.979   4.036   4.559 -2.3414 -0.7271  0.0465
 5408TIP3    H240420   3.008   3.904   4.626  0.8554  0.7365  1.7681
 5409TIP3   OH240421   1.832   2.025   3.737  0.3144 -0.1749 -0.8181
 5409TIP3    H140422   1.886   1.948   3.755  1.3499  0.8307  0.6070
 5409TIP3    H240423   1.862   2.057   3.652  0.0902 -1.1512 -1.2744
 5410TIP3   OH240424   0.552   6.095   3.915  0.4588  0.0031 -0.1612
 5410TIP3    H140425   0.648   6.088   3.908  0.7779  1.5914  1.6269
 5410TIP3    H240426   0.529   6.168   3.857  0.0876 -1.2752 -1.6966
 5411TIP3   OH240427   5.257   6.949   3.801 -0.5538 -0.2981 -0.5162
 5411TIP3    H140428   5.224   6.975   3.714 -2.4869 -0.7695  0.0286
 5411TIP3    H240429   5.182   6.963   3.859  1.0195  1.0402  1.3124
 5412TIP3   OH240430   6.521   6.108   4.941 -0.3059  0.2434  0.0933
 5412TIP3    H140431   6.601   6.153   4.969 -0.2245  0.6629 -0.7740
 5412TIP3    H240432   6.452   6.175   4.949 -0.6038 -0.1585  0.9737
 5413TIP3   OH240433   2.325   4.830   2.104 -0.2102 -0.4250  0.4211
 5413TIP3    H140434   2.411   4.799   2.075  0.0823  0.3590  0.4257
 5413TIP3    H240435   2.318   4.797   2.194  0.7315  0.7293  0.9394
 5414TIP3   OH240436   4.481   3.436   4.757  0.3939 -0.4715 -0.2227
 5414TIP3    H140437   4.386   3.425   4.746 -0.1913  0.2981  3.0329
 5414TIP3    H240438   4.506   3.502   4.693 -1.8401  1.2739  0.5816
 5415TIP3   OH240439   5.508   2.000   3.556  0.5759 -0.6524 -0.1465
 5415TIP3    H140440   5.452   1.926   3.535 -0.3399 -0.3131  0.9985
 5415TIP3    H240441   5.478   2.070   3.498 -0.4606 -0.3614  0.7230
 5416TIP3   OH240442   4.078   7.169   2.418 -0.3701  0.5419 -0.1230
 5416TIP3    H140443   4.054   7.259   2.442 -0.6219  1.1381 -2.3754
 5416TIP3    H240444   4.104   7.129   2.501 -1.0100  2.4377  1.0819
 5417TIP3   OH240445   1.704   0.788   3.988  0.0470 -0.6958  0.1855
 5417TIP3    H140446   1.743   0.758   4.070 -0.2768  0.8432  0.9549
 5417TIP3    H240447   1.628   0.732   3.975 -0.6093 -0.1996  1.6184
 5418TIP3   OH240448   0.184   0.840   2.723 -0.2116  0.0749  0.0754
 5418TIP3    H140449   0.198   0.888   2.804 -2.1129  0.4059  0.2513
 5418TIP3    H240450   0.180   0.748   2.750  1.7094 -0.0649 -0.0259
 5419TIP3   OH240451   6.864   7.112   2.649  0.0591  0.0725 -0.8742
 5419TIP3    H140452   6.834   7.026   2.678 -1.0999 -0.1089 -2.5203
 5419TIP3    H240453   6.828   7.173   2.713  1.2951 -0.6552  0.5873
 5420TIP3   OH240454   0.712   5.434   3.969 -0.1598 -0.2585  0.1173
 5420TIP3    H140455   0.644   5.482   4.016  0.0742 -1.7631  2.1448
 5420TIP3    H240456   0.677   5.422   3.881 -1.3635  1.2381  0.3620
 5421TIP3   OH240457   7.031   0.206   2.391  0.5584  0.1932  0.2945
 5421TIP3    H140458   6.996   0.133   2.442 -1.1414  0.3247 -0.5861
 5421TIP3    H240459   7.037   0.278   2.453 -2.3104  0.6062  0.2316
 5422TIP3   OH240460   5.545   5.656   2.479  0.5938  0.3291 -0.1370
 5422TIP3    H140461   5.537   5.566   2.511  1.9514 -0.0885 -0.8594
 5422TIP3    H240462   5.550   5.709   2.559 -0.0006 -0.2572  0.3024
 5423TIP3   OH240463   7.638   4.210   2.950  0.3290 -0.5163  0.0501
 5423TIP3    H140464   7.682   4.244   3.028  0.0486  0.5801 -0.2457
 5423TIP3    H240465   7.707   4.197   2.886  0.3490  0.3159 -0.1068
 5424TIP3   OH240466   1.285   4.521   3.531  0.5304 -0.1973 -0.0288
 5424TIP3    H140467   1.343   4.560   3.596  1.0256  0.2528 -0.7250
 5424TIP3    H240468   1.204   4.502   3.579  0.6776  0.6591  0.5826
 5425TIP3   OH240469   3.401   6.032   4.178  0.2467  0.5501  0.0952
 5425TIP3    H140470   3.473   6.084   4.213  0.2504 -0.4999  1.7407
 5425TIP3    H240471   3.434   6.000   4.093  1.3444  0.8638  0.3850
 5426TIP3   OH240472   6.324   1.158   3.396 -0.0313 -0.0516 -0.6653
 5426TIP3    H140473   6.288   1.240   3.429 -0.6370 -0.6089  0.1142
 5426TIP3    H240474   6.362   1.180   3.311  2.8738  1.7627  0.9540
 5427TIP3   OH240475   3.816   5.307   3.871 -0.1629  0.3170  0.1581
 5427TIP3    H140476   3.834   5.346   3.785  1.5125  1.7129  1.0842
 5427TIP3    H240477   3.815   5.213   3.854 -1.3764  0.5915 -1.6313
 5428TIP3   OH240478   6.995   6.161   4.033  0.6291 -0.2465 -0.2873
 5428TIP3    H140479   6.914   6.129   3.995 -1.0721  1.6851  1.4806
 5428TIP3    H240480   7.020   6.093   4.096  0.2253 -0.6922 -0.5980
 5429TIP3   OH240481   1.450   6.956   3.638 -0.0426  0.2419  0.1700
 5429TIP3    H140482   1.426   6.976   3.547  0.8242 -1.3880 -0.4674
 5429TIP3    H240483   1.389   7.007   3.691 -0.4540  1.3707 -1.3226
 5430TIP3   OH240484   2.523   3.889   3.918 -0.0463  0.5944 -0.0825
 5430TIP3    H140485   2.532   3.794   3.914 -1.4971  0.3885  0.7065
 5430TIP3    H240486   2.463   3.911   3.847  0.2775  0.9269 -0.2585
 5431TIP3   OH240487   5.783   6.122   3.476 -0.1141  0.1566 -0.1120
 5431TIP3    H140488   5.867   6.077   3.483 -0.1903 -0.0026 -0.2056
 5431TIP3    H240489   5.732   6.088   3.550  0.5873  1.7564  1.1713
 5432TIP3   OH240490   7.429   4.325   4.916  0.1277 -0.6362 -0.4576
 5432TIP3    H140491   7.341   4.354   4.939  0.9440  0.8455  1.0382
 5432TIP3    H240492   7.457   4.385   4.847  0.5875  0.0822  0.3228
 5433TIP3   OH240493   1.500   5.053   4.333  0.7939 -0.0077 -0.3579
 5433TIP3    H140494   1.557   5.108   4.387  0.2582  2.2732 -1.9793
 5433TIP3    H240495   1.428   5.028   4.391  0.3547  2.1507  0.1082
 5434TIP3   OH240496   0.475   1.249   2.696  0.3292 -0.0776 -0.0917
 5434TIP3    H140497   0.479   1.293   2.611 -1.6701 -1.9515 -1.2430
 5434TIP3    H240498   0.396   1.283   2.738  0.4871 -0.2735  0.3757
 5435TIP3   OH240499   5.920   1.997   4.045 -0.8231  0.8093 -0.2778
 5435TIP3    H140500   5.895   1.987   4.136 -2.0314 -0.3152 -0.7026
 5435TIP3    H240501   5.961   1.913   4.022  0.6279  1.5286 -0.4495
 5436TIP3   OH240502   2.886   0.531   3.655  0.0168 -1.1621 -0.0087
 5436TIP3    H140503   2.850   0.475   3.723 -0.9927 -1.2073 -0.5662
 5436TIP3    H240504   2.813   0.588   3.629  0.9037  0.1594  0.2759
 5437TIP3   OH240505   6.589   2.269   2.824  0.3749  0.4253  0.1552
 5437TIP3    H140506   6.582   2.293   2.732 -0.6815  1.4813  0.4917
 5437TIP3    H240507   6.548   2.341   2.872  1.4525  0.2038  1.5010
 5438TIP3   OH240508   7.037   4.154   3.242 -0.7287 -0.3296  0.0566
 5438TIP3    H140509   7.036   4.078   3.184 -0.9128  0.8878 -1.6317
 5438TIP3    H240510   7.126   4.156   3.277 -1.2177 -2.2905  1.5502
 5439TIP3   OH240511   0.582   0.277   4.621  0.4117 -0.0672 -0.2510
 5439TIP3    H140512   0.525   0.201   4.631  1.2470 -0.6596  0.0894
 5439TIP3    H240513   0.627   0.285   4.705  0.8808  0.3530 -0.5319
 5440TIP3   OH240514   3.475   1.003   4.229 -0.0901 -0.1702 -0.1607
 5440TIP3    H140515   3.535   0.928   4.226 -0.4711 -0.4658 -0.7014
 5440TIP3    H240516   3.434   1.004   4.142  1.4084  1.9190 -0.9239
 5441TIP3   OH240517   0.734   0.160   4.323 -0.2672 -0.2361  0.3199
 5441TIP3    H140518   0.824   0.151   4.355 -0.6255  0.0188  1.4526
 5441TIP3    H240519   0.713   0.252   4.338 -0.3934 -0.0567 -0.8698
 5442TIP3   OH240520   6.163   1.650   4.775  0.0205 -0.5364 -0.0083
 5442TIP3    H140521   6.153   1.555   4.763  1.0366 -0.6061 -0.3770
 5442TIP3    H240522   6.116   1.668   4.856 -0.3231 -1.3288 -0.0148
 5443TIP3   OH240523   2.357   5.584   3.181  0.0156  0.1439 -0.2257
 5443TIP3    H140524   2.314   5.502   3.154 -0.1000 -1.2531  3.6580
 5443TIP3    H240525   2.444   5.557   3.209 -1.0501  0.5758  4.1810
 5444TIP3   OH240526   3.089   3.109   4.477  0.2480  0.2046  0.1693
 5444TIP3    H140527   3.129   3.196   4.479 -0.6509  0.6551 -0.3175
 5444TIP3    H240528   3.108   3.076   4.389  1.6309 -0.6180  0.7636
 5445TIP3   OH240529   3.388   1.969   2.999  0.1831 -0.2044 -0.1098
 5445TIP3    H140530   3.390   1.882   2.959 -0.1419 -0.8891  1.3214
 5445TIP3    H240531   3.356   2.026   2.929 -0.2489 -1.3297 -0.8686
 5446TIP3   OH240532   5.589   7.462   3.509  0.0349 -0.1813  0.8610
 5446TIP3    H140533   5.594   7.462   3.604 -0.4037 -2.1507  0.9104
 5446TIP3    H240534   5.559   7.374   3.485 -1.2221  0.6734 -1.0272
 5447TIP3   OH240535   4.016   6.762   2.199 -0.6668 -0.1201  0.0845
 5447TIP3    H140536   4.001   6.853   2.173 -1.9999 -0.5347 -0.6957
 5447TIP3    H240537   3.956   6.712   2.144  0.7954 -1.5779 -0.2415
 5448TIP3   OH240538   3.579   6.842   4.720  0.3733 -0.3519  0.4454
 5448TIP3    H140539   3.562   6.797   4.802  0.2223  2.7595  2.2721
 5448TIP3    H240540   3.502   6.898   4.706  0.6250 -0.4325 -1.5611
 5449TIP3   OH240541   7.466   6.118   3.298  0.0962 -0.0292  0.7226
 5449TIP3    H140542   7.438   6.172   3.372 -1.0271  0.7346 -0.2238
 5449TIP3    H240543   7.444   6.028   3.324 -0.2996  0.2368  1.3107
 5450TIP3   OH240544   1.740   5.990   3.801 -0.4663  0.2300 -0.0209
 5450TIP3    H140545   1.734   6.037   3.885 -0.2336 -0.1981  0.2355
 5450TIP3    H240546   1.659   6.014   3.755 -0.6734  0.3383  0.3941
 5451TIP3   OH240547   7.434   2.043   2.774  0.2296 -0.5230  0.5231
 5451TIP3    H140548   7.407   2.135   2.779 -1.6525 -1.0113  0.0297
 5451TIP3    H240549   7.525   2.047   2.743 -0.2674  1.1151 -0.8913
 5452TIP3   OH240550   4.562   4.629   3.200  0.8605 -0.1250 -0.7616
 5452TIP3    H140551   4.552   4.636   3.105  0.2406  0.0717 -0.6857
 5452TIP3    H240552   4.522   4.545   3.223 -1.6705  1.0822 -0.3415
 5453TIP3   OH240553   5.825   6.440   2.539  0.6488  0.0900  0.1008
 5453TIP3    H140554   5.818   6.469   2.448 -0.0311  0.1125  0.1575
 5453TIP3    H240555   5.825   6.521   2.590 -0.3461  0.0444  0.2006
 5454TIP3   OH240556   0.445   1.237   3.600 -0.5681 -0.1537 -0.1111
 5454TIP3    H140557   0.401   1.189   3.670 -0.4894 -0.7706 -0.4699
 5454TIP3    H240558   0.519   1.181   3.576 -1.2902 -0.5723 -1.5131
 5455TIP3   OH240559   3.616   5.523   2.252 -0.6046  0.7598  0.0667
 5455TIP3    H140560   3.560   5.503   2.327 -1.4177  1.1255 -0.4219
 5455TIP3    H240561   3.592   5.613   2.228  0.1265  0.8895 -0.2221
 5456TIP3   OH240562   3.501   6.819   2.255 -0.0884  0.2950 -0.7299
 5456TIP3    H140563   3.575   6.877   2.267  0.9401 -0.6293 -2.2667
 5456TIP3    H240564   3.505   6.759   2.330  1.9114 -0.9425 -1.7385
 5457TIP3   OH240565   3.248   4.416   3.304 -0.0947  0.6696 -0.2087
 5457TIP3    H140566   3.300   4.455   3.233 -0.3991 -0.5272 -1.1100
 5457TIP3    H240567   3.243   4.323   3.282 -1.5402  0.5494  0.5428
 5458TIP3   OH240568   5.355   5.412   2.919  0.2718 -0.1122  0.4785
 5458TIP3    H140569   5.342   5.487   2.978  1.6625 -0.8075  1.7322
 5458TIP3    H240570   5.433   5.368   2.953  0.9784 -0.7176 -1.7339
 5459TIP3   OH240571   5.006   5.557   2.469  0.6473 -0.2663 -0.3944
 5459TIP3    H140572   4.939   5.624   2.455 -1.4688 -2.0094  0.7609
 5459TIP3    H240573   5.018   5.517   2.383 -0.8159 -0.7836 -0.3822
 5460TIP3   OH240574   5.894   0.709   4.113  0.1682 -0.2400 -0.0846
 5460TIP3    H140575   5.965   0.740   4.169 -0.1051 -2.4967  1.6487
 5460TIP3    H240576   5.815   0.720   4.166 -0.2658 -1.2568 -0.4932
 5461TIP3   OH240577   2.094   3.694   3.519  0.1569 -0.1334 -0.5595
 5461TIP3    H140578   2.087   3.789   3.526 -1.5164 -0.2197 -0.8233
 5461TIP3    H240579   2.005   3.662   3.531  0.7194 -1.6837 -0.3552
 5462TIP3   OH240580   4.227   4.702   3.063  0.6828 -0.1286  0.4456
 5462TIP3    H140581   4.307   4.693   3.012 -0.0439 -0.6857 -0.6218
 5462TIP3    H240582   4.234   4.635   3.131  1.2152 -0.0319  0.4906
 5463TIP3   OH240583   5.676   3.591   2.524  0.4680  0.3069 -0.4814
 5463TIP3    H140584   5.713   3.674   2.554  0.4285 -0.5691  2.1671
 5463TIP3    H240585   5.745   3.551   2.472  0.8124  1.5645 -1.0374
 5464TIP3   OH240586   4.220   3.763   2.938  0.2936  0.4332  0.0712
 5464TIP3    H140587   4.240   3.758   3.032 -0.4864 -0.3975  0.2057
 5464TIP3    H240588   4.298   3.728   2.895  0.7364  1.0128  0.4036
 5465TIP3   OH240589   4.581   7.012   4.271 -0.5445  0.0548  0.4426
 5465TIP3    H140590   4.528   6.942   4.233 -0.1696 -0.5717  1.0425
 5465TIP3    H240591   4.550   7.092   4.229  0.9105 -0.7240 -2.3822
 5466TIP3   OH240592   1.135   4.373   2.449 -0.2419 -0.6524 -0.1836
 5466TIP3    H140593   1.065   4.313   2.424 -0.7324  0.3518 -1.2890
 5466TIP3    H240594   1.176   4.398   2.367  1.4329 -1.2091  0.4434
 5467TIP3   OH240595   5.554   6.563   3.177 -0.0956  0.3522  0.5206
 5467TIP3    H140596   5.514   6.483   3.143 -1.2682  0.7286  0.9715
 5467TIP3    H240597   5.587   6.608   3.100 -1.6181  0.6017 -0.0120
 5468TIP3   OH240598   1.563   3.506   4.014 -0.5250 -0.9674 -0.1496
 5468TIP3    H140599   1.604   3.484   4.098 -0.1590 -0.6386 -0.2392
 5468TIP3    H240600   1.629   3.484   3.948 -1.0218 -1.7561 -0.3975
 5469TIP3   OH240601   6.706   7.228   3.349  0.4129  0.0068  0.0878
 5469TIP3    H140602   6.778   7.284   3.377 -0.5785  1.1164  0.5039
 5469TIP3    H240603   6.671   7.270   3.270  0.8462 -1.0835 -0.7136
 5470TIP3   OH240604   7.361   1.632   4.293  0.2163  0.3033  0.0605
 5470TIP3    H140605   7.364   1.565   4.225  1.2363 -0.8902  1.2280
 5470TIP3    H240606   7.421   1.700   4.262  0.2842  0.0114 -0.4625
 5471TIP3   OH240607   7.573   3.584   3.989 -0.0136 -0.1885  0.0617
 5471TIP3    H140608   7.555   3.540   3.906 -2.0797  0.9861 -0.1838
 5471TIP3    H240609   7.669   3.583   3.997  0.1503 -1.6381 -1.5749
 5472TIP3   OH240610   1.789   4.723   2.515  0.2111  0.6841 -0.0673
 5472TIP3    H140611   1.816   4.666   2.587 -1.7625  0.6827  0.7358
 5472TIP3    H240612   1.704   4.758   2.543 -0.1579  1.4408 -1.9881
 5473TIP3   OH240613   1.206   3.137   3.276 -0.5387 -0.1621  0.1067
 5473TIP3    H140614   1.138   3.198   3.305 -0.9420 -0.3640 -0.3871
 5473TIP3    H240615   1.171   3.099   3.195 -0.0408 -0.6227  0.1002
 5474TIP3   OH240616   4.751   2.368   2.238 -0.4291 -0.3525  0.3316
 5474TIP3    H140617   4.667   2.342   2.200  0.3029 -0.3630 -1.3848
 5474TIP3    H240618   4.773   2.299   2.300 -1.2873 -0.7695  0.1795
 5475TIP3   OH240619   2.820   5.766   3.164 -0.0843 -0.2342  0.3114
 5475TIP3    H140620   2.905   5.738   3.198  0.2965 -0.6383 -0.8959
 5475TIP3    H240621   2.824   5.744   3.071 -1.5410 -0.3200  0.2515
 5476TIP3   OH240622   5.359   0.778   2.937 -0.1518  0.2721 -0.4478
 5476TIP3    H140623   5.441   0.730   2.951  0.1203  1.3978  2.8889
 5476TIP3    H240624   5.387   0.869   2.924 -0.8115  0.6416  0.5767
 5477TIP3   OH240625   3.428   5.467   2.975 -0.4743  0.0384 -0.1041
 5477TIP3    H140626   3.336   5.441   2.968 -0.2069 -0.4644 -2.3466
 5477TIP3    H240627   3.426   5.562   2.975 -0.9406  0.0365 -1.3494
 5478TIP3   OH240628   0.015   5.601   4.271  0.5541  0.0969  0.0934
 5478TIP3    H140629   0.051   5.513   4.271  1.4097  0.4392  0.3064
 5478TIP3    H240630   0.082   5.655   4.315 -0.3878  0.6709  0.8862
 5479TIP3   OH240631   3.521   5.743   2.141  0.1221 -0.3388 -0.0716
 5479TIP3    H140632   3.527   5.734   2.046  0.5027  0.3380 -0.1221
 5479TIP3    H240633   3.443   5.797   2.155  1.6039  1.9810 -0.1946
 5480TIP3   OH240634   5.213   2.204   4.543  0.1520 -0.1929  0.6486
 5480TIP3    H140635   5.185   2.295   4.555  0.2196  0.2737 -1.9627
 5480TIP3    H240636   5.306   2.212   4.520 -0.0959 -0.7836 -0.6519
 5481TIP3   OH240637   2.381   4.108   3.301  0.0308  0.1824  0.2229
 5481TIP3    H140638   2.384   4.198   3.268 -1.5526  0.3529  0.4777
 5481TIP3    H240639   2.324   4.062   3.240  0.9555 -0.6997  0.0091
 5482TIP3   OH240640   4.491   5.910   3.019 -0.3413  1.0625  0.0137
 5482TIP3    H140641   4.487   6.006   3.024 -1.6441  1.0223 -0.0360
 5482TIP3    H240642   4.431   5.887   2.948  1.0091  0.2715 -0.9298
 5483TIP3   OH240643   2.328   3.303   2.362  1.0782 -0.1427  0.0212
 5483TIP3    H140644   2.410   3.349   2.381 -1.7320  4.9861  1.9336
 5483TIP3    H240645   2.318   3.311   2.267  2.9308 -1.3468 -0.3238
 5484TIP3   OH240646   2.746   3.045   3.835  0.3127 -0.4710 -0.5679
 5484TIP3    H140647   2.716   3.135   3.845  0.4347 -0.6426  1.8510
 5484TIP3    H240648   2.820   3.038   3.895  2.0049 -1.4975 -2.6381
 5485TIP3   OH240649   1.858   2.719   2.502 -0.5630 -0.1197  0.0956
 5485TIP3    H140650   1.832   2.746   2.590 -0.2105  0.7807 -0.0648
 5485TIP3    H240651   1.951   2.700   2.510  0.1281  2.5411 -0.6177
 5486TIP3   OH240652   2.290   3.174   4.271 -0.4090 -0.4218  0.3045
 5486TIP3    H140653   2.257   3.088   4.298 -0.5437 -1.0575 -1.7227
 5486TIP3    H240654   2.234   3.237   4.316 -0.9274 -1.4116  1.0772
 5487TIP3   OH240655   5.214   2.530   2.206  0.1651  0.7571 -1.0430
 5487TIP3    H140656   5.185   2.607   2.156 -1.5688  0.9390  0.1784
 5487TIP3    H240657   5.160   2.458   2.174 -1.4519  1.0098  0.9555
 5488TIP3   OH240658   5.217   5.569   3.676  0.7870 -0.3831  0.0045
 5488TIP3    H140659   5.147   5.585   3.739  0.5506 -0.2680 -0.2933
 5488TIP3    H240660   5.297   5.585   3.726  0.5996 -0.2717  0.2714
 5489TIP3   OH240661   1.496   6.145   3.779 -0.3186  0.2955  0.1340
 5489TIP3    H140662   1.504   6.194   3.698  0.0241  0.3087  0.1754
 5489TIP3    H240663   1.424   6.084   3.763  0.5884 -0.6096 -0.6500
 5490TIP3   OH240664   0.744   3.803   4.447  0.6303  0.1877  0.3070
 5490TIP3    H140665   0.809   3.756   4.500 -0.8753 -1.0766  1.1297
 5490TIP3    H240666   0.707   3.867   4.507  1.0105  0.8165 -0.1215
 5491TIP3   OH240667   3.581   3.970   3.416 -0.1834 -0.0886  0.2436
 5491TIP3    H140668   3.635   3.961   3.495  0.5583  1.5402 -0.0495
 5491TIP3    H240669   3.556   4.062   3.415 -0.9500 -0.2967 -0.9475
 5492TIP3   OH240670   1.539   5.520   2.752  0.8922 -0.8850  0.6960
 5492TIP3    H140671   1.463   5.565   2.788  0.2382  0.5614 -2.1344
 5492TIP3    H240672   1.613   5.575   2.778  0.2092  1.4590 -1.7585
 5493TIP3   OH240673   6.793   0.664   3.662  0.4027  0.1131 -0.6095
 5493TIP3    H140674   6.865   0.646   3.722  0.6807 -0.2799 -1.0592
 5493TIP3    H240675   6.716   0.625   3.704  0.7203 -0.7872 -0.8275
 5494TIP3   OH240676   0.492   6.685   3.743 -0.1694 -0.3103 -0.3152
 5494TIP3    H140677   0.471   6.759   3.685 -0.3238 -2.6084 -3.4333
 5494TIP3    H240678   0.574   6.711   3.785 -1.5755  2.7226  0.8745
 5495TIP3   OH240679   1.453   4.665   3.675 -0.0895  0.0187 -0.0738
 5495TIP3    H140680   1.483   4.728   3.611  1.9458  0.2635  1.0265
 5495TIP3    H240681   1.504   4.684   3.754 -0.4311 -2.0613  0.7366
 5496TIP3   OH240682   3.936   2.315   3.972  0.2742 -0.0776 -0.2210
 5496TIP3    H140683   3.863   2.269   4.015  2.1042 -2.7071  0.3183
 5496TIP3    H240684   3.918   2.305   3.878  0.7113 -2.2680 -0.1361
 5497TIP3   OH240685   4.324   7.370   4.450  0.0657 -0.1525 -0.0243
 5497TIP3    H140686   4.294   7.377   4.541 -0.3782 -0.1239 -0.1727
 5497TIP3    H240687   4.387   7.442   4.441 -1.0321  0.8177 -0.1832
 5498TIP3   OH240688   4.551   6.962   2.547 -0.1636 -0.3196  0.2548
 5498TIP3    H140689   4.579   6.907   2.621 -0.0649 -1.6243 -0.7109
 5498TIP3    H240690   4.519   6.899   2.482  1.6804  0.6108 -1.6515
 5499TIP3   OH240691   0.239   5.569   2.834  1.1864  0.0626  0.1759
 5499TIP3    H140692   0.330   5.552   2.859  1.1559 -2.9533 -1.2512
 5499TIP3    H240693   0.236   5.548   2.741 -1.0301 -0.3578  0.2906
 5500TIP3   OH240694   6.613   4.151   3.272  0.7291 -0.5716  1.0961
 5500TIP3    H140695   6.617   4.158   3.176  0.9081  1.3207  1.1942
 5500TIP3    H240696   6.534   4.100   3.289  1.0939 -1.5673 -0.0645
 5501TIP3   OH240697   1.475   0.165   3.650 -0.5127  0.3168 -0.6492
 5501TIP3    H140698   1.545   0.104   3.627 -0.3269  0.7393 -1.2330
 5501TIP3    H240699   1.413   0.112   3.700  0.1626 -0.0893 -0.2124
 5502TIP3   OH240700   0.401   5.537   3.265 -0.1835  0.2032 -0.5672
 5502TIP3    H140701   0.393   5.477   3.340  0.9419 -2.4146 -2.4054
 5502TIP3    H240702   0.337   5.505   3.202  1.9106 -0.5090 -2.4461
 5503TIP3   OH240703   6.497   3.360   2.501 -0.3006  0.0474  0.1519
 5503TIP3    H140704   6.552   3.299   2.551 -0.4124 -2.1740 -2.2448
 5503TIP3    H240705   6.409   3.322   2.505 -0.6859  0.8722 -0.1967
 5504TIP3   OH240706   3.050   4.589   3.829  0.3436 -0.4062  0.3314
 5504TIP3    H140707   3.056   4.539   3.748  4.1083  2.3492 -1.4087
 5504TIP3    H240708   3.108   4.544   3.890  0.8072 -0.2451  0.0197
 5505TIP3   OH240709   2.237   0.515   4.136  0.3090  0.3695 -0.4910
 5505TIP3    H140710   2.248   0.485   4.226  1.1593 -3.0410 -1.5793
 5505TIP3    H240711   2.312   0.573   4.120 -0.6288  2.2064  1.3197
 5506TIP3   OH240712   1.961   0.191   2.685  0.3554  0.2188  0.0238
 5506TIP3    H140713   1.975   0.225   2.597 -1.0401  0.8432  0.0070
 5506TIP3    H240714   1.952   0.269   2.739 -1.1215 -0.0932  0.2956
 5507TIP3   OH240715   2.166   1.176   3.270 -0.1873  0.2682 -0.7269
 5507TIP3    H140716   2.181   1.199   3.179 -2.2144 -2.2103 -1.8176
 5507TIP3    H240717   2.073   1.151   3.273  0.5450 -2.6859  1.2755
 5508TIP3   OH240718   2.855   7.220   1.912 -0.1941  0.3967  0.1441
 5508TIP3    H140719   2.779   7.204   1.967  0.7919 -0.8633  1.1958
 5508TIP3    H240720   2.885   7.133   1.885  0.6816  0.8796 -0.5072
 5509TIP3   OH240721   6.811   5.514   4.488  0.1064  0.2553  0.5686
 5509TIP3    H140722   6.899   5.504   4.526 -0.3559 -1.9129  1.2264
 5509TIP3    H240723   6.759   5.551   4.559  0.1741  0.1132  0.6954
 5510TIP3   OH240724   6.913   0.771   3.133 -0.5323 -0.7543 -0.0017
 5510TIP3    H140725   6.842   0.809   3.081 -0.9724 -0.2550  0.9546
 5510TIP3    H240726   6.870   0.733   3.210  0.3108  0.3327  1.0362
 5511TIP3   OH240727   2.825   6.884   3.650  0.1872 -0.1116  0.3783
 5511TIP3    H140728   2.886   6.882   3.576  0.2019  1.8606  0.2916
 5511TIP3    H240729   2.739   6.871   3.610  0.2737  0.0953  0.1211
 5512TIP3   OH240730   0.230   5.591   4.040 -0.0986 -0.4577  0.2580
 5512TIP3    H140731   0.308   5.585   3.984  1.1481 -1.1980  1.9622
 5512TIP3    H240732   0.224   5.505   4.081 -1.3967 -0.1691  0.7068
 5513TIP3   OH240733   2.486   2.812   3.764  0.3095  0.7989  0.2202
 5513TIP3    H140734   2.481   2.834   3.857  0.6020 -0.0084  0.4394
 5513TIP3    H240735   2.418   2.865   3.723 -1.5198 -0.6018  1.2602
 5514TIP3   OH240736   1.527   3.642   2.905 -0.1585 -0.4301 -0.1764
 5514TIP3    H140737   1.615   3.608   2.922 -0.5742 -1.5201 -0.1448
 5514TIP3    H240738   1.494   3.588   2.833  0.3056  1.9073 -2.3341
 5515TIP3   OH240739   3.696   5.842   4.042  0.0446 -0.5399  0.1454
 5515TIP3    H140740   3.666   5.927   4.009  0.8464  0.2990  1.4903
 5515TIP3    H240741   3.770   5.819   3.986  1.6272  1.0407  1.5192
 5516TIP3   OH240742   6.352   6.091   2.436  0.0090  0.0902  0.0137
 5516TIP3    H140743   6.431   6.080   2.383 -0.2708  0.1474 -0.4222
 5516TIP3    H240744   6.365   6.175   2.481  0.3427 -0.0623  0.2092
 5517TIP3   OH240745   3.934   0.025  10.143  0.2918 -0.6023 -0.2061
 5517TIP3    H140746   3.884  -0.036  10.089 -1.0436  1.6009 -1.6259
 5517TIP3    H240747   3.990   0.071  10.081  0.6761  0.1884  0.6972
 5518TIP3   OH240748   6.791   5.507   2.940  0.3234 -0.1398  0.0277
 5518TIP3    H140749   6.830   5.445   3.002 -0.5390 -0.1876  0.5322
 5518TIP3    H240750   6.821   5.593   2.969 -1.4764  0.0200  1.6275
 5519TIP3   OH240751   4.056   7.402   4.214 -0.1209 -0.0919  0.2019
 5519TIP3    H140752   3.993   7.473   4.201  0.4752  0.4724  0.3201
 5519TIP3    H240753   4.125   7.419   4.150 -0.8286 -1.6076 -1.0368
 5520TIP3   OH240754   6.159   1.261   2.997  0.1603  0.1110  0.0290
 5520TIP3    H140755   6.240   1.229   3.036  2.2127  0.9167 -3.1757
 5520TIP3    H240756   6.180   1.349   2.966 -1.0057 -0.5983 -3.2043
 5521TIP3   OH240757   3.688   6.593   3.401  0.1081  0.2096 -0.7767
 5521TIP3    H140758   3.649   6.651   3.336  0.2645  1.0985 -0.0904
 5521TIP3    H240759   3.782   6.594   3.380  0.1359  0.3643 -0.6509
 5522TIP3   OH240760   3.638   5.359   1.838 -0.0889 -0.6064 -0.1747
 5522TIP3    H140761   3.623   5.283   1.782 -2.4653 -0.1074 -0.3192
 5522TIP3    H240762   3.637   5.323   1.927  1.2843 -1.0638 -0.3289
 5523TIP3   OH240763   4.364   1.100   2.619 -0.3025  0.0588  0.0477
 5523TIP3    H140764   4.441   1.153   2.641 -0.7024  0.9267 -0.5740
 5523TIP3    H240765   4.397   1.010   2.615  0.9315  0.5419 -1.3406
 5524TIP3   OH240766   6.746   7.287   2.412  0.3353 -0.5126 -0.1041
 5524TIP3    H140767   6.735   7.267   2.319  0.9347 -0.9795 -0.0818
 5524TIP3    H240768   6.782   7.206   2.449  2.0122  0.3217  0.1574
 5525TIP3   OH240769   6.859   0.326   3.701  0.4028  0.3103  0.4054
 5525TIP3    H140770   6.945   0.292   3.673  0.2420 -0.3158  0.6762
 5525TIP3    H240771   6.816   0.351   3.619  0.3121 -0.6389  0.1591
 5526TIP3   OH240772   0.293   1.183   3.144 -0.2264  0.2389  1.2261
 5526TIP3    H140773   0.268   1.194   3.236 -1.4683  0.6201  0.8677
 5526TIP3    H240774   0.385   1.158   3.147  0.2405  1.9203  2.5041
 5527TIP3   OH240775   6.499   5.493   4.023 -0.0345  0.4413 -0.5320
 5527TIP3    H140776   6.490   5.518   3.932 -0.9227  0.0458 -0.5700
 5527TIP3    H240777   6.426   5.537   4.067  0.2422  0.4339 -0.0570
 5528TIP3   OH240778   4.563   5.172   3.745  0.5199 -0.1427 -0.4345
 5528TIP3    H140779   4.575   5.211   3.832  1.4982 -0.0728 -0.5936
 5528TIP3    H240780   4.470   5.184   3.726 -0.1379 -1.8883  1.4048
 5529TIP3   OH240781   3.762   2.962  10.979  0.1982  0.4341 -0.2209
 5529TIP3    H140782   3.808   2.997  11.055  1.6357  0.2914 -0.9771
 5529TIP3    H240783   3.832   2.929  10.922 -0.6507  2.1739 -2.4385
 5530TIP3   OH240784   6.904   4.926   4.567 -0.1009  0.0142  0.9271
 5530TIP3    H140785   6.954   4.848   4.543 -0.4955  0.1924 -0.5894
 5530TIP3    H240786   6.932   4.946   4.656  2.0930 -0.2344  0.3511
 5531TIP3   OH240787   0.999   4.543   4.494 -0.3041 -0.1788  0.0547
 5531TIP3    H140788   1.020   4.572   4.406  1.1886  3.5902  1.4383
 5531TIP3    H240789   0.905   4.525   4.492 -0.4655  0.6779 -2.0920
 5532TIP3   OH240790   1.291   1.504   2.756  0.4607 -0.6297  0.3211
 5532TIP3    H140791   1.242   1.426   2.728 -2.7173  0.6395  1.7915
 5532TIP3    H240792   1.315   1.548   2.675 -0.8188 -1.3766 -0.5001
 5533TIP3   OH240793   0.055   0.598   2.836 -0.0849  0.2504  0.7586
 5533TIP3    H140794   0.000   0.671   2.865 -0.1467  1.1785 -1.5440
 5533TIP3    H240795  -0.007   0.534   2.800  0.2005  0.5209 -0.2285
 5534TIP3   OH240796   3.287   4.228   2.529 -0.2505 -0.8573  0.1021
 5534TIP3    H140797   3.347   4.189   2.466  0.7576  0.0085  0.4983
 5534TIP3    H240798   3.203   4.185   2.512 -0.6941  0.9900 -3.5229
 5535TIP3   OH240799   1.148   5.543   2.564  0.2712  0.0511  0.5854
 5535TIP3    H140800   1.152   5.464   2.618 -1.3759 -1.5014 -1.4369
 5535TIP3    H240801   1.196   5.520   2.485 -1.9942  0.2533 -0.9199
 5536TIP3   OH240802   6.740   2.671   3.985 -0.0299  0.4804  0.0605
 5536TIP3    H140803   6.802   2.599   3.997 -0.6947 -0.1077  0.0131
 5536TIP3    H240804   6.691   2.649   3.906  1.4856  2.2721 -1.4868
 5537TIP3   OH240805   2.744   3.957   4.627  0.4092  0.8544  0.0817
 5537TIP3    H140806   2.796   3.893   4.677 -0.2104 -0.5033 -0.9627
 5537TIP3    H240807   2.657   3.953   4.667 -0.4360 -1.1373 -1.7702
 5538TIP3   OH240808   0.907   6.242   5.041  0.0155 -0.0826 -0.0805
 5538TIP3    H140809   0.913   6.317   5.100 -0.4035 -0.8293  0.9371
 5538TIP3    H240810   0.823   6.252   4.997  1.4415  1.9459 -2.6752
 5539TIP3   OH240811   6.544   7.673   2.795 -0.0436  0.1804 -0.4818
 5539TIP3    H140812   6.605   7.722   2.741 -0.2838 -0.3595 -1.2722
 5539TIP3    H240813   6.549   7.583   2.761  0.9860 -0.5516  1.4526
 5540TIP3   OH240814   2.493   1.079   4.893  0.2485 -0.7910  0.7279
 5540TIP3    H140815   2.514   1.132   4.970  1.0211 -0.4954  0.3286
 5540TIP3    H240816   2.415   1.120   4.856  0.4685 -0.3162  0.7855
 5541TIP3   OH240817   4.188   6.112   3.404  0.3943  0.2776  0.1948
 5541TIP3    H140818   4.163   6.061   3.481 -0.8737 -0.1364 -0.4635
 5541TIP3    H240819   4.189   6.203   3.434 -0.9852  0.2130  0.5109
 5542TIP3   OH240820   2.626   3.914   4.963 -0.0664 -0.0634 -0.0112
 5542TIP3    H140821   2.600   4.006   4.974  0.7270  0.0542  1.1003
 5542TIP3    H240822   2.545   3.868   4.943 -0.4816  0.8745 -0.5438
 5543TIP3   OH240823   6.513   5.785   4.176 -0.4177  0.0569  0.0980
 5543TIP3    H140824   6.431   5.737   4.167  0.2170 -0.9946 -0.2380
 5543TIP3    H240825   6.520   5.836   4.095 -0.6170 -0.0331  0.0234
 5544TIP3   OH240826   1.853   2.994   5.095 -0.1016  0.1929  0.1741
 5544TIP3    H140827   1.913   2.951   5.033 -0.2646  0.4679 -0.1745
 5544TIP3    H240828   1.809   2.921   5.140 -0.9133 -0.0252 -0.9297
 5545TIP3   OH240829   6.346   3.831   3.318 -0.2954 -0.3752 -0.1331
 5545TIP3    H140830   6.396   3.886   3.379  0.7964 -0.7456 -0.6736
 5545TIP3    H240831   6.355   3.875   3.234 -3.4486  1.2509  0.2046
 5546TIP3   OH240832   3.849   5.698   2.156  0.4913  0.2269 -0.6098
 5546TIP3    H140833   3.774   5.660   2.201  1.2512  0.9048  1.3602
 5546TIP3    H240834   3.828   5.690   2.063 -1.5380 -0.5225 -0.1452
 5547TIP3   OH240835   5.679   1.190   3.227  0.5433  0.4472  0.1895
 5547TIP3    H140836   5.636   1.241   3.295 -0.5494 -0.0524 -0.1031
 5547TIP3    H240837   5.770   1.219   3.229  0.3916  0.8948  1.4292
 5548TIP3   OH240838   1.511   6.083   4.744  0.2569 -0.1262 -0.5807
 5548TIP3    H140839   1.503   6.009   4.804 -0.0356 -0.1608 -0.6613
 5548TIP3    H240840   1.421   6.101   4.715  0.4330 -0.3542 -1.3028
 5549TIP3   OH240841   4.585   3.827   2.472 -0.2130  0.0068 -0.1304
 5549TIP3    H140842   4.651   3.760   2.491 -0.2770  0.4137  1.6931
 5549TIP3    H240843   4.503   3.778   2.464  0.0241 -0.3163 -0.6267
 5550TIP3   OH240844   2.971   2.187   3.264  0.3437  0.0052 -0.0441
 5550TIP3    H140845   3.029   2.170   3.190 -0.3789  3.4999 -1.5874
 5550TIP3    H240846   2.887   2.209   3.224 -0.3118  1.1581  1.8390
 5551TIP3   OH240847   0.629   2.018   3.162 -0.1900  0.2757  0.0221
 5551TIP3    H140848   0.665   2.094   3.207  0.7078  0.0607 -0.3204
 5551TIP3    H240849   0.578   1.972   3.229  2.9807 -1.3127  1.5312
 5552TIP3   OH240850   5.451   3.660   2.661  0.0456 -0.6482  0.5942
 5552TIP3    H140851   5.511   3.615   2.602  1.7621  0.3547  1.4904
 5552TIP3    H240852   5.463   3.753   2.640 -0.2683 -0.3576  1.6547
 5553TIP3   OH240853   0.136   1.857   2.374  0.5757 -0.0434 -0.3274
 5553TIP3    H140854   0.098   1.790   2.318  0.3242  1.8365 -2.5848
 5553TIP3    H240855   0.110   1.832   2.463 -2.1137 -1.2664 -1.3476
 5554TIP3   OH240856   3.051   4.610   3.096  0.2052 -0.2877 -0.1553
 5554TIP3    H140857   3.083   4.645   3.180 -1.2551 -0.2830  0.4268
 5554TIP3    H240858   3.055   4.515   3.107  1.8536 -0.3403 -0.8375
 5555TIP3   OH240859   4.024   2.963   2.910  0.0850  0.3629 -0.0886
 5555TIP3    H140860   4.001   2.924   2.826  0.0994  0.8726 -0.3287
 5555TIP3    H240861   3.950   2.942   2.967  0.2749 -0.3685 -0.0979
 5556TIP3   OH240862   3.012   1.494   2.184  0.0075  0.0929  0.3966
 5556TIP3    H140863   3.024   1.542   2.101  2.2999  0.0534  0.6336
 5556TIP3    H240864   3.061   1.545   2.248  0.4351 -1.2611  1.1850
 5557TIP3   OH240865   4.705   6.759   3.618 -0.9880 -0.3993  0.1315
 5557TIP3    H140866   4.789   6.754   3.573 -0.6601 -1.5426  0.8391
 5557TIP3    H240867   4.640   6.746   3.548 -0.4678 -2.6596  0.0002
 5558TIP3   OH240868   5.675   7.656   3.341 -0.0647  0.0939  0.6423
 5558TIP3    H140869   5.588   7.695   3.331  0.1387  0.7326  1.2988
 5558TIP3    H240870   5.673   7.616   3.428 -0.2891 -1.4573 -0.0287
 5559TIP3   OH240871   0.524   1.323   3.330  0.0628 -0.2142  1.0896
 5559TIP3    H140872   0.476   1.281   3.401 -0.5215 -2.4048 -0.4876
 5559TIP3    H240873   0.601   1.267   3.316  0.0610  0.0604 -0.1224
 5560TIP3   OH240874   0.240   1.290   2.889 -0.2698  0.5126  0.2826
 5560TIP3    H140875   0.177   1.361   2.897 -0.5131  0.2865  0.3987
 5560TIP3    H240876   0.258   1.264   2.979  0.2327  0.7877  0.2624
 5561TIP3   OH240877   3.426   2.714   3.331 -0.0182  0.4514 -0.7865
 5561TIP3    H140878   3.492   2.650   3.305  0.7973  1.0634 -0.2959
 5561TIP3    H240879   3.459   2.749   3.414 -1.9087 -0.5860  0.4746
 5562TIP3   OH240880   1.546   3.789   3.765  0.0687  0.2633 -0.1309
 5562TIP3    H140881   1.628   3.826   3.799  0.7378 -0.1355 -1.2363
 5562TIP3    H240882   1.521   3.850   3.695 -0.9108  0.7045  0.5891
 5563TIP3   OH240883   0.482   4.150   4.871 -0.3968 -0.8307  0.2881
 5563TIP3    H140884   0.390   4.125   4.874 -0.5227 -0.3401  0.5621
 5563TIP3    H240885   0.481   4.242   4.845 -0.0563 -0.4094  1.6945
 5564TIP3   OH240886   6.070   0.094   3.527  0.5582 -0.0192  0.8487
 5564TIP3    H140887   6.053   0.120   3.437 -1.6085 -0.1849  1.1516
 5564TIP3    H240888   6.162   0.116   3.542  1.0292 -0.2082 -1.4513
 5565TIP3   OH240889   4.225   5.040   2.675 -0.1034 -0.1207  0.4232
 5565TIP3    H140890   4.298   5.067   2.620 -0.6075 -0.2519 -0.3406
 5565TIP3    H240891   4.203   5.117   2.726 -0.8183  0.6090 -0.9306
 5566TIP3   OH240892   1.762   6.408   3.765  0.4019 -0.3507  0.1806
 5566TIP3    H140893   1.771   6.497   3.800 -1.1116 -0.4314  0.8433
 5566TIP3    H240894   1.679   6.409   3.718  0.5208 -1.3374 -0.0656
 5567TIP3   OH240895   3.459   5.151   4.066 -0.2115  0.5192 -0.3134
 5567TIP3    H140896   3.367   5.125   4.064 -0.1061  0.2117 -1.5421
 5567TIP3    H240897   3.504   5.078   4.109 -0.4514  0.3851 -0.2889
 5568TIP3   OH240898   5.816   3.829   2.623  0.2440 -0.3676  0.5379
 5568TIP3    H140899   5.804   3.923   2.607  0.1309 -0.2466  1.2936
 5568TIP3    H240900   5.882   3.825   2.692 -0.0095 -0.8298  0.7550
 5569TIP3   OH240901   1.741   1.942   2.950 -0.1910 -0.0041 -0.0975
 5569TIP3    H140902   1.700   1.856   2.948 -0.1247 -0.0319 -0.7868
 5569TIP3    H240903   1.693   1.990   3.017  0.5873 -0.9589  1.1941
 5570TIP3   OH240904   6.965   1.948   4.777 -0.4837 -0.3466 -0.1871
 5570TIP3    H140905   6.884   1.985   4.743 -0.1707  0.2573 -0.2790
 5570TIP3    H240906   6.999   2.015   4.835  0.6024 -0.0617 -1.1278
 5571TIP3   OH240907   5.826   5.212   3.503 -0.0836 -0.0780  0.8233
 5571TIP3    H140908   5.918   5.213   3.480 -0.5477 -0.1067 -1.1806
 5571TIP3    H240909   5.820   5.270   3.580  1.2807  1.7886 -0.3910
 5572TIP3   OH240910   0.414   3.185   2.723 -0.7362  0.1649 -0.5897
 5572TIP3    H140911   0.398   3.236   2.802 -0.2576 -0.5041 -0.0453
 5572TIP3    H240912   0.357   3.108   2.732 -0.6919  0.0917 -0.9070
 5573TIP3   OH240913   1.585   6.575   4.228  0.3666  0.4145 -0.0768
 5573TIP3    H140914   1.516   6.518   4.196  0.3666 -0.0804  0.7719
 5573TIP3    H240915   1.540   6.655   4.254 -0.0333 -0.2177  1.2662
 5574TIP3   OH240916   0.129   3.856   3.996  0.5365 -0.0919 -0.4006
 5574TIP3    H140917   0.112   3.866   3.902 -2.8492 -1.0726 -0.0258
 5574TIP3    H240918   0.128   3.762   4.011 -1.6053  0.0636  0.9132
 5575TIP3   OH240919   7.011   4.997   4.810 -0.1257  0.0859  0.1918
 5575TIP3    H140920   7.028   5.029   4.899  0.5337  1.3304 -0.3621
 5575TIP3    H240921   7.090   5.020   4.761  0.8503 -3.2983 -0.0702
 5576TIP3   OH240922   2.935   5.654   1.978 -0.2545  0.7020 -0.3821
 5576TIP3    H140923   2.846   5.678   2.004 -1.0062 -1.5515 -0.6024
 5576TIP3    H240924   2.967   5.601   2.051  0.8616  1.3435 -0.3904
 5577TIP3   OH240925   2.081   4.896   1.968  0.3863  0.1834 -0.0907
 5577TIP3    H140926   2.153   4.861   2.020  0.8899  0.0618 -0.8521
 5577TIP3    H240927   2.124   4.941   1.895 -0.2070  2.8601  1.1038
 5578TIP3   OH240928   0.505   4.613   2.168 -0.1910  0.1169 -0.0150
 5578TIP3    H140929   0.455   4.531   2.174 -1.0325  0.4182 -1.9800
 5578TIP3    H240930   0.440   4.682   2.181 -0.3665  0.5180 -2.5538
 5579TIP3   OH240931   3.189   5.714   3.973  0.2824 -0.1951  0.5475
 5579TIP3    H140932   3.182   5.781   4.041  0.2810  1.7847 -1.2941
 5579TIP3    H240933   3.279   5.722   3.941 -0.0167 -0.4083 -0.3605
 5580TIP3   OH240934   6.830   0.321   3.153  0.0401 -0.1187 -0.1940
 5580TIP3    H140935   6.752   0.300   3.102 -0.5167  2.4122 -0.5141
 5580TIP3    H240936   6.857   0.407   3.121 -0.9489  2.1806  4.3144
 5581TIP3   OH240937   3.751   2.733   4.302 -0.1574  0.0695  1.0708
 5581TIP3    H140938   3.796   2.692   4.376  1.3082  1.9730  1.3352
 5581TIP3    H240939   3.714   2.660   4.252  0.9202 -1.4207  2.3603
 5582TIP3   OH240940   3.322   2.695   2.395  0.1051 -0.1303  0.6424
 5582TIP3    H140941   3.406   2.740   2.406 -0.3157  0.7515  0.2865
 5582TIP3    H240942   3.264   2.737   2.458 -0.3746  0.0365  0.0909
 5583TIP3   OH240943   2.222   2.949   2.313  0.0481 -0.2021  0.0209
 5583TIP3    H140944   2.269   2.869   2.334  0.4771  0.0065 -0.1415
 5583TIP3    H240945   2.247   2.969   2.223 -1.5354 -0.9215 -0.6124
 5584TIP3   OH240946   4.405   6.801   4.345 -0.1627  0.1383  0.3602
 5584TIP3    H140947   4.468   6.730   4.360  2.6321  2.2561 -0.5489
 5584TIP3    H240948   4.406   6.853   4.425  0.1123  0.7957 -0.0590
 5585TIP3   OH240949   4.543   0.222   4.448 -0.0915  0.2488  0.4787
 5585TIP3    H140950   4.616   0.205   4.388  0.3835  2.8831  0.1569
 5585TIP3    H240951   4.518   0.136   4.481  1.8391 -0.9445 -0.9337
 5586TIP3   OH240952   1.397   2.999   4.856  0.0632  0.2042 -0.3188
 5586TIP3    H140953   1.325   2.966   4.803  0.0444 -1.2388  0.5404
 5586TIP3    H240954   1.354   3.048   4.926  0.0320  1.0949 -0.9504
 5587TIP3   OH240955   3.580   2.134   3.104 -0.6743 -0.0317  0.2809
 5587TIP3    H140956   3.640   2.086   3.160 -0.7651 -0.2588  0.1862
 5587TIP3    H240957   3.527   2.066   3.062 -2.2544  0.2478  1.7560
 5588TIP3   OH240958   1.355   3.446   3.837 -0.0177 -0.0132  0.0234
 5588TIP3    H140959   1.271   3.404   3.855  0.0570 -0.3300 -0.3534
 5588TIP3    H240960   1.416   3.404   3.898 -0.0006 -0.2537 -0.1588
 5589TIP3   OH240961   4.006   7.216   4.456 -0.5574  0.1901 -0.4265
 5589TIP3    H140962   3.990   7.188   4.546  1.1587  0.1821 -0.1037
 5589TIP3    H240963   3.918   7.225   4.418 -1.2965 -3.2124  0.1742
 5590TIP3   OH240964   2.606   1.268   5.090 -0.3022  0.0333 -0.5342
 5590TIP3    H140965   2.678   1.322   5.058 -1.7421  1.4667 -1.5183
 5590TIP3    H240966   2.533   1.329   5.101 -1.4670 -1.4105  0.1690
 5591TIP3   OH240967   2.741   3.211   2.663  0.1646  0.3736 -0.7196
 5591TIP3    H140968   2.821   3.175   2.625  0.9585 -1.7705  2.5535
 5591TIP3    H240969   2.765   3.299   2.689  1.8828 -0.5414  1.0524
 5592TIP3   OH240970   5.601   3.516   4.329  0.4411  0.6078  0.1284
 5592TIP3    H140971   5.539   3.505   4.400  0.6024  1.1718  0.3661
 5592TIP3    H240972   5.585   3.442   4.270  0.8068 -0.2810  1.1125
 5593TIP3   OH240973   1.820   5.381   3.739 -0.5879  0.0411 -0.3150
 5593TIP3    H140974   1.807   5.304   3.794 -0.0037 -0.9236 -1.4762
 5593TIP3    H240975   1.915   5.388   3.730 -0.5799  1.4770  0.5305
 5594TIP3   OH240976   1.079   2.088   3.093  0.3371  0.0135  0.1198
 5594TIP3    H140977   1.036   2.106   3.009  0.0692  1.0397  0.4622
 5594TIP3    H240978   1.008   2.060   3.150  0.6188 -1.3354 -0.1585
 5595TIP3   OH240979   3.413   1.386   2.817  0.1035 -0.0654  0.4044
 5595TIP3    H140980   3.431   1.462   2.873  0.3629  0.2724 -0.1367
 5595TIP3    H240981   3.497   1.341   2.810 -0.2695 -1.0022  1.5896
 5596TIP3   OH240982   6.156   4.065   4.433 -0.5767  0.4230  0.4340
 5596TIP3    H140983   6.130   4.122   4.361 -0.2500 -0.1251 -0.1305
 5596TIP3    H240984   6.146   3.977   4.399 -2.0387  0.0915  1.6345
 5597TIP3   OH240985   0.941   0.376   4.921 -0.4653 -0.3039 -0.1311
 5597TIP3    H140986   1.006   0.383   4.852  0.0470  0.8694  0.4533
 5597TIP3    H240987   0.983   0.414   4.999 -2.1105  1.2646  0.0641
 5598TIP3   OH240988   3.214   0.557   2.307  0.2624 -0.3719  0.3485
 5598TIP3    H140989   3.273   0.631   2.292 -0.0182 -0.1839  0.1552
 5598TIP3    H240990   3.163   0.551   2.226  0.6467 -1.1128  0.1525
 5599TIP3   OH240991   1.247   1.237   5.376  0.1327  0.7839 -0.0241
 5599TIP3    H140992   1.268   1.297   5.304 -0.7779  0.6347 -0.4330
 5599TIP3    H240993   1.232   1.293   5.451  0.4525  0.9838 -0.1068
 5600TIP3   OH240994   2.337   3.954   3.714  0.2704 -0.0360 -0.5804
 5600TIP3    H140995   2.244   3.953   3.736  0.2841 -0.1138 -0.5262
 5600TIP3    H240996   2.343   3.903   3.633  0.0584  1.2103 -1.4026
 5601TIP3   OH240997   4.562   6.332   3.049 -0.0823  0.3217 -0.2528
 5601TIP3    H140998   4.480   6.302   3.089 -0.7816 -0.3885 -2.1081
 5601TIP3    H240999   4.630   6.306   3.112 -1.1431 -0.4485  0.6212
 5602TIP3   OH241000   4.758   5.716   4.424  0.5168 -0.0297  0.0433
 5602TIP3    H141001   4.723   5.767   4.497  1.2922  0.7103 -0.0843
 5602TIP3    H241002   4.685   5.707   4.363 -0.1425 -0.6613  0.8918
 5603TIP3   OH241003   3.434   7.420   3.400 -0.6727 -0.6054  0.1631
 5603TIP3    H141004   3.455   7.336   3.440  2.0641 -1.1806 -2.1939
 5603TIP3    H241005   3.493   7.482   3.444  0.9942 -0.9117 -1.5235
 5604TIP3   OH241006   6.350   4.130   4.153 -0.5693 -0.2298 -0.2261
 5604TIP3    H141007   6.310   4.127   4.066 -2.2110 -1.7760  0.5119
 5604TIP3    H241008   6.356   4.038   4.180 -0.5980  0.2291  1.4949
 5605TIP3   OH241009   3.390   4.341   3.958  0.5125  0.1899 -0.4779
 5605TIP3    H141010   3.346   4.259   3.935  0.0200  0.7555 -1.6432
 5605TIP3    H241011   3.371   4.353   4.051  0.5320 -0.9769 -0.3030
 5606TIP3   OH241012   7.234   0.676   2.242  0.4680  0.3301 -0.0368
 5606TIP3    H141013   7.299   0.605   2.244  2.3125  1.9299  0.1698
 5606TIP3    H241014   7.167   0.645   2.181  0.9733 -1.7551  0.3881
 5607TIP3   OH241015   6.503   2.576   2.150  0.4012  0.0316  0.3737
 5607TIP3    H141016   6.446   2.649   2.174 -1.0994 -1.1720  0.6286
 5607TIP3    H241017   6.477   2.554   2.060  0.2672 -0.6793  0.5747
 5608TIP3   OH241018   0.396   2.330   3.786 -0.3918 -0.0615  0.2345
 5608TIP3    H141019   0.420   2.401   3.846  0.3977 -0.5544  0.5118
 5608TIP3    H241020   0.390   2.372   3.700 -1.5376  0.6529  0.6354
 5609TIP3   OH241021   6.610   6.331   4.345  0.0625 -0.3371  0.1675
 5609TIP3    H141022   6.591   6.297   4.257 -1.2480 -0.7543  0.5903
 5609TIP3    H241023   6.679   6.396   4.331 -0.3213 -0.1968 -1.2011
 5610TIP3   OH241024   0.443   7.518   4.817  0.0019 -0.6721 -0.6713
 5610TIP3    H141025   0.424   7.442   4.762 -0.2572 -1.5056  0.5162
 5610TIP3    H241026   0.359   7.564   4.824  0.4696  0.5917 -2.5812
 5611TIP3   OH241027   6.432   4.990   4.332  0.0861 -0.1251 -0.0197
 5611TIP3    H141028   6.519   4.959   4.309 -0.2907  0.1182 -1.9404
 5611TIP3    H241029   6.385   4.911   4.361  0.8869 -0.2766  0.8903
 5612TIP3   OH241030   7.371   1.955   2.502 -0.1305  0.8475 -0.3908
 5612TIP3    H141031   7.454   1.911   2.485 -0.6962 -0.0001 -1.0090
 5612TIP3    H241032   7.375   1.978   2.595  0.5586  0.3161 -0.2841
 5613TIP3   OH241033   6.407   3.843   4.238 -0.2516 -0.6290 -0.4146
 5613TIP3    H141034   6.471   3.874   4.303  0.1693 -2.2004 -0.0255
 5613TIP3    H241035   6.339   3.801   4.290 -0.9541 -0.1110 -0.9038
 5614TIP3   OH241036   4.509   0.388   4.021 -0.0344 -0.1518 -0.1068
 5614TIP3    H141037   4.582   0.413   4.078 -0.3928 -1.3648  0.9240
 5614TIP3    H241038   4.550   0.336   3.952  0.1605 -0.3275  0.1361
 5615TIP3   OH241039   1.975   3.275   3.152  0.3728  0.1014  0.3551
 5615TIP3    H141040   1.880   3.267   3.156  0.4191 -0.5328  0.3178
 5615TIP3    H241041   1.991   3.369   3.142 -0.3384  0.0498 -1.9207
 5616TIP3   OH241042   7.630   0.504   3.723  0.1084 -0.1699  0.6195
 5616TIP3    H141043   7.568   0.458   3.667 -0.1977  1.5758 -0.5670
 5616TIP3    H241044   7.678   0.435   3.769  0.7849 -1.7510 -2.2217
 5617TIP3   OH241045   3.822   6.108   3.394  0.0336  0.1113  0.1180
 5617TIP3    H141046   3.864   6.094   3.310  1.8224  0.1297  0.9663
 5617TIP3    H241047   3.842   6.029   3.445  0.1095  0.6552  0.9596
 5618TIP3   OH241048   4.400   7.644   3.398 -0.3366  0.6163 -0.7689
 5618TIP3    H141049   4.411   7.549   3.397  0.2140  0.6551 -0.0590
 5618TIP3    H241050   4.488   7.678   3.418 -0.6721  1.2359 -0.3057
 5619TIP3   OH241051   3.343   6.608   2.634 -0.0795  0.2819  0.7669
 5619TIP3    H141052   3.293   6.529   2.655  2.4381 -1.4469  0.6361
 5619TIP3    H241053   3.291   6.680   2.670 -2.3332 -1.4255  1.1162
 5620TIP3   OH241054   4.297   1.404   2.438  0.1991  0.2578  0.5033
 5620TIP3    H141055   4.371   1.346   2.416 -0.3406 -1.2886  2.5076
 5620TIP3    H241056   4.231   1.385   2.371  0.2765 -1.0250  0.7650
 5621TIP3   OH241057   3.353   3.044   4.338  0.0315  0.5482  0.3868
 5621TIP3    H141058   3.305   2.961   4.332  0.2407  0.4704 -0.3256
 5621TIP3    H241059   3.441   3.024   4.306 -0.0372  1.1336 -0.2015
 5622TIP3   OH241060   4.148   3.741   3.901  0.4383 -0.0368  0.0095
 5622TIP3    H141061   4.106   3.825   3.886  0.0397 -0.1447  0.4931
 5622TIP3    H241062   4.160   3.704   3.814  0.2530  0.3407 -0.1789
 5623TIP3   OH241063   3.165   1.662   2.346  0.0096  0.3735 -0.1245
 5623TIP3    H141064   3.177   1.739   2.291  0.9732  0.3320  0.0125
 5623TIP3    H241065   3.252   1.623   2.353 -0.3370 -0.3408  0.3794
 5624TIP3   OH241066   0.122   0.371   3.147  0.1973 -0.3469  0.0170
 5624TIP3    H141067   0.074   0.450   3.123 -1.7141 -1.5685 -0.3530
 5624TIP3    H241068   0.190   0.363   3.080 -0.4532  0.2349 -0.7217
 5625TIP3   OH241069   2.523   2.642   4.252  0.5487 -0.2383  0.0942
 5625TIP3    H141070   2.500   2.582   4.182 -0.3156  2.7664 -2.4609
 5625TIP3    H241071   2.439   2.677   4.283  1.0471  0.8678  0.2662
 5626TIP3   OH241072   2.771   4.679   3.218 -0.5071  0.1680  0.5586
 5626TIP3    H141073   2.845   4.659   3.161 -1.0049  0.0375 -0.0574
 5626TIP3    H241074   2.714   4.602   3.211 -0.3534 -0.0570  1.6086
 5627TIP3   OH241075   5.366   4.765   3.807 -0.6580  0.0044 -0.2189
 5627TIP3    H141076   5.313   4.772   3.886 -0.6987 -0.6894 -0.1737
 5627TIP3    H241077   5.303   4.746   3.738 -0.4962 -0.5865 -0.2072
 5628TIP3   OH241078   3.182   6.413   2.242  0.1060  0.0144 -0.1819
 5628TIP3    H141079   3.263   6.436   2.197 -0.6929 -0.5298 -1.9782
 5628TIP3    H241080   3.113   6.458   2.193 -0.7499 -0.0499  0.9218
 5629TIP3   OH241081   7.474   5.931   2.731 -0.1151 -0.2452  0.1488
 5629TIP3    H141082   7.437   5.949   2.644  2.9063 -3.4524 -2.1120
 5629TIP3    H241083   7.546   5.994   2.740 -1.9361  1.7451  1.6115
 5630TIP3   OH241084   6.365   3.422   3.551  1.1447  0.2772  0.4917
 5630TIP3    H141085   6.336   3.339   3.590  2.1590  0.0324  0.7684
 5630TIP3    H241086   6.459   3.410   3.538  1.7095  2.0595  2.3321
 5631TIP3   OH241087   6.950   4.786   3.097  0.0452 -0.0909  0.1145
 5631TIP3    H141088   6.967   4.846   3.170 -0.5388  0.3308 -0.0945
 5631TIP3    H241089   6.988   4.828   3.021  1.5145 -0.9763  0.3162
 5632TIP3   OH241090   4.022   5.390   2.507 -0.0991  0.1976  0.2075
 5632TIP3    H141091   4.013   5.478   2.470 -0.4851 -0.3238 -0.9650
 5632TIP3    H241092   4.116   5.375   2.511 -0.0515  0.3410 -0.3600
 5633TIP3   OH241093   3.168   2.702   4.577 -0.3467  0.0632  0.1650
 5633TIP3    H141094   3.250   2.671   4.614 -0.0852  0.0909 -0.3801
 5633TIP3    H241095   3.110   2.714   4.652  0.0692 -0.1911  0.5268
 5634TIP3   OH241096   3.301   7.424   2.538 -0.4080 -0.9106  0.1901
 5634TIP3    H141097   3.217   7.451   2.502 -0.3465 -0.8225  0.1134
 5634TIP3    H241098   3.335   7.360   2.476  0.9804  1.2269 -1.4067
 5635TIP3   OH241099   3.398   0.038   3.766  0.0736  0.1418  0.1973
 5635TIP3    H141100   3.421  -0.018   3.692  0.7143 -0.0089  0.5049
 5635TIP3    H241101   3.302   0.038   3.767  0.0625  0.0453 -0.5520
 5636TIP3   OH241102   5.852   2.246   4.947  0.7899  0.3931 -0.0792
 5636TIP3    H141103   5.854   2.282   4.858  0.9257  1.8956  0.4974
 5636TIP3    H241104   5.857   2.323   5.004 -1.1830 -0.3668  1.2471
 5637TIP3   OH241105   1.016   2.498   3.666  0.2977 -0.1178 -0.0381
 5637TIP3    H141106   1.019   2.407   3.697 -0.0130  0.4813  1.8979
 5637TIP3    H241107   1.103   2.533   3.683  0.5247 -0.1340 -1.1108
 5638TIP3   OH241108   7.007   6.125   2.803 -0.5246  0.2279 -0.0863
 5638TIP3    H141109   7.017   6.050   2.862 -1.4634  0.6575  0.6604
 5638TIP3    H241110   7.088   6.128   2.754 -0.5791 -1.4354 -0.3256
 5639TIP3   OH241111   4.178   5.442   4.109 -0.0795  0.4379  0.6400
 5639TIP3    H141112   4.185   5.530   4.145  1.4262  0.2273  0.9385
 5639TIP3    H241113   4.235   5.443   4.032  0.0732 -0.3077  0.7357
 5640TIP3   OH241114   7.007   0.176   3.319  0.0522 -0.2752  0.2060
 5640TIP3    H141115   6.971   0.242   3.260 -0.5187 -0.9866 -0.2636
 5640TIP3    H241116   7.101   0.176   3.300  0.0185  0.2293  0.0320
 5641TIP3   OH241117   7.558   0.802   3.491 -0.5569  0.1003  0.2240
 5641TIP3    H141118   7.600   0.719   3.469 -0.7566  0.0206  0.1423
 5641TIP3    H241119   7.510   0.784   3.572  1.6334  0.8547  1.7935
 5642TIP3   OH241120   1.017   7.331   3.977  0.2753  0.1054 -0.2910
 5642TIP3    H141121   0.928   7.346   3.945  0.2215  0.7616  0.1353
 5642TIP3    H241122   1.010   7.341   4.072  0.6136 -0.8485 -0.1598
 5643TIP3   OH241123   4.798   6.305   2.629 -0.0721  0.0056  0.6907
 5643TIP3    H141124   4.708   6.294   2.660  0.4583 -0.1024  2.2800
 5643TIP3    H241125   4.826   6.216   2.606 -1.0140  0.2845 -1.8376
 5644TIP3   OH241126   7.100   7.269   4.141  0.0098  0.2252  0.3249
 5644TIP3    H141127   7.103   7.341   4.078 -1.4722 -0.1883 -0.2715
 5644TIP3    H241128   7.117   7.310   4.226  2.8089  0.6857 -0.3550
 5645TIP3   OH241129   5.560   7.197   2.404 -1.1301  0.0762  0.5002
 5645TIP3    H141130   5.497   7.141   2.358 -1.2384 -0.6083  1.4453
 5645TIP3    H241131   5.532   7.194   2.496  0.3486 -0.3591  0.9647
 5646TIP3   OH241132   0.441   6.384   4.004 -0.1768  0.2358 -0.9252
 5646TIP3    H141133   0.404   6.468   4.031  1.7418  0.7866  0.2049
 5646TIP3    H241134   0.391   6.319   4.053  0.2442  0.9456  0.5068
 5647TIP3   OH241135   5.272   5.319   3.541 -0.0877  0.0640 -0.3231
 5647TIP3    H141136   5.295   5.293   3.451 -1.0244 -0.1257 -0.5143
 5647TIP3    H241137   5.262   5.414   3.536 -0.3417  0.0306 -0.4692
 5648TIP3   OH241138   3.471   3.410   3.716 -0.3606  0.3953  0.6538
 5648TIP3    H141139   3.517   3.494   3.720 -0.3128  0.4340 -0.4195
 5648TIP3    H241140   3.535   3.349   3.682 -0.6205  0.0769  0.7292
 5649TIP3   OH241141   4.028   2.878   4.362  0.0567  0.5930 -0.0037
 5649TIP3    H141142   3.997   2.791   4.388  1.6558 -0.0186 -0.0339
 5649TIP3    H241143   4.031   2.874   4.266  0.1980  0.6572 -0.0023
 5650TIP3   OH241144   4.363   0.938   3.793  0.4760  0.4995 -0.2895
 5650TIP3    H141145   4.296   0.902   3.852  0.7772  2.2625  1.2158
 5650TIP3    H241146   4.397   0.862   3.747 -0.4155 -0.8487  1.1659
 5651TIP3   OH241147   1.982   5.474   2.837  0.5489 -0.5129  0.2316
 5651TIP3    H141148   1.894   5.511   2.830  0.8263  0.2174  0.4700
 5651TIP3    H241149   2.013   5.468   2.747  0.5876  0.0801  0.1975
 5652TIP3   OH241150   2.475   3.224   3.109 -0.8180 -0.7114  0.1091
 5652TIP3    H141151   2.422   3.194   3.182 -1.1060 -0.9268 -0.1841
 5652TIP3    H241152   2.530   3.294   3.145 -0.5374 -1.2170  0.6653
 5653TIP3   OH241153   6.770   0.912   2.540 -0.2826 -0.1676 -0.0903
 5653TIP3    H141154   6.768   0.902   2.445  0.9610 -0.1811 -0.1253
 5653TIP3    H241155   6.857   0.884   2.566  0.2394  2.0167  0.7904
 5654TIP3   OH241156   4.449   3.508   3.167  0.1892  0.5533  0.3743
 5654TIP3    H141157   4.378   3.468   3.117  0.5587 -2.4664  1.9682
 5654TIP3    H241158   4.528   3.485   3.119  0.3207  0.5200  0.6028
 5655TIP3   OH241159   6.731   3.022   2.550  0.2288  0.0562  0.1237
 5655TIP3    H141160   6.691   2.945   2.511  0.2985  0.1060 -0.0480
 5655TIP3    H241161   6.661   3.087   2.551  0.0080 -0.1829  0.7860
 5656TIP3   OH241162   5.679   5.282   3.289 -0.0844  0.1631 -0.2160
 5656TIP3    H141163   5.641   5.198   3.265 -1.8702  0.5301  1.0882
 5656TIP3    H241164   5.733   5.263   3.366 -0.4861  0.2026  0.0776
 5657TIP3   OH241165   6.636   3.604   2.540  0.4024  0.1257  0.1428
 5657TIP3    H141166   6.575   3.677   2.529  1.3226  1.0200  0.7471
 5657TIP3    H241167   6.583   3.525   2.529 -0.4894  0.8767 -1.1746
 5658TIP3   OH241168   5.050   0.195   4.038 -0.3280 -0.1048 -0.4487
 5658TIP3    H141169   5.025   0.238   3.957 -1.1645  1.9488  0.8132
 5658TIP3    H241170   5.058   0.266   4.101  1.1429 -1.5471  1.0776
 5659TIP3   OH241171   1.558   5.605   3.957  0.4336  0.3765  0.1279
 5659TIP3    H141172   1.475   5.593   3.911 -0.9604 -0.9396  2.6985
 5659TIP3    H241173   1.567   5.699   3.969 -0.6219  0.5427 -0.3456
 5660TIP3   OH241174   1.977   1.743   3.744 -0.5084 -0.6098 -0.2618
 5660TIP3    H141175   2.033   1.674   3.708 -0.7928 -0.1673 -1.5652
 5660TIP3    H241176   1.906   1.695   3.787  0.6155 -1.1724  1.0815
 5661TIP3   OH241177   6.548   3.652   3.713  0.1127 -0.4995 -0.3476
 5661TIP3    H141178   6.582   3.724   3.659  0.0655  0.9307  1.4568
 5661TIP3    H241179   6.461   3.682   3.741  0.2753 -1.0474  0.7995
 5662TIP3   OH241180   1.025   5.783   3.016  0.1175  0.1603 -0.0470
 5662TIP3    H141181   0.963   5.815   2.951 -1.1165  0.2826  1.1334
 5662TIP3    H241182   1.071   5.712   2.973 -0.1466  0.7220 -1.2880
 5663TIP3   OH241183   6.741   4.751   3.792  0.1105  0.3491  0.6113
 5663TIP3    H141184   6.664   4.781   3.745 -0.2895  0.0744  1.0917
 5663TIP3    H241185   6.807   4.739   3.724 -1.0225 -1.9145 -0.1808
 5664TIP3   OH241186   2.529   4.367   3.449  0.2271 -0.4925  0.3547
 5664TIP3    H141187   2.484   4.443   3.486  0.2978 -0.2684 -0.0139
 5664TIP3    H241188   2.462   4.298   3.447 -0.3581  0.0731 -0.9481
 5665TIP3   OH241189   7.125   7.300   3.684 -0.4070  0.8156 -0.1747
 5665TIP3    H141190   7.064   7.288   3.612  0.1208 -0.5322 -0.4317
 5665TIP3    H241191   7.084   7.253   3.758 -0.3435  1.1056  0.0472
 5666TIP3   OH241192   0.265   4.317   3.577  0.0538 -0.4557  0.1745
 5666TIP3    H141193   0.224   4.383   3.521  1.2703 -0.9832 -1.3985
 5666TIP3    H241194   0.340   4.362   3.616  0.3809 -0.6358 -0.2292
 5667TIP3   OH241195   7.268   1.758   3.299  0.2982  0.0177  0.3324
 5667TIP3    H141196   7.261   1.699   3.224 -0.4588  1.1587 -0.5126
 5667TIP3    H241197   7.221   1.836   3.273 -0.8696  0.0651  2.3969
 5668TIP3   OH241198   3.773   7.398   3.367 -0.4679 -0.3536  0.6112
 5668TIP3    H141199   3.734   7.338   3.431 -0.7970  0.9801  1.6846
 5668TIP3    H241200   3.859   7.419   3.403  0.0868 -0.9694 -0.2918
 5669TIP3   OH241201   3.696   4.834   2.491  0.1781  0.1631  0.1993
 5669TIP3    H141202   3.772   4.778   2.475 -0.8133 -0.8936 -1.1514
 5669TIP3    H241203   3.675   4.821   2.583 -0.5057 -2.4444 -0.2347
 5670TIP3   OH241204   6.426   6.811   3.209 -0.3778  0.6728  0.9554
 5670TIP3    H141205   6.376   6.733   3.232  1.3939  0.1349  3.2388
 5670TIP3    H241206   6.496   6.779   3.153  1.4157  0.2157  3.3179
 5671TIP3   OH241207   0.088   5.942   4.575  0.3653 -0.1155  0.6712
 5671TIP3    H141208   0.092   6.016   4.514  1.4030 -1.7026 -1.2730
 5671TIP3    H241209  -0.006   5.933   4.594  0.1844  1.4508  0.6624
 5672TIP3   OH241210   4.092   6.370   2.421 -0.1322  0.1692  0.1011
 5672TIP3    H141211   4.022   6.427   2.455  1.0356  1.1576  0.9172
 5672TIP3    H241212   4.079   6.371   2.326 -0.7220  1.0139  0.1776
 5673TIP3   OH241213   7.310   6.785   3.106 -0.9147 -0.5816 -0.2921
 5673TIP3    H141214   7.371   6.857   3.121 -1.6508  0.8131 -3.3067
 5673TIP3    H241215   7.246   6.792   3.177 -0.5047  1.2216 -0.0650
 5674TIP3   OH241216   5.591   4.974   3.762  0.1311 -0.1733 -0.1449
 5674TIP3    H141217   5.504   4.934   3.767 -0.2202  0.5716  0.0040
 5674TIP3    H241218   5.573   5.066   3.742  0.8773  0.0223  0.0540
 5675TIP3   OH241219   4.670   1.377   2.905  0.0580 -0.1886  0.8589
 5675TIP3    H141220   4.664   1.309   2.839  0.2993 -1.1684  1.8105
 5675TIP3    H241221   4.598   1.436   2.885  0.4519 -0.1605 -0.5854
 5676TIP3   OH241222   3.533   3.477   2.262 -0.7020 -0.0314 -0.1724
 5676TIP3    H141223   3.457   3.487   2.318 -0.6684 -1.7797  0.2372
 5676TIP3    H241224   3.512   3.528   2.183 -2.2242 -0.3491  0.0026
 5677TIP3   OH241225   5.945   3.443   2.539  0.2475  0.0999  0.7404
 5677TIP3    H141226   5.946   3.347   2.545 -1.6015 -0.1429 -1.2553
 5677TIP3    H241227   5.986   3.473   2.620  1.8426 -2.3702  0.9471
 5678TIP3   OH241228   0.514   2.719   4.314 -0.4755  0.8288  0.3290
 5678TIP3    H141229   0.473   2.656   4.254 -1.1152 -0.3862  1.9851
 5678TIP3    H241230   0.587   2.756   4.263  0.7795 -2.2189 -0.3002
 5679TIP3   OH241231   6.772   1.485   2.322 -0.3644 -0.0964  0.5228
 5679TIP3    H141232   6.782   1.526   2.236 -0.2258 -0.8984  0.1452
 5679TIP3    H241233   6.822   1.541   2.381 -0.9551  0.8021  0.1928
 5680TIP3   OH241234   2.510   7.392   3.594  0.4258  0.0944  0.1659
 5680TIP3    H141235   2.569   7.466   3.607  0.3835 -0.0599  1.3354
 5680TIP3    H241236   2.440   7.426   3.538  0.9281  0.6476 -0.1327
 5681TIP3   OH241237   5.753   4.535   2.839  0.4307 -0.1049 -0.7316
 5681TIP3    H141238   5.702   4.508   2.915  0.2117 -1.9990 -1.4997
 5681TIP3    H241239   5.695   4.595   2.792  0.1859  0.2954  0.0590
 5682TIP3   OH241240   2.231   2.541   3.891 -0.5489  0.2279  0.0025
 5682TIP3    H141241   2.279   2.622   3.905 -1.2063  0.5997  0.1633
 5682TIP3    H241242   2.154   2.548   3.947 -1.3207  0.1048 -1.0121
 5683TIP3   OH241243   0.291   5.948   3.841 -1.0354 -0.2876  0.2320
 5683TIP3    H141244   0.360   5.984   3.898  0.7887  0.4179 -2.2007
 5683TIP3    H241245   0.252   6.026   3.800 -1.4043 -0.8052 -0.4116
 5684TIP3   OH241246   6.471   2.711   2.560  0.1952 -0.2400 -0.1079
 5684TIP3    H141247   6.475   2.797   2.602  0.9610 -1.9023  3.5985
 5684TIP3    H241248   6.381   2.703   2.530 -0.0711  1.5728  0.0658
 5685TIP3   OH241249   3.122   0.017   4.050 -0.2847  0.0475  0.4860
 5685TIP3    H141250   3.174  -0.038   3.991 -0.4998  0.9350 -0.5677
 5685TIP3    H241251   3.034  -0.021   4.048 -0.0796 -0.4681  0.9723
 5686TIP3   OH241252   4.363   2.041   4.480 -1.0240  0.2784  0.8785
 5686TIP3    H141253   4.277   2.038   4.520 -0.9207 -0.1738  1.0696
 5686TIP3    H241254   4.423   2.054   4.553 -0.9543  1.0166  0.7062
 5687TIP3   OH241255   7.136   6.471   4.070 -0.2589  0.2512  0.2148
 5687TIP3    H141256   7.197   6.488   3.999  0.4834 -1.3628  0.4391
 5687TIP3    H241257   7.101   6.384   4.053  0.7038 -0.6229  2.3272
 5688TIP3   OH241258   3.040   6.997   3.472  0.0479  0.1748 -0.1225
 5688TIP3    H141259   3.097   6.990   3.395  0.0100 -1.0131 -0.0624
 5688TIP3    H241260   3.062   7.082   3.510 -0.3174  1.0344 -1.7377
 5689TIP3   OH241261   2.376   5.196   3.648 -0.2075  0.2162 -0.3111
 5689TIP3    H141262   2.471   5.198   3.664 -0.2752  0.8402  0.0557
 5689TIP3    H241263   2.339   5.161   3.728 -0.3713  1.1485  0.0405
 5690TIP3   OH241264   6.567   6.528   3.923 -0.2434  0.3995  0.2214
 5690TIP3    H141265   6.554   6.440   3.958 -0.3715  0.9513  1.6300
 5690TIP3    H241266   6.656   6.551   3.948 -0.3049  0.7765  0.1018
 5691TIP3   OH241267   3.250   2.605   3.813 -0.0507  0.2276  0.3329
 5691TIP3    H141268   3.291   2.690   3.798  1.6086 -0.4093  1.0261
 5691TIP3    H241269   3.269   2.585   3.904  0.8176 -1.4913 -0.1739
 5692TIP3   OH241270   6.253   6.935   3.414 -0.1403 -0.7279 -0.4651
 5692TIP3    H141271   6.285   7.024   3.396  1.2375 -1.0598  0.1892
 5692TIP3    H241272   6.295   6.880   3.349 -0.6605 -0.9640 -0.6057
 5693TIP3   OH241273   3.698   7.341   2.442 -0.7249 -0.4882  0.4904
 5693TIP3    H141274   3.735   7.270   2.389  0.8490  0.0733  0.7807
 5693TIP3    H241275   3.772   7.374   2.493 -0.7050  3.0105 -1.4528
 5694TIP3   OH241276   2.487   2.211   3.139  1.0391 -0.1481  0.6798
 5694TIP3    H141277   2.510   2.215   3.232 -0.2019 -1.1039  1.0615
 5694TIP3    H241278   2.427   2.285   3.126 -0.6817 -1.3643  1.2615
 5695TIP3   OH241279   3.644   3.638   3.700 -0.2639 -0.0562 -0.2052
 5695TIP3    H141280   3.699   3.702   3.747 -0.2441 -0.6119  0.5445
 5695TIP3    H241281   3.654   3.661   3.608 -1.7814  2.2681  0.1212
 5696TIP3   OH241282   5.474   6.265   2.747  0.1130 -0.0913  0.3234
 5696TIP3    H141283   5.441   6.176   2.733  1.4956 -0.6584  0.4880
 5696TIP3    H241284   5.447   6.287   2.836 -1.4857  0.2476 -0.2124
 5697TIP3   OH241285   2.224   2.672   4.720  0.0428  0.3517 -0.1153
 5697TIP3    H141286   2.150   2.712   4.766  0.3401  0.1610  0.5331
 5697TIP3    H241287   2.284   2.744   4.705 -1.6147  1.2345 -3.5116
 5698TIP3   OH241288   6.165   1.422   2.432  0.4589 -0.7483  0.2254
 5698TIP3    H141289   6.119   1.496   2.472 -0.9935 -1.6779  0.3608
 5698TIP3    H241290   6.146   1.430   2.338  0.9696 -0.5143  0.1379
 5699TIP3   OH241291   7.276   6.258   2.414 -0.5655  0.7435  0.4003
 5699TIP3    H141292   7.357   6.297   2.384 -1.2077  1.7319 -0.0818
 5699TIP3    H241293   7.224   6.331   2.447 -2.0263  0.4199 -1.0515
 5700TIP3   OH241294   3.417   0.970   2.774  0.0107 -0.1615  0.1702
 5700TIP3    H141295   3.464   0.993   2.854  0.9809 -2.8597  0.4780
 5700TIP3    H241296   3.338   1.025   2.775 -0.7504 -1.0879  3.7203
 5701TIP3   OH241297   3.613   2.980   4.262  0.1722 -0.2752 -0.5673
 5701TIP3    H141298   3.640   2.888   4.266  0.2888 -0.2101  0.3822
 5701TIP3    H241299   3.687   3.024   4.221  0.3018 -0.5445 -0.6264
 5702TIP3   OH241300   6.574   1.253   2.441 -0.3251 -0.0762 -0.1582
 5702TIP3    H141301   6.643   1.297   2.392  0.8482 -1.0775  0.5650
 5702TIP3    H241302   6.537   1.190   2.379 -0.0590 -0.0864 -0.3069
 5703TIP3   OH241303   6.732   5.055   3.620 -0.0282 -0.3687  0.0872
 5703TIP3    H141304   6.657   5.021   3.670 -0.6605  0.9274  0.0542
 5703TIP3    H241305   6.714   5.027   3.530  0.9381 -2.4085  0.4671
 5704TIP3   OH241306   1.972   5.760   4.165  0.4218 -0.1825  0.2602
 5704TIP3    H141307   1.919   5.723   4.094 -0.2125  1.0757  0.0308
 5704TIP3    H241308   1.911   5.818   4.211  1.4258  0.8099  0.3917
 5705TIP3   OH241309   0.498   1.879   3.579  0.0509 -0.0173  0.1785
 5705TIP3    H141310   0.473   1.857   3.668 -0.2809  2.5829  0.8016
 5705TIP3    H241311   0.533   1.968   3.584  0.8449 -0.1132 -2.1496
 5706TIP3   OH241312   1.839   7.577   4.298  0.1099  0.5228  0.0924
 5706TIP3    H141313   1.896   7.561   4.223  1.9204 -0.8191  1.6822
 5706TIP3    H241314   1.879   7.651   4.344 -0.3402  0.6137  0.3440
 5707TIP3   OH241315   7.652   4.944   2.975  0.5373  0.2325 -0.0413
 5707TIP3    H141316   7.573   4.986   3.006 -0.0182  0.6720 -1.8915
 5707TIP3    H241317   7.636   4.928   2.882  1.7921 -1.6336  0.0018
 5708TIP3   OH241318   6.077   6.648   3.601  0.1068 -0.0267  0.1095
 5708TIP3    H141319   6.077   6.553   3.587 -1.6765 -0.0495  0.0957
 5708TIP3    H241320   6.051   6.684   3.516 -1.2542  0.3537  0.6767
 5709TIP3   OH241321   4.254   5.955   4.078 -0.3301 -0.7657  0.2160
 5709TIP3    H141322   4.197   6.004   4.019  1.1699  0.7112 -0.0924
 5709TIP3    H241323   4.337   6.003   4.076  0.1173 -1.3317  2.6608
 5710TIP3   OH241324   6.130   5.009   3.704 -0.0631  0.2697 -0.4764
 5710TIP3    H141325   6.087   5.045   3.781 -1.2000 -1.2436 -0.3534
 5710TIP3    H241326   6.213   5.057   3.698 -0.5404  1.3279  0.9029
 5711TIP3   OH241327   6.721   0.074   3.402 -0.2661  0.2377 -0.4288
 5711TIP3    H141328   6.794   0.112   3.352 -0.7186  0.2007 -1.1308
 5711TIP3    H241329   6.648   0.134   3.388 -0.1082  0.8192  1.1112
 5712TIP3   OH241330   5.263   1.494   2.804 -0.1315 -0.0423  0.1408
 5712TIP3    H141331   5.211   1.429   2.757 -1.0916  0.4854  0.4475
 5712TIP3    H241332   5.199   1.554   2.841  0.7372  1.8688 -1.2276
 5713TIP3   OH241333   6.910   0.540   3.897 -0.3285 -0.4989  0.7198
 5713TIP3    H141334   6.888   0.545   3.990 -1.5097 -2.4351  0.5957
 5713TIP3    H241335   6.848   0.477   3.861  0.4557 -0.1990 -1.2933
 5714TIP3   OH241336   3.079   7.118   2.863  0.0607 -0.0100 -0.7235
 5714TIP3    H141337   3.148   7.157   2.917  0.7053 -0.4003 -1.2521
 5714TIP3    H241338   3.116   7.115   2.775 -0.0605 -1.5520 -0.7560
 5715TIP3   OH241339   6.386   1.080   3.137 -0.0611 -0.3051  0.7007
 5715TIP3    H141340   6.389   0.985   3.131  0.6693 -0.3442  1.4318
 5715TIP3    H241341   6.455   1.110   3.078 -0.4509 -0.2122  0.2864
 5716TIP3   OH241342   1.262   4.894   3.813  0.0939 -0.1142  0.2511
 5716TIP3    H141343   1.229   4.983   3.801 -0.7238 -0.6166 -1.7082
 5716TIP3    H241344   1.355   4.906   3.835 -0.1249  1.2217  0.5647
 5717TIP3   OH241345   6.676   6.878   3.636 -0.2778 -0.4331  0.1821
 5717TIP3    H141346   6.769   6.893   3.621 -0.4945  0.2775 -0.5183
 5717TIP3    H241347   6.648   6.823   3.562 -0.5760 -0.0010 -0.0285
 5718TIP3   OH241348   7.271   7.478   3.468  0.7465 -0.3239  0.0715
 5718TIP3    H141349   7.200   7.538   3.444  1.0394  0.2041  0.4921
 5718TIP3    H241350   7.312   7.455   3.384  2.3653  2.2520  0.0107
 5719TIP3   OH241351   4.166   2.166   3.548 -0.5612 -0.1837 -0.1592
 5719TIP3    H141352   4.082   2.212   3.536 -0.5433  0.3729  1.5315
 5719TIP3    H241353   4.231   2.225   3.511 -0.8647 -0.4837 -1.2102
 5720TIP3   OH241354   4.664   6.047   3.582 -0.0917 -0.3882  0.4307
 5720TIP3    H141355   4.603   6.077   3.649  0.6090 -1.7152  1.7226
 5720TIP3    H241356   4.608   6.013   3.512 -0.8417 -1.0826  1.3481
 5721TIP3   OH241357   3.010   2.293   3.780 -0.2755  0.1541 -0.2654
 5721TIP3    H141358   2.947   2.362   3.801 -0.8989 -0.4442 -0.1249
 5721TIP3    H241359   2.961   2.233   3.723  0.7258  0.6316 -1.6937
 5722TIP3   OH241360   7.030   2.918   3.433  0.0438 -0.4447  0.4216
 5722TIP3    H141361   7.113   2.892   3.475 -0.0550  0.2265  1.0598
 5722TIP3    H241362   7.010   2.846   3.373  0.7927 -0.8868  0.6819
 5723TIP3   OH241363   0.105   5.986   4.893 -0.3206  0.1173 -0.1335
 5723TIP3    H141364   0.184   5.978   4.946 -0.8126  0.6049  0.6819
 5723TIP3    H241365   0.054   5.908   4.916 -1.2270  1.0916  1.3043
 5724TIP3   OH241366   4.585   2.283   4.588  0.5971  0.0231 -0.2439
 5724TIP3    H141367   4.678   2.304   4.578  0.3446  1.3579 -0.0633
 5724TIP3    H241368   4.544   2.321   4.511  0.1894 -0.5417 -0.3085
 5725TIP3   OH241369   4.807   0.044   2.812 -0.0857 -0.0769 -0.7078
 5725TIP3    H141370   4.800   0.082   2.899 -1.6283 -0.6632 -0.5611
 5725TIP3    H241371   4.887  -0.009   2.815  0.3911  0.6585  0.0234
 5726TIP3   OH241372   6.171   1.767   2.457  0.1893  0.1168 -0.2122
 5726TIP3    H141373   6.081   1.750   2.428  1.1675  0.9345 -4.3271
 5726TIP3    H241374   6.163   1.842   2.516 -1.9399 -1.0730  1.1614
 5727TIP3   OH241375   0.119   1.257   2.574 -0.1423  0.6939  0.4968
 5727TIP3    H141376   0.084   1.250   2.663  0.3839  1.4881  0.7742
 5727TIP3    H241377   0.168   1.339   2.574  0.7081  0.1989 -0.2355
 5728TIP3   OH241378   2.958   6.394   3.384 -0.2156 -0.2796  0.1597
 5728TIP3    H141379   2.911   6.320   3.423  1.4130 -1.0723  0.7547
 5728TIP3    H241380   3.050   6.368   3.389  0.3667  1.5863 -0.1024
 5729TIP3   OH241381   4.548   0.550   4.287 -0.0188  0.4297  0.1272
 5729TIP3    H141382   4.623   0.531   4.231 -0.9313 -1.5150 -0.5276
 5729TIP3    H241383   4.546   0.645   4.293  1.8461  0.5619 -0.7165
 5730TIP3   OH241384   4.811   0.864   4.276  0.8023 -0.6901  0.1319
 5730TIP3    H141385   4.853   0.949   4.270 -1.1879  0.4403  1.0951
 5730TIP3    H241386   4.778   0.859   4.366  0.0067 -2.0252 -0.1985
 5731TIP3   OH241387   4.698   4.734   2.706 -0.4392 -0.4176  0.5275
 5731TIP3    H141388   4.658   4.746   2.619  0.0798  2.2946  0.5714
 5731TIP3    H241389   4.760   4.662   2.694 -0.2207  0.0316 -1.4338
 5732TIP3   OH241390   2.607   5.803   2.747  0.0700  0.1758  0.4453
 5732TIP3    H141391   2.530   5.801   2.804 -0.4838  0.0360 -0.2905
 5732TIP3    H241392   2.623   5.712   2.724 -0.1812  0.2940 -0.2270
 5733TIP3   OH241393   3.095   0.717   2.791 -0.1457  0.1075 -0.5917
 5733TIP3    H141394   3.143   0.642   2.828  0.8319  0.4488 -1.1342
 5733TIP3    H241395   3.155   0.754   2.727  0.3401  2.6907  1.1893
 5734TIP3   OH241396   1.908   7.615   3.451  0.5588 -0.5749  0.1125
 5734TIP3    H141397   1.980   7.673   3.426 -0.4156  1.3275  1.4771
 5734TIP3    H241398   1.852   7.612   3.373  0.5965  0.3536  0.0423
 5735TIP3   OH241399   2.441   4.063   1.957  0.4376  0.1671 -0.2636
 5735TIP3    H141400   2.403   3.978   1.936  0.3923  0.5271 -1.7161
 5735TIP3    H241401   2.370   4.126   1.940  0.9935  0.6454 -0.8556
 5736TIP3   OH241402   3.015   4.227   4.332  0.0049  0.2055  0.2526
 5736TIP3    H141403   3.006   4.233   4.427 -1.7802 -1.0724  0.2187
 5736TIP3    H241404   3.105   4.199   4.318  0.1791  0.0263  1.5900
 5737TIP3   OH241405   6.911   3.141   3.513 -0.1455  0.1941  0.4209
 5737TIP3    H141406   6.883   3.126   3.603 -2.3251 -0.9517 -0.3857
 5737TIP3    H241407   6.952   3.059   3.486 -0.6205  0.0915 -0.0055
 5738TIP3   OH241408   0.293   4.605   4.635  0.1524  0.2550 -0.0467
 5738TIP3    H141409   0.306   4.615   4.730  0.0267 -1.0218  0.1317
 5738TIP3    H241410   0.281   4.694   4.603  1.0675  0.7909  1.0082
 5739TIP3   OH241411   4.820   0.164   4.327  0.0590 -0.0878  0.8039
 5739TIP3    H141412   4.906   0.204   4.319 -0.0069 -0.0339  0.3271
 5739TIP3    H241413   4.838   0.070   4.332  0.1215 -0.1035  0.2792
 5740TIP3   OH241414   4.976   6.670   4.144 -0.6021  0.6281  0.1791
 5740TIP3    H141415   4.899   6.723   4.165 -1.6066 -1.1522  1.2234
 5740TIP3    H241416   5.009   6.640   4.228  0.9181  0.8691 -0.2902
 5741TIP3   OH241417   5.125   5.940   3.804 -0.4926 -0.3383  0.8687
 5741TIP3    H141418   5.203   5.887   3.789 -1.2760 -1.1100 -0.7004
 5741TIP3    H241419   5.157   6.017   3.852  1.4259 -0.1222 -0.6333
 5742TIP3   OH241420   1.273   4.427   3.078 -0.2737 -0.0662  0.5164
 5742TIP3    H141421   1.212   4.447   3.007  0.6642 -1.1000 -0.6382
 5742TIP3    H241422   1.264   4.332   3.091  1.8417 -0.4676 -0.4764
 5743TIP3   OH241423   6.833   4.733   9.695 -0.3860 -0.5521 -0.1524
 5743TIP3    H141424   6.845   4.738   9.790 -1.5297 -0.4120 -0.0021
 5743TIP3    H241425   6.768   4.664   9.683  0.8041 -1.5917 -0.9517
 5744TIP3   OH241426   1.658   0.380   4.389 -0.2943  0.0150  0.0430
 5744TIP3    H141427   1.596   0.373   4.462  0.3261 -0.2596  0.5483
 5744TIP3    H241428   1.744   0.377   4.430  0.0670  0.9205 -0.6075
 5745TIP3   OH241429   4.173   0.444   3.454 -0.2782 -0.0965 -0.5180
 5745TIP3    H141430   4.197   0.405   3.538  0.3862 -0.1104 -0.7109
 5745TIP3    H241431   4.256   0.459   3.410 -0.5552  1.0636 -0.6681
 5746TIP3   OH241432   5.542   3.006   2.560  0.5081 -0.7579  0.0516
 5746TIP3    H141433   5.481   2.964   2.500  1.9436 -0.0222 -2.0327
 5746TIP3    H241434   5.613   2.943   2.571  2.1103  0.5087 -2.1816
 5747TIP3   OH241435   3.723   7.225   4.436 -0.4708  0.1539  0.6779
 5747TIP3    H141436   3.660   7.156   4.411 -0.5983  0.5644 -0.2035
 5747TIP3    H241437   3.714   7.232   4.531  0.5673 -2.0210  1.0010
 5748TIP3   OH241438   5.156   6.834   2.624  0.0181 -0.0414  0.2942
 5748TIP3    H141439   5.249   6.846   2.642  0.4090 -0.7025 -1.1547
 5748TIP3    H241440   5.111   6.877   2.697  1.4497  0.8446  0.6737
 5749TIP3   OH241441   7.560   5.700   3.574  0.0594  0.1432 -0.7515
 5749TIP3    H141442   7.605   5.776   3.611  0.5215 -0.0692 -0.8680
 5749TIP3    H241443   7.559   5.636   3.645  0.2169  0.0355 -0.8457
 5750TIP3   OH241444   3.488   5.404   2.463  0.3121  0.0296 -0.1213
 5750TIP3    H141445   3.513   5.324   2.511  0.3565  0.1766  0.1029
 5750TIP3    H241446   3.473   5.469   2.532 -1.5592 -0.2794 -0.1773
 5751TIP3   OH241447   5.259   6.656   3.252 -0.2932 -0.0146  0.7144
 5751TIP3    H141448   5.318   6.644   3.326 -0.7290 -0.8255  0.9476
 5751TIP3    H241449   5.312   6.636   3.175 -0.3565 -1.1403  0.9488
 5752TIP3   OH241450   4.518   7.472   3.961  0.0694 -0.6312 -0.3236
 5752TIP3    H141451   4.537   7.503   3.873  0.2813  0.3886  0.0654
 5752TIP3    H241452   4.601   7.477   4.007 -0.7292  2.6958  1.0477
 5753TIP3   OH241453   4.385   3.137   3.885  0.2206  0.1311  0.3623
 5753TIP3    H141454   4.409   3.050   3.852 -0.2793  0.3422 -0.5913
 5753TIP3    H241455   4.412   3.197   3.816 -1.3250  0.5392  0.0852
 5754TIP3   OH241456   1.974   0.874   3.426  0.0224  0.4727  0.2920
 5754TIP3    H141457   1.889   0.918   3.423 -0.1603  0.0485 -1.8994
 5754TIP3    H241458   1.967   0.803   3.363  1.7784 -0.0293  0.6097
 5755TIP3   OH241459   3.676   6.626   2.912 -0.0696 -0.4994  0.4046
 5755TIP3    H141460   3.725   6.548   2.885 -1.9536 -1.4136 -0.6001
 5755TIP3    H241461   3.600   6.591   2.960  1.2427  0.9411  3.8248
 5756TIP3   OH241462   2.190   3.052   4.805 -0.2775  0.5267  0.0720
 5756TIP3    H141463   2.177   3.017   4.717 -0.0997  1.5375 -0.3640
 5756TIP3    H241464   2.182   3.147   4.795  1.6115  0.8046  0.8087
 5757TIP3   OH241465   3.066   6.025   3.370 -0.3123 -0.0056  0.2506
 5757TIP3    H141466   3.036   5.998   3.283 -1.0385  0.4229  0.3662
 5757TIP3    H241467   3.023   5.964   3.430  1.1802 -1.1305  0.2496
 5758TIP3   OH241468   4.653   7.412   4.635 -0.5580  0.5049  0.7312
 5758TIP3    H141469   4.704   7.361   4.699  1.2271  0.3800 -0.6912
 5758TIP3    H241470   4.600   7.348   4.589 -0.9898  0.4427  1.3048
 5759TIP3   OH241471   5.041   2.097   3.073 -0.3518 -0.3983  0.3716
 5759TIP3    H141472   5.075   2.027   3.017  0.2522 -0.6578  1.0521
 5759TIP3    H241473   5.113   2.119   3.131 -0.4123  1.0612 -0.0775
 5760TIP3   OH241474   1.542   4.117   3.894  0.1370 -0.5206  0.6168
 5760TIP3    H141475   1.634   4.092   3.894 -0.2301 -1.9728  0.6014
 5760TIP3    H241476   1.500   4.055   3.954 -0.8386  0.1203  0.6340
 5761TIP3   OH241477   1.590   6.191   3.494 -0.1534 -0.2726  0.0827
 5761TIP3    H141478   1.649   6.119   3.515 -0.2394 -0.3468  0.0749
 5761TIP3    H241479   1.530   6.154   3.429  0.7181  0.2335 -1.0434
 5762TIP3   OH241480   3.342   7.565   3.199  0.4981 -0.0765 -0.6587
 5762TIP3    H141481   3.412   7.597   3.142  1.5553 -3.1593 -1.2871
 5762TIP3    H241482   3.386   7.505   3.259 -1.3234 -0.4614  0.3549
 5763TIP3   OH241483   2.377   0.689   3.217  0.0908  0.5592  0.0286
 5763TIP3    H141484   2.374   0.678   3.122 -0.6488  0.9338  0.0046
 5763TIP3    H241485   2.354   0.781   3.231 -1.4609  0.1051  0.6551
 5764TIP3   OH241486   0.580   2.358   2.986 -0.2273 -0.2830  0.4262
 5764TIP3    H141487   0.639   2.385   3.056  0.1885 -2.0517  0.8173
 5764TIP3    H241488   0.611   2.404   2.909  2.5111 -2.0696  0.3440
 5765TIP3   OH241489   7.063   7.434   3.171 -0.4967 -0.2587  0.0109
 5765TIP3    H141490   7.112   7.509   3.136 -1.0217 -0.6328 -1.5868
 5765TIP3    H241491   6.973   7.448   3.141 -1.1459 -0.2712  1.7948
 5766TIP3   OH241492   0.415   1.836   4.256 -0.1876  1.1414 -0.0277
 5766TIP3    H141493   0.327   1.862   4.285 -0.4285  1.3064 -0.8846
 5766TIP3    H241494   0.465   1.827   4.337 -0.2515  3.6614  0.3617
 5767TIP3   OH241495   5.997   0.401   2.388  0.1814 -0.0955 -0.7112
 5767TIP3    H141496   6.092   0.409   2.396 -0.0008  3.5988 -0.1475
 5767TIP3    H241497   5.981   0.399   2.294  0.8034  0.3940 -0.8349
 5768TIP3   OH241498   4.351   7.163   3.860 -0.1346  0.3024  0.3111
 5768TIP3    H141499   4.436   7.182   3.899 -0.3035  0.4078  0.6237
 5768TIP3    H241500   4.370   7.150   3.767 -0.0464  2.2677  0.0194
 5769TIP3   OH241501   5.512   6.387   3.381 -0.1029  0.3519 -0.4957
 5769TIP3    H141502   5.524   6.300   3.342  1.3971  0.1584  0.3143
 5769TIP3    H241503   5.574   6.443   3.335  1.5981  0.1502  1.3899
 5770TIP3   OH241504   2.806   1.417   5.001 -0.8184 -0.2103 -0.1729
 5770TIP3    H141505   2.817   1.447   4.911  0.0999 -2.4868 -0.8996
 5770TIP3    H241506   2.861   1.476   5.053  0.0466  0.0571 -1.3475
 5771TIP3   OH241507   7.534   5.800   2.424  0.7984 -0.1962 -0.0664
 5771TIP3    H141508   7.535   5.725   2.365 -0.9774  0.2508 -0.7409
 5771TIP3    H241509   7.506   5.765   2.508  0.9340 -0.4550 -0.1304
 5772TIP3   OH241510   5.600   7.270   4.147  0.6063 -0.0914 -0.5113
 5772TIP3    H141511   5.552   7.335   4.198 -0.0846 -0.5391 -0.5783
 5772TIP3    H241512   5.613   7.311   4.061  0.9598  0.3006 -0.2729
 5773TIP3   OH241513   1.270   5.965   3.717 -0.8352 -0.0124  0.0657
 5773TIP3    H141514   1.214   5.995   3.645  0.1305  1.1733 -0.2226
 5773TIP3    H241515   1.209   5.949   3.789 -1.5832  1.0584 -0.2990
 5774TIP3   OH241516   2.489   3.157   1.746 -0.3682 -0.1081 -0.6085
 5774TIP3    H141517   2.420   3.137   1.809  0.0254 -1.3039 -0.5237
 5774TIP3    H241518   2.525   3.071   1.722  0.1545  0.3978 -1.7078
 5775TIP3   OH241519   3.533   7.464   2.646 -0.1581 -0.4968 -0.1954
 5775TIP3    H141520   3.592   7.427   2.581  1.2061 -0.3897  0.9319
 5775TIP3    H241521   3.445   7.441   2.616  0.5389 -2.3118 -0.9331
 5776TIP3   OH241522   4.025   6.109   2.007 -0.1931 -0.2772 -0.8177
 5776TIP3    H141523   4.018   6.194   2.050  0.4545 -0.2201 -0.8256
 5776TIP3    H241524   4.074   6.055   2.069 -1.0109 -0.7905 -0.6004
 5777TIP3   OH241525   4.978   6.402   4.921 -0.1239  0.5267  0.5862
 5777TIP3    H141526   4.993   6.324   4.867 -0.7400  0.4583  0.5138
 5777TIP3    H241527   4.905   6.379   4.978 -0.8526  1.3225  0.0070
 5778TIP3   OH241528   4.422   3.173   3.482 -0.2231  0.6732  0.4931
 5778TIP3    H141529   4.399   3.087   3.517  0.3363  0.1026 -0.5079
 5778TIP3    H241530   4.509   3.161   3.444 -0.9090  1.1904 -1.3171
 5779TIP3   OH241531   0.654   1.580   3.070 -0.0778  0.0311 -0.1705
 5779TIP3    H141532   0.631   1.643   3.001  1.4507 -0.0980 -0.8424
 5779TIP3    H241533   0.584   1.589   3.135  0.0223  2.3400 -0.3097
 5780TIP3   OH241534   6.385   2.830   3.047  0.1312  0.2905  0.2313
 5780TIP3    H141535   6.347   2.783   3.121  1.2910  0.4454  0.9463
 5780TIP3    H241536   6.479   2.811   3.052  0.2554  0.4340 -1.1086
 5781TIP3   OH241537   1.522   0.457   4.980  0.2459 -0.3057  0.3866
 5781TIP3    H141538   1.607   0.414   4.974  0.4264  0.2137 -2.5094
 5781TIP3    H241539   1.541   0.543   5.016  1.0152 -0.1008 -0.4767
 5782TIP3   OH241540   6.071   3.403   2.841  0.6225  0.0947  0.8341
 5782TIP3    H141541   6.056   3.472   2.906 -1.8314  0.0701  0.3720
 5782TIP3    H241542   6.025   3.327   2.875 -0.2953 -0.0622 -0.6582
 5783TIP3   OH241543   4.640   6.111   2.229  0.5006  0.3212  0.5115
 5783TIP3    H141544   4.608   6.049   2.163 -0.7015  3.6005 -2.2914
 5783TIP3    H241545   4.569   6.115   2.294 -0.2696  0.1560 -0.2933
 5784TIP3   OH241546   3.687   1.281   2.837 -0.2000 -0.0420  0.0040
 5784TIP3    H141547   3.771   1.321   2.812  1.9088 -3.2475  1.3718
 5784TIP3    H241548   3.681   1.294   2.932 -1.7423  0.8758 -0.1805
 5785TIP3   OH241549   5.126   7.093   5.364 -0.6477  0.0926 -0.1321
 5785TIP3    H141550   5.044   7.044   5.371 -0.0367 -1.1070 -1.0835
 5785TIP3    H241551   5.195   7.027   5.369  0.2485  1.0063 -0.0569
 5786TIP3   OH241552   1.458   5.076   2.176 -0.2952  0.5212  0.9253
 5786TIP3    H141553   1.504   4.995   2.153  0.2680  1.2169 -0.5319
 5786TIP3    H241554   1.451   5.074   2.271  0.2485 -0.9523  0.9487
 5787TIP3   OH241555   1.180   4.790   3.567 -0.5030  0.0373  0.0401
 5787TIP3    H141556   1.257   4.756   3.522 -1.3209 -1.0576 -0.5914
 5787TIP3    H241557   1.214   4.830   3.647  0.8997  1.3087 -1.1320
 5788TIP3   OH241558   3.042   3.631   3.821  1.2702  0.1113  0.4106
 5788TIP3    H141559   3.088   3.568   3.764  0.6154 -1.7631  1.8476
 5788TIP3    H241560   3.095   3.633   3.901  0.5081  0.2715  0.9173
 5789TIP3   OH241561   6.172   5.310   2.389 -0.3922 -0.4854 -0.0765
 5789TIP3    H141562   6.220   5.386   2.420 -1.6785  0.2253  0.2710
 5789TIP3    H241563   6.089   5.346   2.355 -0.6388 -1.6340 -0.7683
 5790TIP3   OH241564   2.017   3.359   3.978 -0.0043 -0.0038 -0.3915
 5790TIP3    H141565   2.071   3.407   3.915 -0.8264 -2.9230 -3.6105
 5790TIP3    H241566   2.077   3.297   4.019  0.2291  0.9084  0.6988
 5791TIP3   OH241567   0.491   5.994   4.570  0.3217 -0.3363  0.5136
 5791TIP3    H141568   0.469   6.048   4.646 -0.4371  0.1953 -0.0672
 5791TIP3    H241569   0.433   5.919   4.576 -1.3339  0.7675 -0.6861
 5792TIP3   OH241570   3.374   4.513   3.074 -0.0553 -0.0656  0.7388
 5792TIP3    H141571   3.365   4.531   2.980  0.2229 -1.8596  0.3279
 5792TIP3    H241572   3.380   4.599   3.115  0.6112  0.7431 -0.9802
 5793TIP3   OH241573   3.841   7.430   5.068 -1.1142  0.1219 -0.0547
 5793TIP3    H141574   3.785   7.421   5.145 -1.5572  0.9631 -0.2595
 5793TIP3    H241575   3.838   7.524   5.047 -1.2653 -0.1324 -1.2762
 5794TIP3   OH241576   7.318   4.167   3.057 -0.4127  0.1627 -0.2208
 5794TIP3    H141577   7.256   4.237   3.076 -1.8760 -1.0145 -0.5239
 5794TIP3    H241578   7.403   4.211   3.054 -0.8148  1.3756  2.9340
 5795TIP3   OH241579   2.666   7.099   3.181 -0.3119 -0.0892 -0.3281
 5795TIP3    H141580   2.705   7.014   3.203 -0.7348 -0.2895 -0.3464
 5795TIP3    H241581   2.732   7.142   3.127  0.5404  0.2009  0.8852
 5796TIP3   OH241582   5.262   3.872   2.826 -0.5609  0.4151 -0.0030
 5796TIP3    H141583   5.278   3.782   2.851 -0.1000  0.4753 -0.0628
 5796TIP3    H241584   5.350   3.908   2.811 -0.6123  1.3529  1.6646
 5797TIP3   OH241585   1.226   3.128   2.546 -0.1034  0.0782  0.1210
 5797TIP3    H141586   1.198   3.215   2.518  0.1459 -0.1735 -0.9232
 5797TIP3    H241587   1.318   3.139   2.572  0.1298 -0.0003 -0.6461
 5798TIP3   OH241588   4.991   6.068   3.207  0.1063 -0.5971 -0.2739
 5798TIP3    H141589   5.001   6.142   3.267  0.4459 -1.7759  1.1962
 5798TIP3    H241590   4.897   6.051   3.205 -0.2127  1.1409 -2.2711
 5799TIP3   OH241591   2.914   3.798   3.630  0.3260  0.2611  0.0625
 5799TIP3    H141592   2.959   3.741   3.692  0.7400 -0.2155 -0.6682
 5799TIP3    H241593   2.873   3.865   3.685 -1.3416 -1.4987  1.0678
 5800TIP3   OH241594   0.961   3.182   2.273  0.0624  0.7661  0.1989
 5800TIP3    H141595   0.978   3.230   2.354 -0.1054 -0.1375  0.7909
 5800TIP3    H241596   0.866   3.185   2.262 -0.2685 -1.5356  1.6452
 5801TIP3   OH241597   7.406   0.687   3.704  0.0635 -0.1760 -0.3091
 5801TIP3    H141598   7.466   0.618   3.733  0.1398  0.7565  1.9298
 5801TIP3    H241599   7.319   0.646   3.709  0.1728 -0.3452  0.3469
 5802TIP3   OH241600   0.399   1.742   3.791  0.5437 -0.1685 -0.0306
 5802TIP3    H141601   0.425   1.653   3.768 -1.6280 -1.1495  0.9675
 5802TIP3    H241602   0.431   1.754   3.881  0.0836 -0.3029  0.1572
 5803TIP3   OH241603   0.425   5.627   3.875  0.1301  0.2640  0.0132
 5803TIP3    H141604   0.467   5.567   3.814 -2.0964  0.2435 -1.6056
 5803TIP3    H241605   0.453   5.714   3.847  1.0385  0.1529  0.5337
 5804TIP3   OH241606   2.657   4.435   3.207 -0.3521 -0.0622 -0.7646
 5804TIP3    H141607   2.625   4.396   3.287  0.6449 -0.8473 -0.7234
 5804TIP3    H241608   2.609   4.392   3.137 -2.9632  2.2748 -0.5795
 5805TIP3   OH241609   0.140   5.370   4.186 -0.8835 -0.2038  0.1581
 5805TIP3    H141610   0.204   5.343   4.252 -1.1245  0.0390  0.4921
 5805TIP3    H241611   0.172   5.332   4.105 -0.6578 -0.6185  0.4406
 5806TIP3   OH241612   7.213   5.839   3.692 -0.2643 -0.1059 -0.0500
 5806TIP3    H141613   7.229   5.784   3.615  0.7855  0.9100 -0.5918
 5806TIP3    H241614   7.266   5.917   3.677 -0.4823  0.3646  1.4528
 5807TIP3   OH241615   1.703   2.390   3.030  0.0119  0.0478  0.0885
 5807TIP3    H141616   1.762   2.361   3.098 -2.4615 -1.0164  1.9303
 5807TIP3    H241617   1.682   2.311   2.980 -2.4710 -0.4159  1.6787
 5808TIP3   OH241618   2.160   5.927   3.048 -0.1214 -0.1872  0.2045
 5808TIP3    H141619   2.105   6.001   3.070 -1.0971 -1.1652  1.1717
 5808TIP3    H241620   2.150   5.866   3.121  1.5329 -0.7999 -0.0249
 5809TIP3   OH241621   2.774   3.534   2.524 -0.1717 -0.5973  0.2117
 5809TIP3    H141622   2.819   3.490   2.596 -0.9523 -0.2885  0.9125
 5809TIP3    H241623   2.838   3.596   2.490 -0.4119  0.7343  2.0042
 5810TIP3   OH241624   7.627   6.558   3.313 -0.4193 -0.5410  0.1838
 5810TIP3    H141625   7.637   6.469   3.279 -0.5195 -0.6173  0.3503
 5810TIP3    H241626   7.583   6.606   3.243  0.6156 -0.3432 -0.3394
 5811TIP3   OH241627   6.384   3.347   4.339 -0.0254 -0.2796  0.0850
 5811TIP3    H141628   6.422   3.433   4.357  0.6418  0.3228 -3.4000
 5811TIP3    H241629   6.447   3.285   4.375 -0.0698  0.6407  1.8651
 5812TIP3   OH241630   5.800   1.425   2.466  0.0773  0.2833  0.3058
 5812TIP3    H141631   5.812   1.331   2.478  1.1156  0.3619  0.0161
 5812TIP3    H241632   5.707   1.440   2.481 -0.2918 -0.9413 -0.6579
 5813TIP3   OH241633   1.360   2.170   3.082  0.3987  0.0648 -0.3612
 5813TIP3    H141634   1.286   2.227   3.103  1.1552  0.3265  1.8173
 5813TIP3    H241635   1.342   2.140   2.993 -2.4903 -0.1333  0.1893
 5814TIP3   OH241636   0.004   7.193   3.188 -0.7437  0.0062  0.5141
 5814TIP3    H141637   0.017   7.106   3.150 -1.7918  0.8783 -2.1002
 5814TIP3    H241638   0.086   7.239   3.171 -0.5585 -0.1464  0.9780
 5815TIP3   OH241639   3.208   2.542   4.125  0.4866  0.0223 -0.6212
 5815TIP3    H141640   3.241   2.591   4.201 -1.5262  2.1768 -1.0352
 5815TIP3    H241641   3.122   2.580   4.108 -0.4448 -2.5339 -2.1059
 5816TIP3   OH241642   2.616   6.427   4.269  0.1533 -0.9737 -0.6383
 5816TIP3    H141643   2.685   6.364   4.247  0.7137  0.7098 -4.2896
 5816TIP3    H241644   2.654   6.479   4.340  1.5274 -1.7638 -0.7582
 5817TIP3   OH241645   1.125   0.307   3.654  0.0802 -0.1997 -0.0404
 5817TIP3    H141646   1.188   0.371   3.619 -0.0175  1.1387  2.0451
 5817TIP3    H241647   1.046   0.358   3.670 -0.1082 -0.8957  1.3528
 5818TIP3   OH241648   2.413   2.776   2.757 -0.2797  0.1745  0.1477
 5818TIP3    H141649   2.358   2.832   2.811 -0.2419  0.2459  0.1120
 5818TIP3    H241650   2.419   2.821   2.673 -1.6933 -0.7354 -0.4748
 5819TIP3   OH241651   4.704   3.101   4.292 -0.0281  0.0520 -0.5815
 5819TIP3    H141652   4.798   3.087   4.280  0.2906  1.6438 -0.0921
 5819TIP3    H241653   4.669   3.108   4.203  0.6493  1.4036 -0.7697
 5820TIP3   OH241654   2.123   2.338   3.561 -0.2724 -0.2386  0.2807
 5820TIP3    H141655   2.208   2.294   3.558 -0.8804 -1.3650 -1.1404
 5820TIP3    H241656   2.145   2.431   3.548  0.7084 -0.5506 -0.4351
 5821TIP3   OH241657   6.527   5.423   3.259  0.0581  0.3360  0.4118
 5821TIP3    H141658   6.478   5.389   3.184 -1.2102 -0.7485  1.6727
 5821TIP3    H241659   6.617   5.427   3.228 -0.5098  0.4652 -1.3450
 5822TIP3   OH241660   2.474   2.064   4.033  0.0708 -0.0013  0.2747
 5822TIP3    H141661   2.451   2.152   4.003  1.5169  0.6349  0.9846
 5822TIP3    H241662   2.430   2.006   3.970 -0.8332  1.2053 -0.2528
 5823TIP3   OH241663   2.871   5.292   3.056 -0.9000  0.7601 -0.0343
 5823TIP3    H141664   2.875   5.251   2.969 -0.9493  1.2146 -0.2536
 5823TIP3    H241665   2.839   5.223   3.113  2.0860 -0.5414  0.2470
 5824TIP3   OH241666   5.144   2.490   3.458  0.4851  0.1860 -0.3230
 5824TIP3    H141667   5.140   2.402   3.494 -1.3186  0.4488  0.1979
 5824TIP3    H241668   5.053   2.519   3.454  0.8658  1.3451 -2.2166
 5825TIP3   OH241669   0.003   7.368   2.652 -0.3486 -0.2048  0.7357
 5825TIP3    H141670   0.041   7.446   2.691  2.2055 -0.0532 -1.7732
 5825TIP3    H241671   0.056   7.295   2.685  0.4767 -0.2879 -0.6822
 5826TIP3   OH241672   2.177   7.281   2.429  0.5682  0.0614 -0.0050
 5826TIP3    H141673   2.083   7.297   2.433  0.5215 -0.3395  0.7047
 5826TIP3    H241674   2.185   7.195   2.387  0.7354  1.0314 -2.0981
 5827TIP3   OH241675   2.147   6.391   3.325  0.0333 -0.5421 -0.1470
 5827TIP3    H141676   2.199   6.373   3.246  1.5472  1.1586  0.3913
 5827TIP3    H241677   2.203   6.362   3.397 -0.2603  0.2049  0.3940
 5828TIP3   OH241678   0.470   6.529   2.929  0.2821 -0.3695  0.5815
 5828TIP3    H141679   0.414   6.529   3.007 -0.1639  2.1153  0.3230
 5828TIP3    H241680   0.503   6.618   2.922  2.1485 -1.0841 -0.8393
 5829TIP3   OH241681   1.070   6.849   2.741  0.5724  0.4681  0.9176
 5829TIP3    H141682   1.001   6.902   2.702 -0.2545 -1.6434 -0.7281
 5829TIP3    H241683   1.025   6.794   2.805  0.6488 -0.9728 -0.2180
 5830TIP3   OH241684   7.256   4.257   3.861 -0.3583  0.2111 -0.2024
 5830TIP3    H141685   7.181   4.244   3.803  1.4213  1.0373 -2.9447
 5830TIP3    H241686   7.280   4.169   3.890 -0.3918 -0.4752 -2.0938
 5831TIP3   OH241687   5.715   7.447   3.181 -0.1421  0.2311  0.4395
 5831TIP3    H141688   5.768   7.489   3.114 -0.8783 -0.3216 -0.5168
 5831TIP3    H241689   5.697   7.516   3.245  0.0839  0.9181 -0.2238
 5832TIP3   OH241690   2.373   1.836   2.985  0.1542  0.2427  0.6645
 5832TIP3    H141691   2.437   1.868   2.922  1.6396 -2.0750  0.8761
 5832TIP3    H241692   2.288   1.852   2.943  1.0056  0.4382 -1.0885
 5833TIP3   OH241693   7.214   5.070   4.660 -0.3404 -0.1163 -0.6760
 5833TIP3    H141694   7.213   5.155   4.617  0.1552  0.8146  1.0668
 5833TIP3    H241695   7.265   5.014   4.602  1.0911  1.3373 -0.8824
 5834TIP3   OH241696   5.185   3.413   2.312  0.0871 -0.4010  0.0312
 5834TIP3    H141697   5.124   3.343   2.291  0.1261 -0.4747  0.1604
 5834TIP3    H241698   5.167   3.482   2.248  2.0616 -1.6895 -2.0671
 5835TIP3   OH241699   6.020   1.003   3.289  0.5899 -0.2662 -0.0619
 5835TIP3    H141700   5.969   1.031   3.213 -0.7793 -1.8427  0.2307
 5835TIP3    H241701   6.072   1.080   3.312 -0.7885  1.0335 -1.0911
 5836TIP3   OH241702   0.919   5.417   3.242 -0.1023 -0.1545  0.1093
 5836TIP3    H141703   0.972   5.378   3.172 -0.8293  0.5207 -0.8422
 5836TIP3    H241704   0.983   5.465   3.296  0.6674 -1.8623  0.7708
 5837TIP3   OH241705   2.181   6.439   4.186 -0.4191 -0.5808 -0.5461
 5837TIP3    H141706   2.153   6.417   4.097  0.0693 -0.2739 -0.7784
 5837TIP3    H241707   2.141   6.524   4.203 -0.8269 -0.8119 -0.3227
 5838TIP3   OH241708   5.936   7.433   3.753 -0.0231 -0.2458 -0.0614
 5838TIP3    H141709   5.862   7.490   3.731 -1.6600 -1.5850  1.6605
 5838TIP3    H241710   5.977   7.475   3.828  0.8881  0.3890 -0.8910
 5839TIP3   OH241711   4.085   6.560   3.566 -0.6108  0.2237 -0.1279
 5839TIP3    H141712   4.000   6.600   3.589 -1.4517 -1.3683 -0.2964
 5839TIP3    H241713   4.119   6.615   3.496 -1.3363  1.1061  0.1867
 5840TIP3   OH241714   1.499   6.839   4.297  0.2619 -0.0145 -0.1124
 5840TIP3    H141715   1.498   6.900   4.223 -0.2452  1.0034  0.7209
 5840TIP3    H241716   1.415   6.852   4.341  0.2635 -1.1183  0.2420
 5841TIP3   OH241717   3.720   0.285   3.363  0.2179 -0.4025  0.3997
 5841TIP3    H141718   3.789   0.352   3.362 -0.5115  0.3769  0.8672
 5841TIP3    H241719   3.678   0.295   3.448 -2.4440  1.2416 -0.9704
 5842TIP3   OH241720   0.164   3.290   2.865 -0.1158 -0.1999 -0.0807
 5842TIP3    H141721   0.069   3.295   2.877  0.0519  2.0921  0.8665
 5842TIP3    H241722   0.197   3.265   2.951  0.2879  2.6357  0.6839
 5843TIP3   OH241723   4.851   5.360   2.583 -0.0521  0.0130  0.0153
 5843TIP3    H141724   4.870   5.373   2.676  0.5748 -1.1374  0.0643
 5843TIP3    H241725   4.903   5.428   2.539  0.3876 -0.0371  0.4463
 5844TIP3   OH241726   6.655   2.912   3.315  0.2167 -0.5866  0.0881
 5844TIP3    H141727   6.664   2.944   3.404 -2.5801  0.3238  0.1508
 5844TIP3    H241728   6.689   2.983   3.260  0.1420 -0.3046  0.4039
 5845TIP3   OH241729   0.911   5.635   4.190 -0.0026 -0.1274 -0.7177
 5845TIP3    H141730   0.835   5.590   4.225 -1.4997  1.9333 -1.1375
 5845TIP3    H241731   0.958   5.668   4.267  0.6620 -1.6318 -0.4478
 5846TIP3   OH241732   3.191   4.084   4.121 -0.1189  0.6371 -0.3059
 5846TIP3    H141733   3.261   4.037   4.166  0.5768  1.6677 -0.2695
 5846TIP3    H241734   3.141   4.016   4.076  0.0970 -0.2519  0.7640
 5847TIP3   OH241735   5.736   2.819   2.548 -0.3250  0.0646  0.1916
 5847TIP3    H141736   5.724   2.773   2.465 -0.0223  0.0086  0.1773
 5847TIP3    H241737   5.725   2.752   2.615 -2.1512  0.4052  0.2755
 5848TIP3   OH241738   1.330   1.180   3.073 -0.1733 -0.3877 -0.4846
 5848TIP3    H141739   1.251   1.214   3.115 -1.9617 -0.7575 -3.2979
 5848TIP3    H241740   1.375   1.258   3.040 -0.0632 -0.2674 -0.0598
 5849TIP3   OH241741   3.081   2.710   2.041 -0.3878 -0.3007  0.0018
 5849TIP3    H141742   3.168   2.710   2.081  0.1619  0.9214 -1.1224
 5849TIP3    H241743   3.028   2.654   2.098  1.2902 -1.6038  0.3428
 5850TIP3   OH241744   6.138   7.458   2.543  0.3157  0.2264 -0.3986
 5850TIP3    H141745   6.125   7.399   2.469  0.0161  0.9635 -0.9469
 5850TIP3    H241746   6.229   7.486   2.537  0.3340  0.1699 -0.3891
 5851TIP3   OH241747   3.718   2.572   2.678 -0.1013  0.4970  0.0492
 5851TIP3    H141748   3.796   2.526   2.707 -0.4230  0.1505  0.3762
 5851TIP3    H241749   3.663   2.579   2.757  0.9146  3.5040  0.6048
 5852TIP3   OH241750   1.848   7.344   4.498 -0.2191 -0.5704  1.2187
 5852TIP3    H141751   1.816   7.386   4.419  2.2970  1.5173  1.2149
 5852TIP3    H241752   1.776   7.355   4.561 -1.0142  0.5774  0.1595
 5853TIP3   OH241753   7.458   7.138   2.928 -0.2740  0.3487 -0.0262
 5853TIP3    H141754   7.460   7.230   2.956  0.3381  0.9416 -1.8541
 5853TIP3    H241755   7.400   7.137   2.851  0.8994 -0.4780 -0.9522
 5854TIP3   OH241756   4.281   4.681   3.830  0.9839  0.2384  0.6041
 5854TIP3    H141757   4.369   4.675   3.792  1.0371  0.8324  0.6224
 5854TIP3    H241758   4.251   4.769   3.807  0.6286  0.2535  1.1130
 5855TIP3   OH241759   7.422   4.578   2.558 -0.1673 -0.6138 -0.3029
 5855TIP3    H141760   7.452   4.521   2.629 -1.7727 -1.3647 -0.1680
 5855TIP3    H241761   7.502   4.613   2.519  0.7802 -1.0692  1.1562
 5856TIP3   OH241762   0.806   1.349   3.101  0.2298  0.1377 -0.8103
 5856TIP3    H141763   0.741   1.417   3.088  0.3493  0.1416 -1.3910
 5856TIP3    H241764   0.861   1.353   3.023  0.9147  0.1265 -0.3385
 5857TIP3   OH241765   5.332   1.807   3.433 -0.3434 -0.9578  0.6882
 5857TIP3    H141766   5.338   1.715   3.457 -0.4489 -1.3593 -0.7571
 5857TIP3    H241767   5.241   1.819   3.405 -0.0681 -0.6917 -0.1481
 5858TIP3   OH241768   1.363   3.760   2.621  0.5207 -0.1140  0.1681
 5858TIP3    H141769   1.431   3.824   2.600  0.9128 -0.4674  0.3481
 5858TIP3    H241770   1.332   3.730   2.536  0.3843  0.2631  0.0836
 5859TIP3   OH241771   1.685   2.829   3.146  0.0026 -0.5457  0.2654
 5859TIP3    H141772   1.598   2.818   3.184 -1.0719  0.3050 -1.7941
 5859TIP3    H241773   1.683   2.777   3.066  0.8366  0.7184 -0.6162
 5860TIP3   OH241774   1.170   1.591   3.279 -0.0762 -0.8599 -0.2599
 5860TIP3    H141775   1.206   1.572   3.366 -2.1991  1.2318  1.2464
 5860TIP3    H241776   1.228   1.659   3.244 -0.0940 -0.5854  0.2299
 5861TIP3   OH241777   6.163   3.492   4.620  0.3955 -0.4269  0.0596
 5861TIP3    H141778   6.096   3.528   4.562  0.9912 -0.3899 -0.6205
 5861TIP3    H241779   6.224   3.564   4.634 -0.4735  0.0338  1.9392
 5862TIP3   OH241780   3.352   7.125   3.830  0.5287 -0.6012 -0.2206
 5862TIP3    H141781   3.421   7.190   3.821  0.2401 -0.2972 -0.2475
 5862TIP3    H241782   3.336   7.118   3.924  2.3593 -2.5378  0.0148
 5863TIP3   OH241783   4.080   5.182   4.117  0.0321 -0.0612 -0.1809
 5863TIP3    H141784   4.162   5.136   4.133 -0.0404  0.0967  0.6736
 5863TIP3    H241785   4.104   5.274   4.112  0.0571 -0.1065 -1.0501
 5864TIP3   OH241786   2.558   2.853   3.283  0.5507 -0.3007 -0.4458
 5864TIP3    H141787   2.547   2.931   3.337 -1.2585 -0.7230 -0.1158
 5864TIP3    H241788   2.564   2.886   3.193 -2.1879  0.2281 -0.5321
 5865TIP3   OH241789   3.892   1.723   3.986 -0.0464  0.1162  0.1573
 5865TIP3    H141790   3.928   1.644   4.027 -1.0396 -0.7079 -0.5211
 5865TIP3    H241791   3.942   1.733   3.905 -0.1466 -0.0004  0.0819
 5866TIP3   OH241792   0.203   2.914   3.295 -0.3219  0.3782 -0.1422
 5866TIP3    H141793   0.115   2.877   3.290 -1.4991  2.7664  0.9145
 5866TIP3    H241794   0.248   2.879   3.219 -1.8466 -1.7281 -0.1544
 5867TIP3   OH241795   1.921   1.257   2.437 -0.3781 -0.0050  0.2507
 5867TIP3    H141796   2.004   1.221   2.468  0.3207  0.9066 -0.5205
 5867TIP3    H241797   1.907   1.334   2.491 -0.4968  0.0963  0.0750
 5868TIP3   OH241798   3.151   1.057   4.011  0.8596  0.3710  0.4149
 5868TIP3    H141799   3.153   1.070   4.106 -1.4234  3.1830  0.2273
 5868TIP3    H241800   3.243   1.053   3.985  1.5788  1.7131  2.5292
 5869TIP3   OH241801   6.357   1.604   4.107 -0.0285 -0.2620 -0.4176
 5869TIP3    H141802   6.405   1.675   4.064  1.5359 -0.8942  0.2327
 5869TIP3    H241803   6.337   1.543   4.036 -0.2828  0.2241 -0.7707
 5870TIP3   OH241804   6.530   3.504   4.056 -0.6451 -0.0922 -0.1178
 5870TIP3    H141805   6.558   3.487   3.966 -0.1545 -0.2202  0.0607
 5870TIP3    H241806   6.449   3.554   4.046  0.3657  1.5083 -0.6282
 5871TIP3   OH241807   2.970   3.814   4.767 -0.0894 -0.2779 -0.4192
 5871TIP3    H141808   3.044   3.770   4.810  0.3953 -0.7377 -1.6933
 5871TIP3    H241809   2.893   3.766   4.798  0.1400  0.0535  0.7280
 5872TIP3   OH241810   6.975   5.173   4.415  0.0758 -0.3738  0.6070
 5872TIP3    H141811   6.919   5.124   4.475  0.0833  0.1992  1.0969
 5872TIP3    H241812   7.041   5.212   4.472  0.5578 -0.4768  0.1184
 5873TIP3   OH241813   2.744   1.877   2.799  0.3681  0.7149 -0.3853
 5873TIP3    H141814   2.692   1.922   2.865 -0.8571 -2.2233  0.8371
 5873TIP3    H241815   2.827   1.858   2.842 -0.8184 -2.1813  0.9474
 5874TIP3   OH241816   6.679   3.405   3.731 -0.5882 -0.1474  0.4334
 5874TIP3    H141817   6.651   3.496   3.722 -0.3050 -0.1192 -0.1840
 5874TIP3    H241818   6.669   3.368   3.644  0.6546 -0.3235  0.3491
 5875TIP3   OH241819   4.700   7.280   2.099 -0.2975  0.7980 -0.0854
 5875TIP3    H141820   4.751   7.360   2.086  1.1832 -0.4179 -2.3421
 5875TIP3    H241821   4.765   7.209   2.097 -1.3403 -0.5016  3.2654
 5876TIP3   OH241822   5.252   1.261   3.053 -0.1389  0.4121 -0.1347
 5876TIP3    H141823   5.240   1.240   2.961 -2.4438 -0.9387  0.3824
 5876TIP3    H241824   5.238   1.355   3.059 -2.1232  0.2143 -0.9413
 5877TIP3   OH241825   4.907   4.264   2.330 -0.3645  0.1459 -0.1088
 5877TIP3    H141826   4.863   4.179   2.330 -0.2771 -0.0561  3.3760
 5877TIP3    H241827   4.958   4.265   2.411  2.3239  2.2570 -1.6554
 5878TIP3   OH241828   2.202   5.365   4.283 -0.5598 -0.1803  0.2162
 5878TIP3    H141829   2.260   5.366   4.360 -3.2897 -2.4727  2.5133
 5878TIP3    H241830   2.172   5.456   4.276 -0.1538  0.1232  1.7933
 5879TIP3   OH241831   7.467   7.140   3.400  0.2906  0.0669 -0.8840
 5879TIP3    H141832   7.529   7.123   3.329  0.1731  0.1742 -1.0133
 5879TIP3    H241833   7.387   7.167   3.356 -0.7719 -2.7666 -0.8938
 5880TIP3   OH241834   5.848   6.254   4.179 -0.3348 -0.2670  0.6436
 5880TIP3    H141835   5.840   6.350   4.174 -1.9145 -0.4434 -1.6376
 5880TIP3    H241836   5.758   6.224   4.188  0.0860 -1.5723  0.5828
 5881TIP3   OH241837   0.261   4.179   3.825 -0.3381  0.3211  0.5997
 5881TIP3    H141838   0.279   4.219   3.740 -0.1262 -1.9772 -0.5075
 5881TIP3    H241839   0.301   4.239   3.888  2.2469  0.5633 -1.1034
 5882TIP3   OH241840   4.402   5.259   3.250  0.2930  0.0531 -0.0446
 5882TIP3    H141841   4.313   5.264   3.215  0.1049  0.2825  0.4598
 5882TIP3    H241842   4.452   5.215   3.181 -0.1729  0.0702 -0.4008
 5883TIP3   OH241843   0.971   6.845   3.991 -0.1707  0.3737 -0.0268
 5883TIP3    H141844   0.943   6.846   4.082 -0.1310 -0.1128 -0.0062
 5883TIP3    H241845   1.000   6.934   3.973 -1.3547  0.7925  0.0667
 5884TIP3   OH241846   1.248   4.438   2.682 -0.4308 -0.0838 -0.8160
 5884TIP3    H141847   1.188   4.436   2.608 -0.1919  0.3731 -1.0302
 5884TIP3    H241848   1.307   4.511   2.663  0.6200 -0.9256 -0.9506
 5885TIP3   OH241849   2.888   1.813   3.847  0.1312  0.1443  0.1881
 5885TIP3    H141850   2.959   1.753   3.823  0.0763 -0.3389  1.1880
 5885TIP3    H241851   2.867   1.791   3.937 -0.6633  0.9213  0.2109
 5886TIP3   OH241852   1.312   0.963   3.402  0.4258 -0.2096  1.0131
 5886TIP3    H141853   1.220   0.965   3.427  0.0864  1.2111 -0.1941
 5886TIP3    H241854   1.359   0.980   3.483 -0.3602 -0.9905  1.6489
 5887TIP3   OH241855   4.098   3.429   3.268  0.0924  0.0405  0.3680
 5887TIP3    H141856   4.135   3.401   3.184 -0.6651 -0.2970  0.1419
 5887TIP3    H241857   4.125   3.361   3.330  0.7446  0.3458  0.4335
 5888TIP3   OH241858   2.620   2.947   5.109  0.7390 -0.6388  0.1028
 5888TIP3    H141859   2.655   2.875   5.057  0.8234 -0.1290 -0.5542
 5888TIP3    H241860   2.691   2.970   5.169  1.1899 -0.2335 -0.5818
 5889TIP3   OH241861   3.681   5.299   2.777 -0.0289 -0.1412 -0.2370
 5889TIP3    H141862   3.627   5.238   2.727  0.0980 -1.0432  0.6747
 5889TIP3    H241863   3.719   5.245   2.847  1.6405  0.5648 -0.5391
 5890TIP3   OH241864   1.730   6.002   3.006 -0.7114 -0.4597  0.0478
 5890TIP3    H141865   1.662   6.020   2.940 -0.4370 -2.0753 -0.7155
 5890TIP3    H241866   1.710   6.063   3.077 -2.6105 -0.4947 -0.3922
 5891TIP3   OH241867   7.109   4.640   3.640 -0.0260  0.4852 -0.0647
 5891TIP3    H141868   7.167   4.691   3.697 -0.3430  1.0390 -0.2298
 5891TIP3    H241869   7.041   4.702   3.614 -0.2878  0.0354 -0.4577
 5892TIP3   OH241870   0.531   7.297   3.879 -0.2842 -0.2523 -0.7717
 5892TIP3    H141871   0.544   7.203   3.885 -1.7561 -0.4340  0.1090
 5892TIP3    H241872   0.436   7.309   3.882 -0.1125  1.3291  0.6850
 5893TIP3   OH241873   7.034   1.080   2.749  0.2508  0.0339  0.3066
 5893TIP3    H141874   7.072   1.115   2.668 -0.6139 -1.1218 -0.6283
 5893TIP3    H241875   6.953   1.129   2.761 -0.9152 -1.4572 -0.9553
 5894TIP3   OH241876   3.540   5.128   3.461 -0.8142 -0.2574 -0.2391
 5894TIP3    H141877   3.470   5.178   3.420 -0.8684  0.1964  0.3878
 5894TIP3    H241878   3.499   5.087   3.537 -0.0783  1.2757  1.0516
 5895TIP3   OH241879   5.426   1.296   3.589  0.0444  0.1626  0.1282
 5895TIP3    H141880   5.516   1.277   3.565  0.2486  1.7362 -0.4863
 5895TIP3    H241881   5.432   1.336   3.676 -0.1986 -0.8534  0.6258
 5896TIP3   OH241882   0.548   2.960   2.317  0.0148 -0.2852  0.7213
 5896TIP3    H141883   0.612   3.026   2.343  0.8590 -1.4214  1.6598
 5896TIP3    H241884   0.487   3.006   2.259  0.2693  1.4236  1.7628
 5897TIP3   OH241885   4.793   0.426   3.776  0.1906 -0.2621 -0.2082
 5897TIP3    H141886   4.749   0.342   3.773 -2.0205  0.8106  0.1900
 5897TIP3    H241887   4.886   0.406   3.761 -0.4158 -2.6174 -1.1400
 5898TIP3   OH241888   5.689   0.447   3.108  0.0935 -0.3217 -0.1826
 5898TIP3    H141889   5.695   0.384   3.179  1.0953 -0.6434 -0.5382
 5898TIP3    H241890   5.655   0.396   3.034 -0.0802 -0.2037 -0.1837
 5899TIP3   OH241891   1.492   2.385   3.222  0.4595 -0.6168  0.6292
 5899TIP3    H141892   1.515   2.411   3.133 -3.8698  1.2769 -0.2143
 5899TIP3    H241893   1.453   2.298   3.212  0.6114 -0.7102  0.8271
 5900TIP3   OH241894   4.324   6.937   3.270 -0.1659  0.4617  0.3505
 5900TIP3    H141895   4.243   6.986   3.254 -0.4259  0.3381  1.2186
 5900TIP3    H241896   4.295   6.857   3.314  0.2258 -0.6153 -1.2803
 5901TIP3   OH241897   7.440   4.911   4.502  0.4189 -0.0300  0.4605
 5901TIP3    H141898   7.469   4.834   4.454 -1.7147 -2.1055  2.2795
 5901TIP3    H241899   7.385   4.959   4.439  0.1659 -1.0570 -0.1325
 5902TIP3   OH241900   4.230   4.014   2.833  0.0734  0.1711  0.1276
 5902TIP3    H141901   4.178   3.950   2.882  1.2627 -1.1708 -0.2942
 5902TIP3    H241902   4.220   3.987   2.741  0.8531  0.3855 -0.0301
 5903TIP3   OH241903   3.042   3.267   2.321 -0.0942  0.1096 -0.1958
 5903TIP3    H141904   3.001   3.333   2.266 -0.4994 -0.7521 -0.9642
 5903TIP3    H241905   3.127   3.251   2.280 -1.1496 -1.9172 -1.7919
 5904TIP3   OH241906   0.522   5.849   2.838 -0.3176 -0.1792  0.7616
 5904TIP3    H141907   0.472   5.830   2.759  0.6727 -1.1808  0.3596
 5904TIP3    H241908   0.490   5.935   2.866  1.0702  1.3974 -2.1271
 5905TIP3   OH241909   6.612   0.008   2.465 -0.0747 -0.2366 -0.3791
 5905TIP3    H141910   6.628   0.092   2.508 -2.3172  0.3674 -0.5593
 5905TIP3    H241911   6.614   0.028   2.372  0.5101 -0.6374 -0.4571
 5906TIP3   OH241912   5.359   4.699   4.443 -0.1564  0.6169 -0.4674
 5906TIP3    H141913   5.396   4.752   4.372  0.5238  1.7482  0.6860
 5906TIP3    H241914   5.430   4.693   4.507 -1.9080  2.9818  1.9115
 5907TIP3   OH241915   3.236   2.385   4.822 -0.3583 -0.5272 -0.2016
 5907TIP3    H141916   3.281   2.305   4.847  0.0978 -0.9951 -2.2827
 5907TIP3    H241917   3.207   2.369   4.732  0.6773  1.9963 -1.0850
 5908TIP3   OH241918   7.017   5.623   3.049 -0.0007  0.0017  0.1265
 5908TIP3    H141919   7.037   5.669   3.130  0.6616 -0.2537  0.1081
 5908TIP3    H241920   7.097   5.576   3.027  0.1353  0.7833 -1.1607
 5909TIP3   OH241921   0.172   7.462   4.505 -0.5125 -0.1530 -0.5446
 5909TIP3    H141922   0.216   7.416   4.577 -0.8644 -1.8801 -1.3919
 5909TIP3    H241923   0.177   7.402   4.431 -2.2483  0.5673 -1.3074
 5910TIP3   OH241924   2.948   3.542   4.539 -0.6221  0.1819  0.2237
 5910TIP3    H141925   2.923   3.537   4.632 -0.7199 -2.4455  0.1482
 5910TIP3    H241926   3.017   3.476   4.530  1.3669  2.3130 -1.0673
 5911TIP3   OH241927   1.317   7.400   3.124 -0.0033 -0.7475  0.2729
 5911TIP3    H141928   1.338   7.377   3.215 -2.9217 -2.0123  0.7393
 5911TIP3    H241929   1.360   7.331   3.072  0.6857 -0.7129  0.7874
 5912TIP3   OH241930   1.803   5.601   3.555  0.3782  0.5117 -0.1200
 5912TIP3    H141931   1.871   5.574   3.494 -1.7379 -0.9325 -2.0142
 5912TIP3    H241932   1.794   5.526   3.615 -0.7198 -0.0864 -1.0020
 5913TIP3   OH241933   2.243   2.249   2.748  0.0174 -0.3098  0.4174
 5913TIP3    H141934   2.314   2.299   2.708  0.2959  0.2189  1.5212
 5913TIP3    H241935   2.222   2.297   2.828 -0.9748 -0.9573  0.5652
 5914TIP3   OH241936   1.820   1.688   3.332  0.7765 -0.3267  0.1078
 5914TIP3    H141937   1.728   1.672   3.314  0.8672 -0.1950 -0.5109
 5914TIP3    H241938   1.831   1.783   3.323  0.9510 -0.3266  0.2905
 5915TIP3   OH241939   3.752   3.578   2.674  0.5712  0.2140 -0.5256
 5915TIP3    H141940   3.748   3.527   2.593  2.8744 -0.5468 -0.2504
 5915TIP3    H241941   3.833   3.628   2.666 -0.5196  2.2048  0.1833
 5916TIP3   OH241942   2.557   0.477   3.233 -0.5112 -0.3755 -0.1637
 5916TIP3    H141943   2.499   0.554   3.236  1.5722  1.2686 -0.1435
 5916TIP3    H241944   2.566   0.451   3.325  0.7809  0.9724  0.1189
 5917TIP3   OH241945   2.682   5.551   2.669 -0.2403  0.0784 -0.1775
 5917TIP3    H141946   2.753   5.510   2.620  1.9565 -0.3624  3.0391
 5917TIP3    H241947   2.613   5.484   2.671 -0.1835 -0.0876 -2.0717
 5918TIP3   OH241948   6.523   7.283   3.163  0.3994 -0.1209 -0.1038
 5918TIP3    H141949   6.524   7.309   3.071 -0.4477  0.7441  0.1063
 5918TIP3    H241950   6.430   7.280   3.186  0.4868 -2.6831  0.1117
 5919TIP3   OH241951   0.272   4.057   3.465 -0.2280  0.5690 -0.2618
 5919TIP3    H141952   0.204   4.060   3.398 -1.8499  1.3303  1.3185
 5919TIP3    H241953   0.279   4.148   3.496  0.8287  0.3214  0.2952
 5920TIP3   OH241954   1.220   2.595   3.242 -0.4031 -0.2459  0.0810
 5920TIP3    H141955   1.244   2.534   3.173 -0.4350 -0.1243 -0.0374
 5920TIP3    H241956   1.293   2.591   3.304 -0.3747 -0.3541  0.0408
 5921TIP3   OH241957   1.369   0.921   3.801  0.0078 -0.5622 -0.2746
 5921TIP3    H141958   1.442   0.964   3.846  0.3129 -1.7346  0.3920
 5921TIP3    H241959   1.401   0.907   3.712  0.3921 -0.5909 -0.1335
 5922TIP3   OH241960   1.720   7.071   3.529  0.5295 -0.2014  0.3705
 5922TIP3    H141961   1.747   7.103   3.615  0.9413 -2.2914  1.0766
 5922TIP3    H241962   1.628   7.046   3.541 -0.9133  3.5664 -1.0780
 5923TIP3   OH241963   3.248   6.744   3.419  0.4113 -0.4747  0.2705
 5923TIP3    H141964   3.229   6.833   3.448  0.2641 -0.2236 -0.5706
 5923TIP3    H241965   3.301   6.706   3.489  1.0489  0.4938  0.3171
 5924TIP3   OH241966   3.561   7.616   4.397  0.0421 -0.2976 -0.9785
 5924TIP3    H141967   3.565   7.703   4.436 -0.6970 -0.7699  0.2076
 5924TIP3    H241968   3.478   7.616   4.348  0.2781 -0.1769 -1.3801
 5925TIP3   OH241969   1.819   4.751   4.417  0.3035 -0.3080 -0.1405
 5925TIP3    H141970   1.846   4.659   4.414 -1.1743 -0.7857  0.4422
 5925TIP3    H241971   1.887   4.797   4.368  2.0751 -1.4476  1.1451
 5926TIP3   OH241972   2.595   2.767   2.234  0.3053  0.1600 -0.7665
 5926TIP3    H141973   2.561   2.758   2.145 -2.8171 -0.5692  0.3873
 5926TIP3    H241974   2.608   2.677   2.264 -0.8949  0.2952  0.2443
 5927TIP3   OH241975   6.387   4.645   3.431 -0.0823 -0.0059  0.0712
 5927TIP3    H141976   6.428   4.564   3.459  0.9202  0.6415  0.5519
 5927TIP3    H241977   6.352   4.684   3.511  2.9699  1.9505  0.6414
 5928TIP3   OH241978   6.343   0.816   3.716 -0.0432  0.2305  0.1362
 5928TIP3    H141979   6.393   0.862   3.648  0.6325 -1.4028 -0.5173
 5928TIP3    H241980   6.261   0.793   3.673  0.6681 -1.4368 -0.4185
 5929TIP3   OH241981   3.836   4.288   2.957 -0.0045 -0.1281 -0.4462
 5929TIP3    H141982   3.920   4.247   2.935  0.6068 -1.0805  3.0099
 5929TIP3    H241983   3.773   4.217   2.954 -0.1748  0.0244 -0.4908
 5930TIP3   OH241984   5.283   3.055   2.311 -0.2601 -0.2227  0.0172
 5930TIP3    H141985   5.311   2.965   2.328 -1.1521 -0.3943  0.6480
 5930TIP3    H241986   5.189   3.054   2.325 -0.5737  0.4128 -1.7393
 5931TIP3   OH241987   6.439   5.931   3.054 -0.3810 -0.2322  0.2203
 5931TIP3    H141988   6.365   5.930   2.994  0.8903 -1.4728 -1.4024
 5931TIP3    H241989   6.426   5.854   3.110 -1.7230  1.0856  1.8629
 5932TIP3   OH241990   0.940   5.788   3.638  0.2211 -0.0755 -0.1597
 5932TIP3    H141991   0.951   5.693   3.635 -0.3212 -0.1535  0.2507
 5932TIP3    H241992   0.992   5.816   3.714 -2.1909 -0.4421  1.7670
 5933TIP3   OH241993   4.545   6.297   2.702  0.0213  0.5973  0.5654
 5933TIP3    H141994   4.516   6.324   2.615  2.2728  0.5815 -0.2534
 5933TIP3    H241995   4.510   6.208   2.712  1.7851 -0.4269 -1.4598
 5934TIP3   OH241996   3.230   1.199   2.719 -0.0436 -0.2022 -0.0298
 5934TIP3    H141997   3.300   1.254   2.754 -0.9891 -0.1274  1.8389
 5934TIP3    H241998   3.156   1.212   2.779 -0.5973 -2.8376 -0.0110
 5935TIP3   OH241999   0.566   5.936   3.309 -0.0734  0.1321 -0.3731
 5935TIP3    H142000   0.657   5.907   3.306  0.0491  0.4476  0.1514
 5935TIP3    H242001   0.522   5.871   3.365  0.3075  1.1821  1.2324
 5936TIP3   OH242002   5.733   2.447   2.194 -0.3119 -0.6352  0.0129
 5936TIP3    H142003   5.788   2.373   2.168  1.5284  1.2015 -1.7310
 5936TIP3    H242004   5.645   2.423   2.165  0.4523 -1.6631 -1.5892
 5937TIP3   OH242005   2.989   4.235   2.363 -0.3616  0.6892 -0.1128
 5937TIP3    H142006   2.968   4.154   2.318 -0.1749 -0.1492  1.2406
 5937TIP3    H242007   2.946   4.303   2.312  0.3773 -0.1215 -1.8927
 5938TIP3   OH242008   2.342   0.339   2.954  0.0553 -0.1048  0.3472
 5938TIP3    H142009   2.281   0.283   2.907 -1.0489  0.5704  0.9123
 5938TIP3    H242010   2.365   0.290   3.033  0.9176 -0.7085 -0.2649
 5939TIP3   OH242011   4.001   0.718   3.989 -0.0879  0.6040 -0.1278
 5939TIP3    H142012   4.004   0.705   4.084 -0.2379  1.7835  0.0483
 5939TIP3    H242013   3.909   0.705   3.966  0.2093 -1.3094 -0.3778
 5940TIP3   OH242014   0.867   2.871   3.357  0.6465 -0.1737  0.0819
 5940TIP3    H142015   0.848   2.779   3.341  1.3156 -0.1648 -0.8049
 5940TIP3    H242016   0.787   2.917   3.331 -0.7988 -0.6861  3.2035
 5941TIP3   OH242017   1.310   6.679   2.407  0.0303 -0.1183  0.7223
 5941TIP3    H142018   1.284   6.648   2.494 -0.5856 -1.0127  0.2334
 5941TIP3    H242019   1.393   6.724   2.422  0.1340 -0.6095  1.7163
 5942TIP3   OH242020   2.748   3.276   1.769 -0.7269  0.1935 -0.1278
 5942TIP3    H142021   2.656   3.252   1.765 -0.4694 -1.0321  0.7341
 5942TIP3    H242022   2.784   3.221   1.839  0.9709 -0.4223 -1.4367
 5943TIP3   OH242023   2.689   2.660   3.491  0.1221 -0.0144 -0.6773
 5943TIP3    H142024   2.739   2.704   3.560  0.7991 -0.7500 -0.6815
 5943TIP3    H242025   2.615   2.719   3.473 -0.3949 -0.0718  1.0731
 5944TIP3   OH242026   2.649   0.821   3.344  0.8118 -0.5733 -0.2012
 5944TIP3    H142027   2.580   0.761   3.317  0.8823 -1.1336  0.8213
 5944TIP3    H242028   2.618   0.907   3.315  0.9946 -1.1362 -2.2253
 5945TIP3   OH242029   1.040   6.772   2.377  0.2925  0.0554  0.1120
 5945TIP3    H142030   1.129   6.759   2.345  0.0317 -0.4030 -0.4299
 5945TIP3    H242031   1.019   6.690   2.423 -0.0758 -0.0806 -0.2961
 5946TIP3   OH242032   3.099   2.606   2.611 -0.4152  0.1236 -0.0124
 5946TIP3    H142033   3.122   2.681   2.666 -0.4015 -0.3987  0.6986
 5946TIP3    H242034   3.155   2.535   2.641 -1.1074 -0.4387 -0.0288
 5947TIP3   OH242035   5.814   6.616   2.305  0.0161  0.2421  0.1317
 5947TIP3    H142036   5.762   6.560   2.247 -0.4338  1.5345 -0.7546
 5947TIP3    H242037   5.751   6.648   2.370 -0.1102  1.0321 -0.3644
 5948TIP3   OH242038   2.398   3.368   3.507  0.8132 -0.0316 -0.0963
 5948TIP3    H142039   2.402   3.426   3.430 -0.1681  0.9213  0.5362
 5948TIP3    H242040   2.305   3.350   3.518  0.9831 -0.5080  0.6093
 5949TIP3   OH242041   2.430   6.665   2.361 -0.1770 -0.4309  0.0849
 5949TIP3    H142042   2.511   6.627   2.330  0.6613  1.5837 -0.3344
 5949TIP3    H242043   2.408   6.614   2.440  3.1806  0.8756  2.0623
 5950TIP3   OH242044   3.098   0.411   4.294 -0.3333 -0.0358  0.1960
 5950TIP3    H142045   3.192   0.404   4.312 -0.3544 -3.2642 -0.4170
 5950TIP3    H242046   3.063   0.457   4.371  1.3816 -1.3353  1.8671
 5951TIP3   OH242047   4.145   2.644   4.678  0.5725 -0.1063  0.2383
 5951TIP3    H142048   4.208   2.613   4.744 -0.2054  0.2015  1.1520
 5951TIP3    H242049   4.148   2.578   4.609  0.3037 -1.2445  1.2874
 5952TIP3   OH242050   0.990   1.211   4.282  0.8129 -0.6510 -0.2887
 5952TIP3    H142051   0.940   1.148   4.334  0.0835 -0.0312 -0.2207
 5952TIP3    H242052   0.996   1.288   4.339  2.3114 -0.8982 -0.0860
 5953TIP3   OH242053   5.148   4.191   3.489  0.1112 -0.4608  0.0022
 5953TIP3    H142054   5.092   4.114   3.483  0.0189 -0.4247  0.3719
 5953TIP3    H242055   5.171   4.197   3.582 -0.3166  0.2643  0.0744
 5954TIP3   OH242056   5.728   3.959   3.492 -0.3010 -0.1741  0.1442
 5954TIP3    H142057   5.788   3.964   3.566 -0.8029 -0.1986  0.5618
 5954TIP3    H242058   5.734   4.044   3.450  0.7203 -0.4935 -0.3726
 5955TIP3   OH242059   1.718   2.014   4.304  0.5485  0.1298 -0.0752
 5955TIP3    H142060   1.664   1.959   4.361 -3.0158  1.2443 -2.0755
 5955TIP3    H242061   1.734   1.960   4.227 -1.2389  1.0783 -1.1773
 5956TIP3   OH242062   0.016   1.461  10.887  0.1600  0.8606  0.5839
 5956TIP3    H142063  -0.017   1.508  10.811 -0.3402  0.2957  0.4531
 5956TIP3    H242064  -0.059   1.452  10.945  0.3155  0.4596  0.7300
 5957TIP3   OH242065   2.534   4.290   2.439 -0.2079 -0.5179  0.4276
 5957TIP3    H142066   2.444   4.274   2.466 -0.4876  0.4862  0.1105
 5957TIP3    H242067   2.551   4.224   2.372 -0.4964 -1.0993  0.9140
 5958TIP3   OH242068   3.139   6.866   4.404  0.1861 -0.3072  0.4175
 5958TIP3    H142069   3.180   6.859   4.490 -1.4304 -1.3098  1.1561
 5958TIP3    H242070   3.117   6.958   4.394  0.8326 -0.1023  0.8559
 5959TIP3   OH242071   2.472   1.439   3.971  0.0312 -0.0845 -0.0437
 5959TIP3    H142072   2.487   1.532   3.955  0.5897 -0.4594 -1.9694
 5959TIP3    H242073   2.560   1.400   3.965 -0.4659 -1.0468 -1.9116
 5960TIP3   OH242074   6.272   6.211   4.717  0.1631 -0.2379  0.3094
 5960TIP3    H142075   6.323   6.257   4.784  1.4109 -0.8456 -0.1928
 5960TIP3    H242076   6.189   6.191   4.760  0.7079 -0.0728  1.4846
 5961TIP3   OH242077   5.354   2.943   4.640  0.2373 -0.1769  0.7060
 5961TIP3    H142078   5.299   2.922   4.565  0.0458 -0.7353  0.9979
 5961TIP3    H242079   5.391   2.859   4.668  1.4322  0.2133  0.3769
 5962TIP3   OH242080   5.785   0.617   2.449  0.2106  0.1477 -0.5652
 5962TIP3    H142081   5.751   0.585   2.532 -0.2812 -0.6044 -1.0453
 5962TIP3    H242082   5.842   0.546   2.418 -0.5517 -0.0933 -1.4391
 5963TIP3   OH242083   0.309   1.137   4.169 -0.0576 -0.1869 -0.1850
 5963TIP3    H142084   0.237   1.182   4.213  0.2743 -1.6158  1.9187
 5963TIP3    H242085   0.270   1.058   4.133  0.4271 -0.9517  0.9330
 5964TIP3   OH242086   2.173   6.521   2.270 -0.4659 -0.0793 -0.0194
 5964TIP3    H142087   2.120   6.570   2.207  1.3710 -0.0154 -1.5859
 5964TIP3    H242088   2.225   6.587   2.315 -0.1750 -0.3244  0.0060
 5965TIP3   OH242089   2.173   1.852   2.828  0.4703  0.9960 -0.6619
 5965TIP3    H142090   2.214   1.792   2.764  1.9521  1.4228 -0.1647
 5965TIP3    H242091   2.088   1.873   2.790  0.5688 -0.1821 -1.6127
 5966TIP3   OH242092   5.770   6.966   3.762 -0.5154 -0.3487  0.0786
 5966TIP3    H142093   5.694   6.964   3.703 -2.0670 -2.4898  1.9719
 5966TIP3    H242094   5.808   6.878   3.754  0.9829  0.2732  0.1623
 5967TIP3   OH242095   0.153   4.654   2.880  0.9321  0.0077 -0.4206
 5967TIP3    H142096   0.095   4.644   2.955 -1.0874  0.6045 -1.8188
 5967TIP3    H242097   0.189   4.742   2.889  0.1042  0.3688 -0.5110
 5968TIP3   OH242098   5.988   5.833   2.591  0.0567  0.4231 -0.5459
 5968TIP3    H142099   5.898   5.807   2.611  0.1888 -0.6768 -1.3448
 5968TIP3    H242100   5.979   5.899   2.522 -0.1869  1.3843  0.3636
 5969TIP3   OH242101   3.850   7.677   2.594 -0.1666 -0.1245  0.2948
 5969TIP3    H142102   3.924   7.655   2.537 -1.3661 -1.5927 -0.7796
 5969TIP3    H242103   3.889   7.725   2.667  1.6075  0.6426 -1.0841
 5970TIP3   OH242104   5.923   2.765   3.671 -0.1631 -0.2772 -0.0188
 5970TIP3    H142105   5.975   2.844   3.689 -0.0275 -0.3531 -0.0771
 5970TIP3    H242106   5.852   2.796   3.614  1.3020 -0.6424 -2.1397
 5971TIP3   OH242107   6.184   7.547   4.004  0.4959 -0.4434 -0.8951
 5971TIP3    H142108   6.208   7.467   3.958  1.0882 -1.0589  0.4187
 5971TIP3    H242109   6.267   7.590   4.023  0.4529 -1.2162  1.3070
 5972TIP3   OH242110   4.862   2.593   2.378  0.3768  0.6131  0.0687
 5972TIP3    H142111   4.784   2.581   2.432  2.0943 -0.6361  2.4857
 5972TIP3    H242112   4.846   2.539   2.301 -0.8710 -0.2088  0.8608
 5973TIP3   OH242113   2.327   4.554   4.682  0.0158  0.0494 -0.4470
 5973TIP3    H142114   2.236   4.523   4.680 -0.0832  0.3016  0.0580
 5973TIP3    H242115   2.372   4.491   4.738  0.3281 -0.5222 -1.3173
 5974TIP3   OH242116   6.527   1.795   2.627 -0.0298 -0.1079  0.5727
 5974TIP3    H142117   6.590   1.835   2.567 -1.0392  4.0036  1.9584
 5974TIP3    H242118   6.569   1.800   2.713 -0.4693 -1.6463  0.9185
 5975TIP3   OH242119   4.467   7.405   3.242 -0.4602  0.1624 -0.1466
 5975TIP3    H142120   4.505   7.336   3.296 -1.3357  1.0866  1.7552
 5975TIP3    H242121   4.397   7.363   3.193 -0.3797 -0.4872  0.2940
 5976TIP3   OH242122   0.744   6.434   3.179 -0.0901 -0.2447  0.0688
 5976TIP3    H142123   0.806   6.406   3.247  0.3460  2.6973  1.0431
 5976TIP3    H242124   0.660   6.439   3.224 -0.3669 -0.9715 -0.3627
 5977TIP3   OH242125   1.206   3.524   4.656 -0.1155 -0.8618 -0.3657
 5977TIP3    H142126   1.238   3.523   4.746  0.0726 -1.1172 -0.4327
 5977TIP3    H242127   1.262   3.587   4.611  0.3285 -1.3384 -0.4922
 5978TIP3   OH242128   5.456   0.610   2.461 -0.0813  0.1856  0.4221
 5978TIP3    H142129   5.486   0.573   2.544 -0.4303  1.8729  1.3622
 5978TIP3    H242130   5.473   0.542   2.397  2.4584 -0.2982  1.4687
 5979TIP3   OH242131   6.675   5.821   2.918  0.2780 -0.4496 -0.0216
 5979TIP3    H142132   6.635   5.881   2.856  0.1911 -2.0696 -1.6397
 5979TIP3    H242133   6.630   5.837   3.001 -1.8948 -0.4010 -1.1404
 5980TIP3   OH242134   5.123   4.831   4.417 -0.2367 -0.2149  0.2706
 5980TIP3    H142135   5.186   4.761   4.437 -1.3488 -1.3186  0.0691
 5980TIP3    H242136   5.069   4.837   4.496  0.1009  0.7220  0.4405
 5981TIP3   OH242137   2.648   7.172   3.797  0.7591 -0.6933  0.1008
 5981TIP3    H142138   2.616   7.249   3.750 -2.4683 -1.7613  0.2534
 5981TIP3    H242139   2.687   7.117   3.729 -0.4597 -0.5787 -0.7256
 5982TIP3   OH242140   7.547   6.287   3.828 -0.3153 -0.1761  0.1489
 5982TIP3    H142141   7.589   6.336   3.898 -0.2008  0.8713 -0.6158
 5982TIP3    H242142   7.456   6.318   3.828 -0.2092  0.1711 -0.4236
 5983TIP3   OH242143   2.714   6.972   4.025  0.0705  0.4902  0.2936
 5983TIP3    H142144   2.663   6.905   3.979  1.0051 -0.2634  0.3258
 5983TIP3    H242145   2.744   7.032   3.956 -0.1999  0.4955  0.1802
 5984TIP3   OH242146   7.186   2.759   2.576 -0.4835  0.1141 -0.1256
 5984TIP3    H142147   7.242   2.803   2.640 -0.8093  0.1341  0.1524
 5984TIP3    H242148   7.122   2.826   2.551 -0.6104 -0.0191 -0.1570
 5985TIP3   OH242149   2.412   1.019   3.970  0.9391  0.3221  0.7954
 5985TIP3    H142150   2.423   1.072   3.892 -0.0639 -0.0841  0.3559
 5985TIP3    H242151   2.352   0.949   3.943  2.0127 -0.8817  1.4295
 5986TIP3   OH242152   3.923   3.327   2.917 -0.2390 -0.0098 -0.8033
 5986TIP3    H142153   3.893   3.338   3.007 -0.9862 -1.1534 -0.9042
 5986TIP3    H242154   3.860   3.377   2.864 -0.2854 -0.0283 -0.7651
 5987TIP3   OH242155   1.526   0.608   3.934  0.3218 -0.5954  0.2771
 5987TIP3    H142156   1.576   0.556   3.872  0.9775 -0.8910  1.0312
 5987TIP3    H242157   1.489   0.543   3.994  0.7232 -0.2416  0.9220
 5988TIP3   OH242158   7.230   4.957   4.313 -0.2748 -0.4638 -0.2550
 5988TIP3    H142159   7.139   4.979   4.337 -0.2882 -1.8836  1.1676
 5988TIP3    H242160   7.227   4.865   4.288  0.7523 -0.4793 -0.3580
 5989TIP3   OH242161   1.363   2.682   4.659  0.3034 -0.5231 -0.6525
 5989TIP3    H142162   1.319   2.626   4.723 -1.0586  0.2476 -0.8905
 5989TIP3    H242163   1.334   2.771   4.680  1.5432 -0.0104 -0.9901
 5990TIP3   OH242164   0.233   6.667   2.686 -0.7110 -0.2065  0.3474
 5990TIP3    H142165   0.252   6.688   2.595 -2.4227  0.0052  0.0217
 5990TIP3    H242166   0.242   6.572   2.690  0.0806 -0.1484  0.1430
 5991TIP3   OH242167   5.627   0.465   4.253  0.0325 -0.3779 -1.0923
 5991TIP3    H142168   5.661   0.470   4.164 -0.5473 -0.9234 -1.3416
 5991TIP3    H242169   5.701   0.431   4.304  1.3040  2.4306 -0.8354
 5992TIP3   OH242170   1.888   4.561   2.726  0.0481  0.3934 -0.1987
 5992TIP3    H142171   1.909   4.647   2.764 -0.0386  0.8453 -1.1566
 5992TIP3    H242172   1.928   4.498   2.786  0.0975  1.0988  0.5262
 5993TIP3   OH242173   3.813   3.276   2.154  0.3350  0.1067 -0.3594
 5993TIP3    H142174   3.873   3.320   2.094  0.6077  0.2730  0.0317
 5993TIP3    H242175   3.869   3.243   2.225 -0.2359  2.0899  1.1206
 5994TIP3   OH242176   5.756   1.767   3.793 -0.2077  0.5198  0.0483
 5994TIP3    H142177   5.734   1.845   3.743  0.1128  0.4737 -0.1709
 5994TIP3    H242178   5.672   1.725   3.811 -0.3703  0.8456  0.0560
 5995TIP3   OH242179   6.404   0.183   2.221  0.2687 -0.2804 -0.0277
 5995TIP3    H142180   6.420   0.194   2.128 -0.9859 -1.9368 -0.4814
 5995TIP3    H242181   6.477   0.228   2.264 -0.5844  2.9522 -1.7115
 5996TIP3   OH242182   0.367   2.150   4.086  0.7670  0.3764 -0.3158
 5996TIP3    H142183   0.381   2.066   4.130 -1.3139  0.7164  1.1617
 5996TIP3    H242184   0.324   2.127   4.003 -1.2262 -0.0259  0.7620
 5997TIP3   OH242185   2.303   6.567   2.814  0.3519 -0.1940  0.5227
 5997TIP3    H142186   2.380   6.596   2.865  0.5820  1.1486 -0.5257
 5997TIP3    H242187   2.229   6.609   2.858  0.5564  1.0112 -0.2188
 5998TIP3   OH242188   6.796   0.677   2.154  0.9110  0.2557 -0.3072
 5998TIP3    H142189   6.826   0.767   2.170  1.9004 -0.2383  0.8028
 5998TIP3    H242190   6.843   0.625   2.220 -1.8104 -0.6873  1.0214
 5999TIP3   OH242191   0.744   1.039   3.852  0.5790 -0.5911  0.0366
 5999TIP3    H142192   0.750   0.956   3.804 -0.8704 -1.2162  0.8842
 5999TIP3    H242193   0.769   1.016   3.941  0.5770 -0.0181  0.1831
 6000TIP3   OH242194   0.203   4.133   2.513  0.6922 -0.2035  0.2191
 6000TIP3    H142195   0.256   4.116   2.435  1.3855  3.3215 -0.2905
 6000TIP3    H242196   0.113   4.141   2.481  0.9741  1.2174 -0.3066
 6001TIP3   OH242197   1.261   1.572   5.057  0.4531  0.2037  0.1378
 6001TIP3    H142198   1.175   1.615   5.055 -0.6829 -1.9138  0.4511
 6001TIP3    H242199   1.324   1.644   5.050 -1.3393  1.7879 -0.6750
 6002TIP3   OH242200   7.552   2.129   3.676 -0.4398 -0.5474 -0.2712
 6002TIP3    H142201   7.638   2.157   3.646 -0.9211  0.8380 -0.4388
 6002TIP3    H242202   7.563   2.036   3.696  0.2843 -1.2816 -3.4207
 6003TIP3   OH242203   1.078   6.286   3.824  0.5360 -0.5050  0.3367
 6003TIP3    H142204   1.156   6.258   3.870  0.9234 -0.1831 -0.1156
 6003TIP3    H242205   1.083   6.381   3.824 -0.3345 -0.4477  1.1210
 6004TIP3   OH242206   1.336   1.619   4.165  0.4687  0.5027 -0.4171
 6004TIP3    H142207   1.389   1.607   4.244  2.5999 -0.2641 -1.8654
 6004TIP3    H242208   1.279   1.542   4.162 -0.9430  1.4211  1.2494
 6005TIP3   OH242209   2.725   2.531   1.998 -0.0177  0.7872  0.3258
 6005TIP3    H142210   2.687   2.516   2.084 -1.6171  1.5614 -0.2172
 6005TIP3    H242211   2.671   2.600   1.959  1.2014  1.0607 -0.9716
 6006TIP3   OH242212   2.026   5.123   2.147  0.4911 -0.1098  0.4456
 6006TIP3    H142213   2.069   5.070   2.214 -0.7178 -0.9759  0.5849
 6006TIP3    H242214   2.015   5.062   2.073 -0.6738  0.0130  0.5027
 6007TIP3   OH242215   1.158   4.486   1.967  0.3838  0.2407 -0.4548
 6007TIP3    H142216   1.245   4.523   1.982  0.1724  0.5516  0.0770
 6007TIP3    H242217   1.098   4.556   1.992 -0.0331 -0.5051  0.7773
 6008TIP3   OH242218   5.584   6.787   2.391  0.0096  0.4280 -0.0161
 6008TIP3    H142219   5.543   6.771   2.475  0.3572 -0.8891 -0.0691
 6008TIP3    H242220   5.517   6.832   2.339 -0.8202 -0.2911  0.4025
 6009TIP3   OH242221   1.091   2.479   4.816  0.0029  0.3361  0.2613
 6009TIP3    H142222   1.183   2.486   4.843  0.2863  0.2991 -0.6723
 6009TIP3    H242223   1.085   2.394   4.774 -0.6161  0.0727  0.8591
 6010TIP3   OH242224   1.987   5.517   3.382 -0.9365  0.0052 -0.0445
 6010TIP3    H142225   2.066   5.463   3.385 -0.6133  0.4697  0.0193
 6010TIP3    H242226   1.978   5.541   3.290 -0.2799  0.9813  0.1293
 6011TIP3   OH242227   2.072   2.876   4.997  0.3844  0.3763 -0.4532
 6011TIP3    H142228   2.145   2.863   5.058  0.3402 -1.1898 -0.6727
 6011TIP3    H242229   2.110   2.927   4.926  1.4544 -0.8310 -0.8046
 6012TIP3   OH242230   7.309   6.002   2.520  0.0312  0.2609  0.1693
 6012TIP3    H142231   7.296   6.084   2.473 -0.1751  0.1975  0.1150
 6012TIP3    H242232   7.276   5.935   2.461  0.1233  0.1466  0.2479
 6013TIP3   OH242233   1.404   4.322   4.118 -0.2819  0.6603 -0.3206
 6013TIP3    H142234   1.402   4.403   4.169  0.9613  0.4649  0.0887
 6013TIP3    H242235   1.427   4.254   4.182 -2.0799 -0.1607 -0.5049
 6014TIP3   OH242236   6.664   2.372   4.179  0.3073  0.3680  0.0270
 6014TIP3    H142237   6.607   2.428   4.232  1.6578  0.2968  1.6459
 6014TIP3    H242238   6.735   2.430   4.151  1.5999 -0.4099  1.5344
 6015TIP3   OH242239   4.939   0.707   3.344  0.0004  0.7431 -0.1115
 6015TIP3    H142240   4.969   0.761   3.271  1.4172 -0.9448 -0.8350
 6015TIP3    H242241   4.860   0.663   3.311  0.7775 -0.2037 -0.7363
 6016TIP3   OH242242   6.139   1.774   2.989  0.4968  0.0212 -0.3656
 6016TIP3    H142243   6.211   1.793   2.929  0.2077  0.5623 -0.5485
 6016TIP3    H242244   6.142   1.844   3.053  0.4737 -0.2633 -0.0536
 6017TIP3   OH242245   1.639   2.185   2.829 -0.1068  0.2622  0.0716
 6017TIP3    H142246   1.679   2.101   2.852  0.0837  0.8535  2.1540
 6017TIP3    H242247   1.546   2.171   2.841  0.0923  1.2570  4.3086
 6018TIP3   OH242248   7.677   6.837   3.655 -0.5817  0.1316 -0.0613
 6018TIP3    H142249   7.731   6.770   3.615  1.5597  1.0933  1.0610
 6018TIP3    H242250   7.619   6.789   3.715 -0.8531 -0.9088 -1.1332
 6019TIP3   OH242251   3.433   1.710   2.408 -0.3534  0.2516  0.4558
 6019TIP3    H142252   3.459   1.778   2.471 -1.9080  0.5862  0.7722
 6019TIP3    H242253   3.471   1.630   2.443 -0.9780  0.4760  1.7166
 6020TIP3   OH242254   4.556   3.802   4.356  0.0738 -0.6539  0.4467
 6020TIP3    H142255   4.555   3.784   4.262 -2.5448 -0.8705  0.4200
 6020TIP3    H242256   4.535   3.718   4.396 -3.2518  0.2013  0.8538
 6021TIP3   OH242257   4.618   2.107   4.969  0.4129  0.4027 -0.2121
 6021TIP3    H142258   4.540   2.163   4.958  0.5667  0.9325  1.1240
 6021TIP3    H242259   4.690   2.161   4.937  0.5667  1.0267  1.1179
 6022TIP3   OH242260   1.911   4.852   3.690 -0.1355 -0.2084 -0.2395
 6022TIP3    H142261   1.892   4.848   3.783  0.5494  2.1176  0.0727
 6022TIP3    H242262   1.877   4.938   3.663  1.9698  0.2851 -1.5366
 6023TIP3   OH242263   6.332   7.589   3.336  0.1915 -0.0821  0.1377
 6023TIP3    H142264   6.293   7.529   3.399 -0.5198  1.3875  1.1645
 6023TIP3    H242265   6.267   7.597   3.267  1.1351 -1.9987 -1.0650
 6024TIP3   OH242266   3.606   4.852   2.194 -0.0636 -0.6167  0.5807
 6024TIP3    H142267   3.527   4.809   2.159  1.4554 -3.4114  0.2765
 6024TIP3    H242268   3.615   4.815   2.282  1.3079 -0.9873  0.3072
 6025TIP3   OH242269   2.082   1.252   2.148  0.6442 -0.1587 -0.4874
 6025TIP3    H142270   2.038   1.301   2.217  1.5245 -0.4316  0.2990
 6025TIP3    H242271   2.012   1.207   2.101  0.1895 -2.4475  2.1826
 6026TIP3   OH242272   4.620   2.144   2.400 -0.2125  0.1209  0.4248
 6026TIP3    H142273   4.530   2.166   2.374 -0.7580 -0.8198  1.4016
 6026TIP3    H242274   4.635   2.057   2.361  0.4588  0.4815 -0.1369
 6027TIP3   OH242275   0.910   0.837   2.442  0.5839 -0.0587  0.9774
 6027TIP3    H142276   0.975   0.895   2.402 -0.8015  1.7068  1.1696
 6027TIP3    H242277   0.895   0.874   2.529 -1.5858  0.3713  0.4718
 6028TIP3   OH242278   5.126   7.571   2.980 -0.2228  0.1156 -0.2190
 6028TIP3    H142279   5.189   7.555   2.909 -0.5528 -0.4202 -0.3933
 6028TIP3    H242280   5.170   7.538   3.058 -0.6015 -1.0187 -0.4641
 6029TIP3   OH242281   3.264   0.459   4.639 -0.8379  0.0181 -0.2664
 6029TIP3    H142282   3.291   0.441   4.549 -0.1019  1.5836 -0.3948
 6029TIP3    H242283   3.171   0.438   4.640  0.1237 -5.8829  0.2857
 6030TIP3   OH242284   5.706   5.677   3.168  0.1575 -0.2099 -0.0271
 6030TIP3    H142285   5.689   5.748   3.106 -0.2962  0.9006  1.3088
 6030TIP3    H242286   5.619   5.650   3.197  0.3830 -0.2778  0.5931
 6031TIP3   OH242287   4.831   3.611   3.871 -0.3866 -0.3259 -0.5006
 6031TIP3    H142288   4.844   3.582   3.961  1.2083 -0.3941 -0.7313
 6031TIP3    H242289   4.771   3.547   3.833  1.1893 -1.9944 -0.3079
 6032TIP3   OH242290   3.237   3.118   3.384 -0.4530 -0.5133  0.4467
 6032TIP3    H142291   3.185   3.188   3.422 -1.1844 -0.8608  0.1151
 6032TIP3    H242292   3.220   3.042   3.440  0.1734 -0.4799  0.6876
 6033TIP3   OH242293   6.205   4.787   2.555  0.9010  0.0867 -0.3553
 6033TIP3    H142294   6.206   4.883   2.547 -0.3137  0.1772  0.4538
 6033TIP3    H242295   6.113   4.764   2.560  1.1931 -0.8492  2.4544
 6034TIP3   OH242296   3.568   0.331   4.863 -0.3584  0.6187 -0.5177
 6034TIP3    H142297   3.592   0.422   4.847 -0.1022  0.5341 -0.6166
 6034TIP3    H242298   3.651   0.286   4.877 -0.4766  0.3804 -0.5739
 6035TIP3   OH242299   4.312   2.912   4.128  0.1054  0.7557 -0.3219
 6035TIP3    H142300   4.349   2.939   4.044  0.3583  0.2010 -0.3938
 6035TIP3    H242301   4.232   2.864   4.105  0.3580  0.3043 -0.2676
 6036TIP3   OH242302   3.739   4.750   2.755  0.2175 -0.4148 -0.3217
 6036TIP3    H142303   3.815   4.766   2.811 -0.4837 -1.0091  0.8387
 6036TIP3    H242304   3.721   4.657   2.765  1.4164 -1.0769 -3.3333
 6037TIP3   OH242305   3.007   6.592   2.090 -0.2254  0.5035 -0.0238
 6037TIP3    H142306   3.055   6.630   2.016 -0.6917  2.1093  0.4694
 6037TIP3    H242307   2.915   6.604   2.067 -0.3764  0.2559  0.4523
 6038TIP3   OH242308   0.836   1.869   2.996  0.5429  0.1204  0.5539
 6038TIP3    H142309   0.761   1.828   2.953  0.2510  1.6592 -0.4702
 6038TIP3    H242310   0.797   1.921   3.067  0.8891 -1.0715  1.6631
 6039TIP3   OH242311   1.858   4.218   3.625 -0.9542 -0.3265  0.3787
 6039TIP3    H142312   1.927   4.281   3.650 -1.2782 -0.3638  1.4239
 6039TIP3    H242313   1.791   4.271   3.582 -0.4406 -0.2349 -0.3245
 6040TIP3   OH242314   5.766   3.745   2.920 -0.1497  0.0961 -0.0481
 6040TIP3    H142315   5.827   3.761   2.992  0.9122 -0.1780 -0.8604
 6040TIP3    H242316   5.708   3.822   2.920  1.5830  1.4558 -0.6266
 6041TIP3   OH242317   4.161   1.145   2.248  0.0925 -0.0351  0.3069
 6041TIP3    H142318   4.118   1.207   2.189  1.5713  0.0186 -0.7616
 6041TIP3    H242319   4.163   1.063   2.200 -0.2910 -0.4772  1.0216
 6042TIP3   OH242320   3.054   0.108   4.691  0.4990 -0.1839  0.0288
 6042TIP3    H142321   3.000   0.093   4.614  0.8299 -1.1718 -0.0225
 6042TIP3    H242322   3.141   0.128   4.656  0.6742 -0.7368  0.1442
 6043TIP3   OH242323   4.788   5.841   3.424  0.2840  0.3925  0.4529
 6043TIP3    H142324   4.741   5.879   3.350 -0.6559 -1.0233  0.2708
 6043TIP3    H242325   4.858   5.903   3.443  0.3662  0.9393 -1.4307
 6044TIP3   OH242326   7.444   4.498   3.927 -0.2909  0.0323  0.0819
 6044TIP3    H142327   7.402   4.421   3.889  1.2854 -0.8255 -0.0307
 6044TIP3    H242328   7.474   4.468   4.013  1.7115 -0.0082 -0.5789
 6045TIP3   OH242329   3.541   5.737   3.397  0.0573 -0.3683 -0.1726
 6045TIP3    H142330   3.566   5.822   3.361 -0.1637 -0.6218 -0.9494
 6045TIP3    H242331   3.610   5.715   3.459  0.2140  0.2861 -0.1101
 6046TIP3   OH242332   7.053   0.030   2.044  0.0638  0.1892 -0.2396
 6046TIP3    H142333   7.116  -0.029   2.085 -0.4913 -0.3650 -0.1723
 6046TIP3    H242334   7.009  -0.024   1.978 -1.2327  0.2001  0.5838
 6047TIP3   OH242335   5.063   6.587   3.710  0.1545 -0.0978  0.3336
 6047TIP3    H142336   5.122   6.571   3.637  0.3894  1.1074  0.2318
 6047TIP3    H242337   5.002   6.654   3.678 -1.6117 -1.6381  0.2733
 6048TIP3   OH242338   0.536   7.582   2.573 -0.2705 -0.2036  0.5261
 6048TIP3    H142339   0.529   7.591   2.478 -4.3316  0.9263  0.7739
 6048TIP3    H242340   0.624   7.616   2.593  0.4885  0.1125 -2.7038
 6049TIP3   OH242341   4.669   3.375   3.327 -0.1567 -0.2564  0.1019
 6049TIP3    H142342   4.575   3.377   3.310  0.1112  0.4791 -1.4659
 6049TIP3    H242343   4.676   3.356   3.420 -1.8702  0.0700  0.3324
 6050TIP3   OH242344   2.901   7.346   2.704 -0.1619 -0.2881  0.4072
 6050TIP3    H142345   2.912   7.431   2.662 -1.5607 -0.7933 -1.0536
 6050TIP3    H242346   2.866   7.367   2.791 -0.3608  0.6273  0.1190
 6051TIP3   OH242347   2.960   3.655   2.242  0.1475 -0.3656 -0.2793
 6051TIP3    H142348   3.003   3.593   2.301 -0.6373 -0.9424 -0.3067
 6051TIP3    H242349   2.892   3.604   2.198  1.2510 -0.1685 -2.3244
 6052TIP3   OH242350   6.939   1.573   4.292 -0.3430  0.0682  0.3004
 6052TIP3    H142351   6.865   1.632   4.308 -1.7805 -1.6561  0.3690
 6052TIP3    H242352   6.989   1.574   4.374 -2.1577 -1.1819  1.5262
 6053TIP3   OH242353   3.165   6.526   4.033 -0.5394 -0.5858  0.0740
 6053TIP3    H142354   3.173   6.433   4.056  0.5555  0.0759  2.6748
 6053TIP3    H242355   3.187   6.529   3.940  0.0321 -2.8519  0.0683
 6054TIP3   OH242356   6.248   4.752   3.665  0.2513 -0.2052 -0.0399
 6054TIP3    H142357   6.203   4.836   3.656  1.6254  0.6763  0.8427
 6054TIP3    H242358   6.197   4.705   3.731  0.1623  0.4764  0.3980
 6055TIP3   OH242359   6.720   3.920   3.075  0.2286 -0.5195 -0.0356
 6055TIP3    H142360   6.759   3.963   2.999  2.2139  0.1530  1.2947
 6055TIP3    H242361   6.666   3.988   3.116  1.0065 -0.1723  0.4258
 6056TIP3   OH242362   6.779   3.987   2.669 -0.2679  0.4422  0.3992
 6056TIP3    H142363   6.851   3.967   2.610 -1.9503  0.0101 -1.6570
 6056TIP3    H242364   6.740   3.902   2.690  0.0317  0.6281  1.8360
 6057TIP3   OH242365   2.004   6.834   2.469 -0.4474 -0.0022 -0.4834
 6057TIP3    H142366   1.980   6.746   2.496 -0.1121 -0.3648 -1.3247
 6057TIP3    H242367   1.978   6.890   2.542 -0.3383 -0.8374  0.2094
 6058TIP3   OH242368   7.405   4.374   2.388 -0.5634  0.2280  0.8916
 6058TIP3    H142369   7.354   4.302   2.425  0.3502 -0.8160  0.1850
 6058TIP3    H242370   7.432   4.426   2.464  0.8799 -1.6004  1.7220
 6059TIP3   OH242371   2.040   6.313   2.763  0.1452  0.3264  0.3669
 6059TIP3    H142372   2.106   6.244   2.763  0.1455  0.2758 -1.4162
 6059TIP3    H242373   1.960   6.270   2.734  0.3444  1.1863 -1.6332
 6060TIP3   OH242374   0.109   7.216   2.856 -0.7210  0.8257  0.1770
 6060TIP3    H142375   0.017   7.222   2.883 -1.1001 -1.5374 -0.3878
 6060TIP3    H242376   0.155   7.190   2.936 -1.1215 -1.3415 -0.2168
 6061TIP3   OH242377   7.022   4.355   2.391 -0.1408  0.2740  0.3507
 6061TIP3    H142378   7.007   4.272   2.346 -1.8330  2.0248 -2.6998
 6061TIP3    H242379   6.939   4.373   2.435 -1.3954  2.1419 -2.4933
 6062TIP3   OH242380   5.999   7.237   4.655  0.2310  0.9276 -0.6099
 6062TIP3    H142381   5.951   7.154   4.647  1.5387  0.0002  0.7435
 6062TIP3    H242382   5.948   7.288   4.718  1.3295 -0.3632  1.4283
 6063TIP3   OH242383   5.539   7.460   2.295 -0.2421  0.4563  0.3712
 6063TIP3    H142384   5.549   7.382   2.348  1.0749 -0.0468 -0.5730
 6063TIP3    H242385   5.479   7.434   2.225  0.9388 -0.0374 -0.4915
 6064TIP3   OH242386   4.811   1.552   2.681  0.0835 -0.6731  0.0532
 6064TIP3    H142387   4.734   1.609   2.670 -0.0323 -0.4213  1.9163
 6064TIP3    H242388   4.862   1.594   2.749  0.5098 -2.2740  0.7641
 6065TIP3   OH242389   1.529   4.922   4.950  0.1953 -0.1206  0.6462
 6065TIP3    H142390   1.551   5.012   4.927 -0.5180  0.1193  0.8701
 6065TIP3    H242391   1.602   4.892   5.003  0.8721  0.0199 -0.1809
 6066TIP3   OH242392   7.642   2.412   2.630 -0.4544 -0.1250 -0.0001
 6066TIP3    H142393   7.575   2.349   2.657 -1.1349  1.1483  1.4140
 6066TIP3    H242394   7.677   2.446   2.712  0.1216  1.1106 -0.7291
 6067TIP3   OH242395   1.058   3.834   2.464 -0.3864  0.0494 -0.3233
 6067TIP3    H142396   1.056   3.837   2.368 -0.5492  1.7922 -0.3006
 6067TIP3    H242397   1.141   3.789   2.485 -0.2634 -0.1896 -1.2681
 6068TIP3   OH242398   6.233   6.820   3.745  0.0129  0.4418 -0.8683
 6068TIP3    H142399   6.199   6.773   3.668 -0.7637 -0.0662 -0.2387
 6068TIP3    H242400   6.324   6.792   3.752 -0.3512 -0.7796 -0.6817
 6069TIP3   OH242401   2.442   2.880   2.504 -0.4075  0.3407  0.5422
 6069TIP3    H142402   2.515   2.871   2.443  0.5876 -0.2015  1.7655
 6069TIP3    H242403   2.444   2.971   2.532  0.7136  0.0107  1.6296
 6070TIP3   OH242404   4.545   1.583   3.730  0.3816  0.5309  0.4383
 6070TIP3    H142405   4.543   1.534   3.649 -0.5758  0.4706  0.4912
 6070TIP3    H242406   4.536   1.675   3.703 -1.6114  0.4044  0.5495
 6071TIP3   OH242407   1.546   4.525   2.336 -0.0455  0.0581  0.0719
 6071TIP3    H142408   1.535   4.470   2.258  1.1145  1.5116 -1.1768
 6071TIP3    H242409   1.621   4.486   2.382 -1.5435 -1.6009  1.2397
 6072TIP3   OH242410   3.472   7.480   4.723 -0.0447  0.1615 -0.6848
 6072TIP3    H142411   3.451   7.538   4.796  0.9285  1.1053 -1.1343
 6072TIP3    H242412   3.444   7.528   4.645  2.2359  0.7791 -1.1822
 6073TIP3   OH242413   0.934   0.656   4.306  0.1829  0.4546 -0.3994
 6073TIP3    H142414   0.842   0.654   4.330  0.1634 -1.1495 -0.5254
 6073TIP3    H242415   0.973   0.582   4.353  1.4037  1.0674 -0.3949
 6074TIP3   OH242416   6.532   6.183   3.803 -0.2576 -0.4070 -0.2130
 6074TIP3    H142417   6.624   6.176   3.777 -0.3696 -0.9425 -0.4881
 6074TIP3    H242418   6.504   6.268   3.770  1.1243  1.5262  3.1181
 6075TIP3   OH242419   3.817   1.666   2.817  0.1198 -0.1081  0.0996
 6075TIP3    H142420   3.868   1.624   2.749 -1.2441 -0.5263 -0.7047
 6075TIP3    H242421   3.849   1.628   2.899  0.5643 -0.9118 -0.4399
 6076TIP3   OH242422   7.040   7.621   3.445  0.7431 -0.1445 -0.3652
 6076TIP3    H142423   7.017   7.701   3.398  0.6691 -0.3110 -0.6097
 6076TIP3    H242424   7.015   7.639   3.536  1.3597  0.3709 -0.2897
 6077TIP3   OH242425   3.724   1.480   3.954 -0.0078  0.1384  0.0393
 6077TIP3    H142426   3.680   1.563   3.974  1.1263  0.1281  3.0557
 6077TIP3    H242427   3.775   1.499   3.875 -0.5881  2.0064  0.0575
 6078TIP3   OH242428   4.275   2.359   3.810  0.1324 -0.1433 -0.0563
 6078TIP3    H142429   4.219   2.285   3.786  0.8372 -0.5149 -0.6050
 6078TIP3    H242430   4.364   2.326   3.797  0.4755  0.5128  0.5713
 6079TIP3   OH242431   0.996   0.936   5.228  0.2090 -0.3253 -0.0287
 6079TIP3    H142432   0.992   0.961   5.320  0.2155  1.0360 -0.3697
 6079TIP3    H242433   1.078   0.975   5.196 -1.2638  1.9990 -1.3276
 6080TIP3   OH242434   1.782   6.168   2.741 -0.2415 -0.1231 -0.3714
 6080TIP3    H142435   1.758   6.169   2.649  0.7473 -1.8283 -0.7004
 6080TIP3    H242436   1.703   6.140   2.787  0.1116 -2.6366 -1.1107
 6081TIP3   OH242437   0.638   2.716   3.630  0.6378 -0.4588 -0.4790
 6081TIP3    H142438   0.570   2.755   3.685  1.2520  0.0338 -0.0655
 6081TIP3    H242439   0.720   2.753   3.662  1.2255 -1.9611 -0.1755
 6082TIP3   OH242440   4.335   1.997   3.386  0.5493  0.1849  0.1461
 6082TIP3    H142441   4.336   2.080   3.337  0.6830 -1.1598 -2.2529
 6082TIP3    H242442   4.401   1.943   3.344 -0.5542 -1.6752  0.6840
 6083TIP3   OH242443   4.215   3.279   4.697 -0.0552  0.0117  0.8464
 6083TIP3    H142444   4.164   3.284   4.778 -0.8185  2.0178  0.3054
 6083TIP3    H242445   4.179   3.204   4.650  0.0109 -0.8284  2.1030
 6084TIP3   OH242446   4.275   5.118   4.355  0.0192 -0.2667  0.1140
 6084TIP3    H142447   4.359   5.073   4.342  0.9311  0.9701  1.4257
 6084TIP3    H242448   4.272   5.135   4.449 -1.8939 -0.5903  0.1433
 6085TIP3   OH242449   3.240   0.255   3.096  0.1552 -0.3214  0.0860
 6085TIP3    H142450   3.316   0.218   3.143  0.4576  0.5824  0.3215
 6085TIP3    H242451   3.187   0.294   3.165 -0.4808 -0.8451 -0.0957
 6086TIP3   OH242452   5.718   1.131   4.341  0.2234  0.1578 -0.0936
 6086TIP3    H142453   5.800   1.179   4.331  0.1419  0.1833 -0.6562
 6086TIP3    H242454   5.653   1.187   4.298  0.1630 -0.5630 -0.9482
 6087TIP3   OH242455   1.762   6.637   5.161 -0.1008  0.5114  0.1779
 6087TIP3    H142456   1.724   6.614   5.246 -0.2174 -0.1655 -0.0469
 6087TIP3    H242457   1.687   6.656   5.105 -0.0280  0.8837  0.2087
 6088TIP3   OH242458   2.489   6.910   3.019 -0.3633 -0.3214  0.0683
 6088TIP3    H142459   2.473   6.854   3.095 -0.3551 -0.4540 -0.0271
 6088TIP3    H242460   2.406   6.956   3.004  0.0502  0.7802  1.0331
 6089TIP3   OH242461   1.013   1.759   5.040 -0.9236 -0.0019 -0.1120
 6089TIP3    H142462   0.972   1.739   4.956 -0.0377 -1.3857 -0.2612
 6089TIP3    H242463   0.958   1.714   5.104 -0.1259 -1.2443 -0.2458
 6090TIP3   OH242464   2.670   6.546   2.324  0.5407  0.2709  0.6625
 6090TIP3    H142465   2.727   6.564   2.249  0.8087 -0.2799  0.7334
 6090TIP3    H242466   2.722   6.569   2.400  0.8936 -0.7836  0.7564
 6091TIP3   OH242467   0.705   5.469   5.093  0.0543  0.4215  0.0820
 6091TIP3    H142468   0.675   5.401   5.032 -0.3665  0.1764  0.5555
 6091TIP3    H242469   0.794   5.443   5.115 -0.7295 -1.0383  1.7090
 6092TIP3   OH242470   4.359   1.629   3.395 -0.1049 -0.4794  0.4006
 6092TIP3    H142471   4.403   1.561   3.445 -0.4656  0.3515  1.9098
 6092TIP3    H242472   4.419   1.650   3.323  0.5874 -1.4488  0.6849
 6093TIP3   OH242473   4.197   4.043   3.725 -0.4213 -0.0146  0.3997
 6093TIP3    H142474   4.253   4.108   3.767 -0.5007 -0.3967  1.1224
 6093TIP3    H242475   4.118   4.042   3.778 -0.6884 -0.2171 -0.0018
 6094TIP3   OH242476   3.489   6.030   3.902  0.4164 -0.5055 -0.1147
 6094TIP3    H142477   3.542   6.107   3.879  2.7624 -1.8889  0.3606
 6094TIP3    H242478   3.514   5.964   3.839 -1.7228 -0.8816 -0.6294
 6095TIP3   OH242479   0.071   3.547   4.445  0.3840 -0.2152 -0.0263
 6095TIP3    H142480  -0.022   3.567   4.437  0.5652  0.2421 -1.1319
 6095TIP3    H242481   0.102   3.605   4.515  0.2527  1.1923 -1.0851
 6096TIP3   OH242482   0.072   4.839   3.194 -0.1934  0.2896 -0.0422
 6096TIP3    H142483   0.045   4.852   3.103 -0.6306  0.4102  0.1053
 6096TIP3    H242484   0.047   4.749   3.214 -0.6593  0.4630  0.1548
 6097TIP3   OH242485   0.257   2.467   5.161 -0.0691  0.1315 -0.6185
 6097TIP3    H142486   0.191   2.398   5.171 -0.6147  0.7579  0.2024
 6097TIP3    H242487   0.207   2.548   5.154  0.5815  0.5010 -1.1132
 6098TIP3   OH242488   6.181   5.058   3.152  0.3853  0.1905  0.1171
 6098TIP3    H142489   6.104   5.085   3.101  1.0670  0.4589 -0.8061
 6098TIP3    H242490   6.161   5.084   3.242 -0.9098 -0.4104  0.0236
 6099TIP3   OH242491   5.178   0.600   2.911  0.0133 -0.0620 -0.2713
 6099TIP3    H142492   5.172   0.607   2.816  0.4471  2.8630 -0.1835
 6099TIP3    H242493   5.244   0.664   2.935  0.0871 -0.9157  2.0044
 6100TIP3   OH242494   4.958   5.702   4.133  0.2712  0.0966  0.1438
 6100TIP3    H142495   4.884   5.762   4.119 -0.5594 -0.9049  0.1180
 6100TIP3    H242496   4.962   5.691   4.228  1.3973  1.3436  0.2809
 6101TIP3   OH242497   2.520   7.668   2.399  0.1762 -0.4601  0.3099
 6101TIP3    H142498   2.591   7.727   2.374 -0.9312  1.2767  1.0776
 6101TIP3    H242499   2.533   7.591   2.344  3.1734 -0.6095  1.0542
 6102TIP3   OH242500   7.553   0.921   3.894 -0.3349 -0.6918  0.5750
 6102TIP3    H142501   7.568   1.013   3.914  1.5321 -0.6806 -0.5903
 6102TIP3    H242502   7.476   0.921   3.837  0.5045  0.3342 -0.6052
 6103TIP3   OH242503   5.298   6.581   4.662  0.2516  0.1498 -0.6466
 6103TIP3    H142504   5.291   6.488   4.644 -1.3785  0.2664 -0.7369
 6103TIP3    H242505   5.321   6.586   4.755 -0.2846 -0.3295 -0.4881
 6104TIP3   OH242506   5.689   6.593   4.724 -0.3292  0.2093  0.6961
 6104TIP3    H142507   5.607   6.634   4.695  0.7361  0.9402 -1.5752
 6104TIP3    H242508   5.699   6.621   4.815 -2.7125 -0.1281  1.1197
 6105TIP3   OH242509   2.883   7.640   2.588  0.4245  0.1594  0.1285
 6105TIP3    H142510   2.835   7.722   2.587  1.1694  0.6508  1.5626
 6105TIP3    H242511   2.938   7.645   2.666  0.3068 -1.8072  0.4002
 6106TIP3   OH242512   2.254   4.131   4.607  0.2650  0.1484  0.1128
 6106TIP3    H142513   2.280   4.047   4.570 -0.3224  0.2179 -0.4700
 6106TIP3    H242514   2.315   4.194   4.570  0.8970 -0.0549  0.7851
 6107TIP3   OH242515   1.688   2.348   5.003 -0.1670  0.4583  0.1011
 6107TIP3    H142516   1.699   2.312   5.091 -1.6378 -0.3628 -0.0182
 6107TIP3    H242517   1.692   2.272   4.945 -0.8461  0.7751 -0.3798
 6108TIP3   OH242518   6.200   6.675   3.038  0.2919  0.1170 -0.1326
 6108TIP3    H142519   6.106   6.659   3.028  0.4009  0.8251 -3.9734
 6108TIP3    H242520   6.242   6.613   2.979  2.1019  1.0495  0.0819
 6109TIP3   OH242521   6.119   1.620   3.607  0.2981  0.0742  0.4396
 6109TIP3    H142522   6.117   1.710   3.573  0.5112  0.5815  1.7061
 6109TIP3    H242523   6.029   1.589   3.596 -0.6637  1.6187  2.8722
 6110TIP3   OH242524   1.701   4.181   2.949 -0.0189 -0.0448 -0.0380
 6110TIP3    H142525   1.618   4.227   2.935 -2.4041 -3.6567  0.8506
 6110TIP3    H242526   1.696   4.104   2.892  3.3740  0.2286 -0.8860
 6111TIP3   OH242527   3.781   4.097   2.516 -0.2892  0.2275  0.2282
 6111TIP3    H142528   3.811   4.167   2.459  1.5276  0.2865  1.1635
 6111TIP3    H242529   3.793   4.132   2.605 -3.9550  0.5296  0.7474
 6112TIP3   OH242530   6.498   3.192   3.155  0.0940  0.4104  0.0413
 6112TIP3    H142531   6.551   3.269   3.177 -0.8908  1.5520 -1.3868
 6112TIP3    H242532   6.453   3.170   3.236  0.8158  1.0103  0.6155
 6113TIP3   OH242533   4.716   3.330   4.825  0.0846  0.4890 -0.2013
 6113TIP3    H142534   4.640   3.377   4.790  0.5594  0.3198 -1.5177
 6113TIP3    H242535   4.777   3.399   4.851  0.1495  0.6253 -0.6976
 6114TIP3   OH242536   4.226   1.339   3.883  0.0314 -0.3564 -0.4981
 6114TIP3    H142537   4.307   1.304   3.919  0.4461  1.2894  0.2543
 6114TIP3    H242538   4.156   1.299   3.936  0.5041  0.1334  0.5195
 6115TIP3   OH242539   2.088   1.636   3.200 -0.2192  0.2818 -0.3330
 6115TIP3    H142540   2.002   1.661   3.235 -0.3862 -0.4796 -0.1748
 6115TIP3    H242541   2.135   1.719   3.191 -0.8631  0.6815 -0.1381
 6116TIP3   OH242542   7.571   5.376   2.943  0.7374 -0.6048 -0.6924
 6116TIP3    H142543   7.558   5.391   2.849  0.8936  0.1587 -0.5918
 6116TIP3    H242544   7.660   5.405   2.960  1.0064 -1.5315 -0.4637
 6117TIP3   OH242545   0.939   6.630   2.840 -0.3456 -0.1341 -0.3443
 6117TIP3    H142546   0.903   6.641   2.928 -0.1658 -1.3027 -0.1010
 6117TIP3    H242547   0.982   6.544   2.843  0.2092  0.0946 -1.3892
 6118TIP3   OH242548   3.719   3.830   3.940 -0.1348 -0.1395 -0.1696
 6118TIP3    H142549   3.735   3.875   3.857  0.4563  1.6867  0.8676
 6118TIP3    H242550   3.680   3.897   3.996  0.8742 -0.8762  1.4928
 6119TIP3   OH242551   0.430   2.095   2.987 -0.2462  0.4759 -0.1566
 6119TIP3    H142552   0.451   2.188   2.998 -0.5406  0.8214 -2.1402
 6119TIP3    H242553   0.502   2.049   3.032 -0.0024  1.6422  0.7008
 6120TIP3   OH242554   3.909   0.204   3.628 -0.1986  0.4222  0.6510
 6120TIP3    H142555   3.928   0.243   3.713  2.4995 -2.1072  1.4034
 6120TIP3    H242556   3.973   0.245   3.569  0.8033 -0.8119  0.8449
 6121TIP3   OH242557   3.379   2.573   2.961 -0.7589 -0.3818 -0.3721
 6121TIP3    H142558   3.407   2.654   3.003 -0.3062 -0.0612 -1.2458
 6121TIP3    H242559   3.453   2.513   2.973 -1.8119 -1.3319  1.8964
 6122TIP3   OH242560   6.258   7.085   3.672 -0.1771  0.6252 -0.5548
 6122TIP3    H142561   6.229   6.994   3.675 -0.8824  0.8147 -1.3089
 6122TIP3    H242562   6.335   7.084   3.617  0.9856  0.2030  1.0068
 6123TIP3   OH242563   2.704   2.301   2.512 -0.3361  0.2288  0.1659
 6123TIP3    H142564   2.795   2.273   2.503  0.7483  3.7003 -1.2047
 6123TIP3    H242565   2.657   2.221   2.539  3.1531 -1.5205  1.7040
 6124TIP3   OH242566   0.127   6.311   4.096  0.4314 -0.3666 -0.0662
 6124TIP3    H142567   0.091   6.228   4.127  0.0649  0.2700  1.2655
 6124TIP3    H242568   0.156   6.356   4.175  3.2901 -0.3975 -0.9658
 6125TIP3   OH242569   2.489   6.329   2.883 -0.2591 -0.0210 -0.2505
 6125TIP3    H142570   2.517   6.260   2.943  0.0645 -0.1008 -0.4906
 6125TIP3    H242571   2.501   6.411   2.932 -0.3883 -0.1136 -0.0626
 6126TIP3   OH242572   2.792   4.100   4.238 -0.0420 -0.3866 -0.1205
 6126TIP3    H142573   2.877   4.140   4.253 -0.4240  1.0502 -1.5434
 6126TIP3    H242574   2.741   4.122   4.315  0.6346 -0.6027  0.3963
 6127TIP3   OH242575   2.082   5.787   3.280 -0.0860  0.0256 -0.3453
 6127TIP3    H142576   2.095   5.851   3.350 -0.9038  1.6055 -1.5730
 6127TIP3    H242577   2.091   5.702   3.324  0.1793  0.9514  1.5124
 6128TIP3   OH242578   2.830   7.270   4.005 -0.4924 -0.2808  0.2629
 6128TIP3    H142579   2.787   7.257   3.920 -1.6943 -0.0450  0.8180
 6128TIP3    H242580   2.763   7.249   4.069 -0.9939  3.4663  1.2261
 6129TIP3   OH242581   0.859   2.650   4.552 -0.5659 -0.1472 -0.5594
 6129TIP3    H142582   0.885   2.609   4.634 -0.2666 -0.3666 -0.7623
 6129TIP3    H242583   0.851   2.743   4.573 -0.0920 -0.1441 -0.3771
 6130TIP3   OH242584   1.330   6.783   4.546 -0.0244 -0.2086 -0.3495
 6130TIP3    H142585   1.278   6.830   4.611  1.4033  1.0080 -0.0290
 6130TIP3    H242586   1.406   6.751   4.595  1.0702  0.7163 -1.3757
 6131TIP3   OH242587   3.044   3.734   4.373  0.1716 -0.3328  0.2329
 6131TIP3    H142588   3.006   3.664   4.427  0.5986 -0.8393 -0.1082
 6131TIP3    H242589   3.058   3.806   4.434 -0.6504 -0.3910  0.5165
 6132TIP3   OH242590   1.270   1.919   2.323  0.1049 -0.4064  0.0039
 6132TIP3    H142591   1.312   1.850   2.271 -1.5162  0.5027 -2.7225
 6132TIP3    H242592   1.192   1.876   2.359  1.2699 -1.0589  1.9220
 6133TIP3   OH242593   3.940   7.487   3.128  0.0848 -0.0212 -0.1720
 6133TIP3    H142594   3.922   7.573   3.088 -0.4387 -0.3464 -0.6588
 6133TIP3    H242595   3.965   7.507   3.218 -1.0677  0.5916  0.0429
 6134TIP3   OH242596   0.834   5.798   2.564  0.3987 -0.3772  0.3385
 6134TIP3    H142597   0.800   5.797   2.653  1.7981  0.0745  0.9008
 6134TIP3    H242598   0.807   5.715   2.527 -1.1751 -0.0954  0.7897
 6135TIP3   OH242599   7.582   0.563   2.163  0.1341 -0.3410 -0.2678
 6135TIP3    H142600   7.542   0.478   2.142  2.4580 -1.7345  0.4767
 6135TIP3    H242601   7.605   0.601   2.078 -0.0445 -0.9357 -0.5863
 6136TIP3   OH242602   3.244   3.072   2.705  0.4162  0.3918  0.3039
 6136TIP3    H142603   3.283   2.991   2.672  0.0355  0.3795 -0.1231
 6136TIP3    H242604   3.261   3.070   2.799  1.7979  0.5884  0.0684
 6137TIP3   OH242605   4.750   1.564   2.316  0.1229  0.1035  0.5658
 6137TIP3    H142606   4.828   1.525   2.356 -0.2397 -1.9557 -0.6373
 6137TIP3    H242607   4.689   1.576   2.389 -0.3481 -3.1294  0.8288
 6138TIP3   OH242608   6.630   0.592   2.450 -0.0224 -0.4471 -0.0600
 6138TIP3    H142609   6.632   0.599   2.545  0.9704 -1.6139  0.0289
 6138TIP3    H242610   6.683   0.666   2.419  0.9366 -0.9556  0.3567
 6139TIP3   OH242611   0.766   3.598   2.234  0.6788 -0.3569  0.3863
 6139TIP3    H142612   0.716   3.526   2.196  1.6835 -0.1873 -1.3540
 6139TIP3    H242613   0.852   3.593   2.192  0.4967  2.3667 -0.4937
 6140TIP3   OH242614   0.178   4.848   2.508  0.2308  0.1323 -0.5362
 6140TIP3    H142615   0.164   4.900   2.429 -0.6385  1.0169  0.1681
 6140TIP3    H242616   0.236   4.901   2.562  1.1578 -0.6559 -0.7334
 6141TIP3   OH242617   2.002   1.483   4.153  0.4215 -0.6259 -0.4412
 6141TIP3    H142618   2.061   1.458   4.081  0.1704 -0.8006 -0.5846
 6141TIP3    H242619   2.005   1.409   4.213  2.0160  0.2355  0.6185
 6142TIP3   OH242620   4.918   5.626   3.271  0.0220 -0.4792 -0.1277
 6142TIP3    H142621   4.850   5.663   3.215 -1.8290 -1.1580  1.5370
 6142TIP3    H242622   4.956   5.701   3.316  1.9207  0.1467 -2.5304
 6143TIP3   OH242623   3.416   7.165   3.140 -0.6993 -0.5762  0.1215
 6143TIP3    H142624   3.458   7.108   3.075 -0.2918  0.5186 -0.6029
 6143TIP3    H242625   3.483   7.231   3.161 -1.9753  1.1570 -0.9881
 6144TIP3   OH242626   5.504   0.445   4.005 -0.3069 -0.2450 -0.2910
 6144TIP3    H142627   5.455   0.367   3.981  0.7203 -1.1024  0.2952
 6144TIP3    H242628   5.464   0.475   4.086  0.0142 -0.8341  0.0891
 6145TIP3   OH242629   1.504   2.227   3.715  0.1348  0.2487 -0.1566
 6145TIP3    H142630   1.502   2.283   3.793  1.2620  0.6464 -0.3940
 6145TIP3    H242631   1.560   2.274   3.654  3.1763 -2.2231  0.4943
 6146TIP3   OH242632   6.952   4.534   3.294 -0.3629  0.0370 -0.0503
 6146TIP3    H142633   7.007   4.527   3.216  0.5613  0.1625  0.5655
 6146TIP3    H242634   6.998   4.597   3.350 -1.0130 -0.0387  0.5898
 6147TIP3   OH242635   6.597   5.979   3.532 -0.7046  0.6957  0.5928
 6147TIP3    H142636   6.528   5.936   3.583 -0.0860 -0.4899  0.4753
 6147TIP3    H242637   6.666   5.913   3.524 -0.2101  1.3144 -0.6276
 6148TIP3   OH242638   0.926   5.359   1.974 -0.2227  0.5400 -0.5216
 6148TIP3    H142639   0.944   5.265   1.976  0.1603  0.6232 -0.0519
 6148TIP3    H242640   1.009   5.400   1.999 -0.7086  0.9668  0.4157
 6149TIP3   OH242641   7.452   6.551   3.086 -0.1229  0.6924 -0.4738
 6149TIP3    H142642   7.404   6.633   3.094  0.2941  0.9883 -0.9715
 6149TIP3    H242643   7.393   6.493   3.038 -0.9735  0.2396  1.0321
 6150TIP3   OH242644   0.119   6.463   4.843  0.5956  0.2459  0.2243
 6150TIP3    H142645   0.107   6.468   4.938  1.5552  1.0632  0.3275
 6150TIP3    H242646   0.095   6.374   4.820 -0.1861  0.1976  1.1502
 6151TIP3   OH242647   7.132   6.013   3.134 -0.2358  0.5211  0.0714
 6151TIP3    H142648   7.092   5.940   3.182 -0.0036  0.6614  0.4861
 6151TIP3    H242649   7.200   5.972   3.081 -0.0044  0.4532  0.4186
 6152TIP3   OH242650   1.630   6.189   3.182  0.3369  0.0213  0.0942
 6152TIP3    H142651   1.622   6.283   3.166  1.7307  0.0179 -0.7571
 6152TIP3    H242652   1.675   6.184   3.267 -1.2565  0.0757  0.9893
 6153TIP3   OH242653   1.458   6.445   3.676 -0.0019 -0.1401 -0.0876
 6153TIP3    H142654   1.411   6.384   3.619  0.6648 -0.1352 -0.6586
 6153TIP3    H242655   1.391   6.506   3.706 -0.2150  0.4056 -1.5858
 6154TIP3   OH242656   2.769   4.726   3.826 -0.1942  0.4806 -0.3909
 6154TIP3    H142657   2.757   4.701   3.918  2.6740  1.9063  0.4826
 6154TIP3    H242658   2.834   4.664   3.793  0.9514  1.7280 -0.5602
 6155TIP3   OH242659   4.895   0.237   2.352 -0.4420  0.5528  0.1900
 6155TIP3    H142660   4.978   0.210   2.314 -0.6098 -0.7576  0.7133
 6155TIP3    H242661   4.898   0.333   2.351  0.8083  0.5212 -0.3448
 6156TIP3   OH242662   5.729   7.203   2.918  0.6671 -0.1202 -0.3215
 6156TIP3    H142663   5.745   7.297   2.910 -0.9190  0.2045 -0.0320
 6156TIP3    H242664   5.725   7.187   3.013 -1.3104 -0.0081 -0.3310
 6157TIP3   OH242665   6.952   4.097   3.933  0.0879  0.2028 -0.3091
 6157TIP3    H142666   6.991   4.081   3.847 -0.5070 -0.0330 -0.5355
 6157TIP3    H242667   6.859   4.110   3.916 -0.4562 -2.1153  0.5120
 6158TIP3   OH242668   5.189   3.310   2.591 -0.4042 -0.2312 -0.0724
 6158TIP3    H142669   5.120   3.243   2.595 -1.5812  0.8228 -1.6298
 6158TIP3    H242670   5.181   3.347   2.504  0.2340  1.9420  0.7360
 6159TIP3   OH242671   1.919   2.426   3.699 -0.5053  0.5919 -0.0220
 6159TIP3    H142672   1.954   2.465   3.780 -1.0767  1.4335 -0.1632
 6159TIP3    H242673   1.996   2.391   3.654 -0.2482 -0.4731  1.1809
 6160TIP3   OH242674   5.316   6.053   2.694  0.0901  0.1049 -0.0628
 6160TIP3    H142675   5.295   5.961   2.707 -0.4375  0.0936 -0.9025
 6160TIP3    H242676   5.312   6.066   2.599 -0.2592  1.0776  0.0643
 6161TIP3   OH242677   3.196   5.281   4.290 -0.2358  0.1545  0.3614
 6161TIP3    H142678   3.188   5.350   4.224  1.8731 -1.9315 -2.3476
 6161TIP3    H242679   3.267   5.310   4.347  0.0098  0.6261 -0.1774
 6162TIP3   OH242680   1.222   5.470   3.369 -0.2542  0.2165 -0.7195
 6162TIP3    H142681   1.317   5.468   3.353 -0.0854  1.7936 -0.1216
 6162TIP3    H242682   1.197   5.560   3.351 -1.4760  0.0530  0.0365
 6163TIP3   OH242683   6.440   6.433   3.014 -0.0145  0.8510 -0.0008
 6163TIP3    H142684   6.425   6.484   2.935 -1.5744  0.0535 -0.2514
 6163TIP3    H242685   6.535   6.434   3.026  0.0862  3.0643 -0.4693
 6164TIP3   OH242686   1.600   4.830   4.549  0.0945  0.3638  0.7178
 6164TIP3    H142687   1.621   4.923   4.538  2.3505 -0.3384 -2.1760
 6164TIP3    H242688   1.669   4.784   4.501 -2.4780 -2.7112 -0.4072
 6165TIP3   OH242689   5.492   1.122   4.636  0.0713 -0.1554  0.9052
 6165TIP3    H142690   5.476   1.028   4.646  0.4630 -0.2640  0.5174
 6165TIP3    H242691   5.423   1.151   4.576  0.2456 -0.2920  0.6343
 6166TIP3   OH242692   2.068   1.473   2.984  0.3853 -0.2862  0.3540
 6166TIP3    H142693   2.029   1.531   2.919 -1.9594 -0.9966  1.0579
 6166TIP3    H242694   2.057   1.518   3.068 -0.2102 -1.0957  0.7286
 6167TIP3   OH242695   6.725   6.212   2.850  0.0587  0.0888 -0.6675
 6167TIP3    H142696   6.801   6.156   2.835 -0.5200 -0.1344 -3.3050
 6167TIP3    H242697   6.650   6.156   2.833 -0.6963  0.6035  0.7826
 6168TIP3   OH242698   4.443   1.118   2.203  0.1235  0.4896 -0.3579
 6168TIP3    H142699   4.351   1.127   2.225 -0.2989 -1.4605 -1.1031
 6168TIP3    H242700   4.447   1.134   2.108  0.4945  0.2944 -0.3799
 6169TIP3   OH242701   0.296   1.108   8.632  0.3427 -0.4113 -0.4650
 6169TIP3    H142702   0.247   1.156   8.565  0.7138 -2.1065 -2.0376
 6169TIP3    H242703   0.303   1.019   8.597  1.7690 -1.0101  1.2106
 6170TIP3   OH242704   7.550   4.406   4.171 -0.2449 -0.2242 -0.2623
 6170TIP3    H142705   7.622   4.351   4.141 -2.3296 -2.5704 -1.3275
 6170TIP3    H242706   7.564   4.415   4.266  0.8593 -1.5785 -0.2648
 6171TIP3   OH242707   4.014   2.347   4.300 -0.0500 -0.6960 -0.2319
 6171TIP3    H142708   4.082   2.304   4.247  1.0313 -1.4885  1.6831
 6171TIP3    H242709   4.001   2.432   4.258  2.0035 -0.5958 -0.7831
 6172TIP3   OH242710   5.493   5.674   2.761 -0.0616 -0.1308 -0.7524
 6172TIP3    H142711   5.463   5.696   2.849  2.3162 -1.1758  0.3965
 6172TIP3    H242712   5.424   5.618   2.725 -1.9165  1.7417 -0.3074
 6173TIP3   OH242713   1.692   7.194   2.731  0.0030  0.2850  0.1968
 6173TIP3    H142714   1.772   7.244   2.748  0.9241 -0.6377 -1.2078
 6173TIP3    H242715   1.679   7.201   2.637 -0.1147 -1.6857  0.0329
 6174TIP3   OH242716   3.516   5.124   4.490  0.3191  0.1432 -0.0382
 6174TIP3    H142717   3.505   5.045   4.542  0.2346 -0.5599 -1.0968
 6174TIP3    H242718   3.562   5.095   4.411  0.5894  1.2111 -0.2906
 6175TIP3   OH242719   6.357   0.480   4.397  0.3969 -0.0063 -0.2398
 6175TIP3    H142720   6.361   0.572   4.371 -0.4705  0.3563  0.8215
 6175TIP3    H242721   6.265   0.466   4.420  0.1350 -1.6211 -2.0020
 6176TIP3   OH242722   4.208   0.990   4.343 -0.0253  0.2731 -0.0950
 6176TIP3    H142723   4.291   1.033   4.361  0.5508 -0.9998  0.4107
 6176TIP3    H242724   4.189   0.940   4.422 -0.2620 -1.0337 -0.9456
 6177TIP3   OH242725   3.130   5.168   4.809 -0.0837  0.5550 -0.0972
 6177TIP3    H142726   3.066   5.121   4.757  0.6443  1.1338 -1.5644
 6177TIP3    H242727   3.085   5.186   4.892 -1.4094 -0.0235 -0.6656
 6178TIP3   OH242728   0.118   5.821   3.365  0.2562 -0.1541 -0.3145
 6178TIP3    H142729   0.147   5.896   3.416  0.3147  1.1312 -2.1559
 6178TIP3    H242730   0.175   5.749   3.393  1.6405  1.0148 -0.0210
 6179TIP3   OH242731   3.524   6.304   3.991 -0.1489 -0.1213  0.4577
 6179TIP3    H142732   3.528   6.282   4.084 -0.4223  2.5880  1.1986
 6179TIP3    H242733   3.573   6.386   3.984 -1.8342  0.7994 -1.4037
 6180TIP3   OH242734   5.286   2.535   4.025  0.0710  0.1579  0.3629
 6180TIP3    H142735   5.300   2.560   3.934  0.3326 -0.0480  0.3455
 6180TIP3    H242736   5.342   2.459   4.038  0.2073  0.3214  0.7580
 6181TIP3   OH242737   3.160   7.218   1.934  1.2741 -0.2213  0.7376
 6181TIP3    H142738   3.072   7.188   1.957  0.4713 -0.5860 -2.2663
 6181TIP3    H242739   3.168   7.303   1.977 -1.1867  0.5035 -0.0362
 6182TIP3   OH242740   2.921   6.556   2.464 -0.4759 -0.2988 -0.1674
 6182TIP3    H142741   2.923   6.532   2.556 -1.9776 -1.3186 -0.3623
 6182TIP3    H242742   2.975   6.635   2.458 -0.0773 -0.4124  1.5064
 6183TIP3   OH242743   6.872   2.222   3.182 -0.0997  0.0413  0.6246
 6183TIP3    H142744   6.962   2.225   3.149 -0.4339 -0.3170 -0.3682
 6183TIP3    H242745   6.842   2.313   3.179  0.0096  0.0701  0.3000
 6184TIP3   OH242746   4.462   5.431   2.106  0.0660 -0.7709  0.0025
 6184TIP3    H142747   4.436   5.362   2.166  1.4544 -1.1301  0.2187
 6184TIP3    H242748   4.383   5.448   2.053 -0.8552 -1.1690  1.2120
 6185TIP3   OH242749   6.232   6.381   3.208  0.5672 -0.3169 -0.1340
 6185TIP3    H142750   6.310   6.402   3.156  0.8195 -0.6547  0.1024
 6185TIP3    H242751   6.233   6.286   3.215  0.4893 -0.2818  0.4137
 6186TIP3   OH242752   6.718   2.259   4.449  0.1792  0.2220  0.2928
 6186TIP3    H142753   6.806   2.278   4.414  0.4784 -0.0211  0.9052
 6186TIP3    H242754   6.676   2.345   4.457  0.6568  0.4169  0.7656
 6187TIP3   OH242755   3.516   6.302   2.385  0.3342  0.1152  0.1270
 6187TIP3    H142756   3.544   6.252   2.308  0.0869  0.1705  0.0008
 6187TIP3    H242757   3.421   6.292   2.387  0.4617 -1.1363  1.2869
 6188TIP3   OH242758   7.023   5.165   3.764  0.2522  0.7322  0.1678
 6188TIP3    H142759   7.029   5.245   3.816 -0.7306  1.5003 -0.8616
 6188TIP3    H242760   6.971   5.189   3.688  0.3940 -0.7555 -0.4391
 6189TIP3   OH242761   5.477   6.079   4.921 -0.1390 -0.2233  0.1402
 6189TIP3    H142762   5.451   6.030   4.843  0.9543  0.8140 -0.9185
 6189TIP3    H242763   5.441   6.166   4.909 -0.0296 -0.0716  0.8405
 6190TIP3   OH242764   3.374   0.408   4.382 -0.3461 -0.6770  0.3921
 6190TIP3    H142765   3.428   0.342   4.339 -0.8336 -1.2077  0.5890
 6190TIP3    H242766   3.436   0.478   4.404  0.4047 -1.5834  1.2443
 6191TIP3   OH242767   1.777   0.345   4.978 -0.5375 -0.3234 -0.1833
 6191TIP3    H142768   1.819   0.427   5.006  0.9170 -1.0629 -0.0835
 6191TIP3    H242769   1.801   0.282   5.046  0.5149 -1.4276 -1.5238
 6192TIP3   OH242770   3.816   6.964   4.601 -0.0804  0.0054 -0.2620
 6192TIP3    H142771   3.812   6.903   4.675 -1.0868  2.0433  1.4790
 6192TIP3    H242772   3.731   6.955   4.559 -0.2617  0.2295  0.0464
 6193TIP3   OH242773   3.889   5.388   3.300  0.3309  0.1291  0.0941
 6193TIP3    H142774   3.868   5.336   3.222  0.0270  0.3941 -0.0021
 6193TIP3    H242775   3.824   5.458   3.301 -0.6886 -0.7698  1.4695
 6194TIP3   OH242776   2.529   6.316   2.355  0.3214  0.1840  0.2203
 6194TIP3    H142777   2.555   6.297   2.445  0.4716  0.1509  0.1688
 6194TIP3    H242778   2.551   6.408   2.342 -2.1954  0.9891  1.1180
 6195TIP3   OH242779   3.387   4.429   2.188  0.3536  0.1326  0.1448
 6195TIP3    H142780   3.327   4.358   2.165 -0.8215  0.1427  2.7674
 6195TIP3    H242781   3.474   4.396   2.163 -0.4543 -0.9641 -1.3679
 6196TIP3   OH242782   4.482   2.660   2.877 -0.2704  0.2537  0.4506
 6196TIP3    H142783   4.430   2.739   2.895  1.8049  2.0941 -1.1216
 6196TIP3    H242784   4.572   2.690   2.875  0.5336 -1.9497 -1.2981
 6197TIP3   OH242785   4.985   7.672   3.201 -0.0653 -0.0068 -0.2375
 6197TIP3    H142786   5.057   7.728   3.228  0.3637  0.7194 -2.6569
 6197TIP3    H242787   5.017   7.628   3.122 -1.6014 -1.1039 -0.2934
 6198TIP3   OH242788   1.132   0.990   2.780 -0.6786  0.4267  0.2681
 6198TIP3    H142789   1.162   0.971   2.868 -1.6586  2.3792  1.0750
 6198TIP3    H242790   1.038   0.970   2.781 -0.5985 -0.0497 -0.5072
 6199TIP3   OH242791   4.568   4.082   3.262  0.1072  0.2459  0.1061
 6199TIP3    H142792   4.533   4.108   3.347  1.7085 -1.3641  1.3389
 6199TIP3    H242793   4.663   4.089   3.272  0.3697 -1.0299 -1.1748
 6200TIP3   OH242794   7.421   3.264   3.221  0.2340  0.2487  0.5828
 6200TIP3    H142795   7.479   3.323   3.270  0.2809  1.3214 -0.7093
 6200TIP3    H242796   7.480   3.211   3.167  0.1761 -0.8798  1.5752
 6201TIP3   OH242797   1.399   4.370   4.477 -0.4840 -0.3581 -0.6500
 6201TIP3    H142798   1.371   4.461   4.468  0.6189  0.1393  0.6407
 6201TIP3    H242799   1.326   4.327   4.522  0.1368  0.6175  1.4520
 6202TIP3   OH242800   5.810   2.573   3.238  0.5552  0.6666  0.2861
 6202TIP3    H142801   5.862   2.502   3.276 -1.6896 -0.8845  0.7095
 6202TIP3    H242802   5.802   2.549   3.145  0.4652  0.7776  0.2645
 6203TIP3   OH242803   7.627   4.854   3.470 -0.5787 -0.5475 -0.1369
 6203TIP3    H142804   7.562   4.865   3.539 -1.4368  0.3119 -1.0520
 6203TIP3    H242805   7.706   4.827   3.516 -0.6649  1.5335  1.3906
 6204TIP3   OH242806   1.600   2.640   5.004 -0.7081  0.1824  0.0510
 6204TIP3    H142807   1.641   2.690   4.934 -0.0511  0.4565  0.6165
 6204TIP3    H242808   1.663   2.570   5.024  0.5354  1.8373  2.3605
 6205TIP3   OH242809   5.222   6.456   3.505  0.1333 -0.0481 -0.3983
 6205TIP3    H142810   5.300   6.512   3.507 -0.2397  0.5034 -0.9347
 6205TIP3    H242811   5.194   6.458   3.414 -0.8562  0.2529 -0.0936
 6206TIP3   OH242812   0.328   5.800   3.140 -0.7687 -0.4563 -0.1586
 6206TIP3    H142813   0.414   5.759   3.149 -0.0802  1.0843  0.5165
 6206TIP3    H242814   0.274   5.756   3.205  0.2615  0.4253  1.3657
 6207TIP3   OH242815   0.464   3.868   3.476  0.0711 -0.1022  0.2677
 6207TIP3    H142816   0.515   3.887   3.397  1.8556  1.9640  1.7819
 6207TIP3    H242817   0.392   3.931   3.474 -0.4130 -0.6534 -0.1148
 6208TIP3   OH242818   6.221   4.677   4.524 -0.4478  0.6286 -0.3768
 6208TIP3    H142819   6.203   4.614   4.593 -1.0683  1.6312  0.3975
 6208TIP3    H242820   6.193   4.633   4.444  0.3495 -0.5758 -0.0274
 6209TIP3   OH242821   4.715   5.679   3.089  0.4208  0.2034 -0.4193
 6209TIP3    H142822   4.715   5.669   2.994 -0.2923 -0.3035 -0.3744
 6209TIP3    H242823   4.622   5.677   3.113  0.6285 -2.6879  0.5707
 6210TIP3   OH242824   1.232   7.131   5.113  0.1941  0.1263 -0.6257
 6210TIP3    H142825   1.212   7.057   5.056 -1.2323  0.2896 -0.3711
 6210TIP3    H242826   1.276   7.194   5.056  0.4474 -0.4640 -1.0929
 6211TIP3   OH242827   6.483   0.208   4.330  0.0216  0.6725 -0.3269
 6211TIP3    H142828   6.437   0.280   4.372 -0.1882 -0.4318  1.4191
 6211TIP3    H242829   6.572   0.211   4.365 -0.9723 -2.2209  3.0057
 6212TIP3   OH242830   0.584   4.462   3.314  0.0454  0.2702  0.2132
 6212TIP3    H142831   0.641   4.387   3.332  0.6743  0.4321 -1.0018
 6212TIP3    H242832   0.643   4.538   3.322 -0.5476  0.6381  1.2778
 6213TIP3   OH242833   2.947   2.351   2.037 -0.1325  0.2764  0.6173
 6213TIP3    H142834   2.887   2.417   2.003 -0.8069  0.9220  2.8419
 6213TIP3    H242835   2.889   2.284   2.074  0.5092  0.2652  1.6312
 6214TIP3   OH242836   2.788   3.617   3.913  0.3636  0.5357 -0.1781
 6214TIP3    H142837   2.806   3.599   4.006 -0.3384  3.4829  0.6591
 6214TIP3    H242838   2.874   3.614   3.872  0.7132 -0.6588  0.5760
 6215TIP3   OH242839   1.526   1.834   3.552 -0.0762  0.3571 -0.4681
 6215TIP3    H142840   1.544   1.912   3.501  0.6351  0.6030  0.1345
 6215TIP3    H242841   1.607   1.818   3.601  0.0978 -1.2302 -1.2017
 6216TIP3   OH242842   7.106   2.392   3.359  0.0132 -0.5408 -0.0744
 6216TIP3    H142843   7.150   2.332   3.420  1.1762  0.4061  0.0682
 6216TIP3    H242844   7.122   2.354   3.272 -2.0579 -2.1577  0.1623
 6217TIP3   OH242845   6.259   7.291   3.223  0.4274 -0.3914 -0.2280
 6217TIP3    H142846   6.210   7.364   3.261  0.3809 -0.7922  0.5071
 6217TIP3    H242847   6.195   7.245   3.168  0.0625 -0.7092  0.4522
 6218TIP3   OH242848   6.941   3.428   3.308 -0.4405 -0.0948  0.4414
 6218TIP3    H142849   7.012   3.424   3.244  0.3125  0.2566  1.2368
 6218TIP3    H242850   6.929   3.522   3.325 -0.3284 -0.2003  1.1398
 6219TIP3   OH242851   7.234   1.851   3.743  0.2807 -0.0319 -0.0764
 6219TIP3    H142852   7.285   1.829   3.665  0.4755  2.3535 -0.7043
 6219TIP3    H242853   7.257   1.783   3.807 -0.4210 -2.4822 -2.2483
 6220TIP3   OH242854   1.222   6.287   4.906  0.4517 -0.6664  0.5805
 6220TIP3    H142855   1.166   6.351   4.861  1.7342  1.3571  1.7287
 6220TIP3    H242856   1.288   6.263   4.840  0.0036 -0.7892  0.1662
 6221TIP3   OH242857   1.514   3.105   2.986  0.2066 -0.0739  0.2872
 6221TIP3    H142858   1.465   3.061   3.055 -0.7677  0.6391  0.0644
 6221TIP3    H242859   1.605   3.095   3.011 -0.0688 -1.0113  0.9616
 6222TIP3   OH242860   2.696   4.230   4.485  1.3121  0.1479 -0.4187
 6222TIP3    H142861   2.755   4.306   4.488  1.1598  0.2388  0.2866
 6222TIP3    H242862   2.732   4.170   4.549  0.2148  0.5117  0.5675
 6223TIP3   OH242863   3.831   6.339   5.073 -0.0674  0.3343  0.0863
 6223TIP3    H142864   3.793   6.352   5.159  0.0863 -2.1397  0.6042
 6223TIP3    H242865   3.827   6.425   5.032 -0.7935  1.4269  2.2754
 6224TIP3   OH242866   4.444   1.873   5.080 -0.5261 -0.1599  0.0649
 6224TIP3    H142867   4.489   1.946   5.121 -1.1506 -1.5380  3.5638
 6224TIP3    H242868   4.381   1.914   5.021  3.1094  1.8648 -2.8532
 6225TIP3   OH242869   1.990   2.673   3.478  0.3352  0.1624 -0.1265
 6225TIP3    H142870   2.033   2.630   3.553 -0.5442  0.3245  0.4887
 6225TIP3    H242871   2.009   2.766   3.489  1.8020  0.0177 -1.1736
 6226TIP3   OH242872   1.130   5.315   2.780  0.3824 -0.4968  0.5811
 6226TIP3    H142873   1.068   5.250   2.746 -1.5447  1.5946 -0.1914
 6226TIP3    H242874   1.193   5.264   2.830  0.2394 -3.1678 -1.7272
 6227TIP3   OH242875   1.246   6.262   4.272 -0.5134  0.1579  0.4625
 6227TIP3    H142876   1.299   6.183   4.271  1.1506  1.1871 -1.7182
 6227TIP3    H242877   1.159   6.234   4.242  0.8419 -0.4817 -3.4004
 6228TIP3   OH242878   3.971   0.793   5.243 -0.3887 -0.1625  0.6623
 6228TIP3    H142879   3.880   0.778   5.270 -1.2035  0.9563 -1.2529
 6228TIP3    H242880   3.989   0.722   5.181 -0.0273 -0.2426  0.8551
 6229TIP3   OH242881   4.437   3.834   3.926 -0.1300  0.7268 -0.2145
 6229TIP3    H142882   4.441   3.751   3.975 -0.3283  1.0228  0.3115
 6229TIP3    H242883   4.353   3.830   3.880  1.0838 -0.6285 -2.5083
 6230TIP3   OH242884   1.149   3.446   2.584 -0.1488 -0.2812  0.5062
 6230TIP3    H142885   1.078   3.495   2.625  0.9336  0.3476  1.6968
 6230TIP3    H242886   1.210   3.428   2.655  0.5629 -1.4091 -0.3557
 6231TIP3   OH242887   2.635   3.011   4.495  0.1138  0.4113 -0.2299
 6231TIP3    H142888   2.681   2.929   4.506 -0.5334  0.0707 -0.0049
 6231TIP3    H242889   2.702   3.073   4.467  1.0409  0.3338  1.6435
 6232TIP3   OH242890   7.562   1.063   3.418  0.4505  0.1557  0.5558
 6232TIP3    H142891   7.581   0.970   3.433  0.0663 -0.2446 -1.1785
 6232TIP3    H242892   7.479   1.063   3.370  1.0637  1.2962 -0.5874
 6233TIP3   OH242893   2.924   2.646   4.082  0.4385  0.6137  0.1799
 6233TIP3    H142894   2.922   2.735   4.047 -2.0011  0.1577 -1.0191
 6233TIP3    H242895   2.887   2.654   4.170  1.2548  0.9190  0.5057
 6234TIP3   OH242896   3.541   4.835   3.729  0.5434 -0.6851  0.0030
 6234TIP3    H142897   3.602   4.828   3.802 -0.0702 -1.8915  0.4160
 6234TIP3    H242898   3.456   4.850   3.770 -0.2486 -3.7995 -0.2555
 6235TIP3   OH242899   4.855   7.152   4.598  0.1416  0.4963  0.3295
 6235TIP3    H142900   4.772   7.137   4.553 -0.2204  1.7750  0.5358
 6235TIP3    H242901   4.832   7.204   4.674  1.1191  0.7384  0.4714
 6236TIP3   OH242902   4.270   3.328   3.061  0.4230  0.1586 -0.8331
 6236TIP3    H142903   4.282   3.306   2.969 -2.0289 -2.5793 -0.6329
 6236TIP3    H242904   4.285   3.245   3.107  0.0394  1.1042  1.0832
 6237TIP3   OH242905   4.646   6.249   4.794 -0.2902 -0.7122  0.0755
 6237TIP3    H142906   4.691   6.295   4.865  1.5921 -1.3494 -0.6247
 6237TIP3    H242907   4.648   6.157   4.821 -0.2980 -0.8617 -0.4287
 6238TIP3   OH242908   2.780   2.766   3.736 -0.5823  0.0678 -0.5089
 6238TIP3    H142909   2.687   2.788   3.745 -1.1122 -0.1800 -3.8642
 6238TIP3    H242910   2.825   2.849   3.748 -1.5290  0.7730 -1.6075
 6239TIP3   OH242911   0.642   0.656   4.036 -0.1492 -0.2242 -0.0442
 6239TIP3    H142912   0.663   0.562   4.037 -0.2043 -0.2676 -1.3567
 6239TIP3    H242913   0.564   0.663   3.980 -0.4336  0.5572  0.4321
 6240TIP3   OH242914   4.566   3.270   4.460  0.1473  0.9958  0.4147
 6240TIP3    H142915   4.580   3.232   4.547 -1.1176  1.0097  0.6468
 6240TIP3    H242916   4.605   3.207   4.400 -0.9484 -0.1506  0.8623
 6241TIP3   OH242917   3.517   0.342   2.276  0.2080 -0.6806 -0.3637
 6241TIP3    H142918   3.434   0.372   2.312  0.1452 -0.3902 -0.7353
 6241TIP3    H242919   3.537   0.405   2.206  1.1412 -0.2819  0.2485
 6242TIP3   OH242920   4.762   7.372   3.058 -0.0188 -0.1578  0.1440
 6242TIP3    H142921   4.805   7.385   2.973  0.2693  0.4574  0.3772
 6242TIP3    H242922   4.721   7.456   3.077  1.3945  0.2969  1.4193
 6243TIP3   OH242923   4.601   1.101   4.227  0.0582 -0.4536 -0.0572
 6243TIP3    H142924   4.586   1.066   4.139  0.4279  0.2155 -0.3923
 6243TIP3    H242925   4.695   1.118   4.230 -0.0907  0.3353  0.1633
 6244TIP3   OH242926   0.269   5.589   4.891 -0.1482  0.2521  0.7009
 6244TIP3    H142927   0.199   5.653   4.904  1.1567  1.7343  0.6795
 6244TIP3    H242928   0.335   5.612   4.957  1.2826  0.3077 -0.6912
 6245TIP3   OH242929   6.344   6.773   2.565  0.8539  0.4137  0.2623
 6245TIP3    H142930   6.369   6.835   2.496 -0.9468  0.5571 -0.3087
 6245TIP3    H242931   6.327   6.691   2.518 -1.2767  0.7458  0.3482
 6246TIP3   OH242932   6.262   2.441   2.680 -0.5401  0.4097 -0.1502
 6246TIP3    H142933   6.200   2.507   2.651 -0.2705  0.3463 -0.9038
 6246TIP3    H242934   6.286   2.467   2.769 -2.0713  0.1111  0.3852
 6247TIP3   OH242935   4.967   3.124   2.612 -0.1417 -0.2414  0.0736
 6247TIP3    H142936   4.891   3.173   2.581 -0.7553 -0.7981  0.6655
 6247TIP3    H242937   4.939   3.087   2.696  0.2791 -1.6520 -0.3828
 6248TIP3   OH242938   2.827   5.513   4.174  0.1180 -0.4977 -0.1818
 6248TIP3    H142939   2.827   5.575   4.247 -0.3459  0.5975 -1.0913
 6248TIP3    H242940   2.919   5.510   4.146  0.0754  0.0986 -0.3950
 6249TIP3   OH242941   7.094   4.213   3.550  0.3772  0.3264 -0.4218
 6249TIP3    H142942   7.045   4.270   3.610  0.2679  1.8245 -1.8640
 6249TIP3    H242943   7.056   4.229   3.464 -0.1383 -2.5184 -0.8276
 6250TIP3   OH242944   7.501   3.594   4.550  0.6900 -0.4253  0.3226
 6250TIP3    H142945   7.427   3.535   4.537  1.0724 -0.6666 -0.9426
 6250TIP3    H242946   7.462   3.681   4.551  0.3441 -0.5731  0.0003
 6251TIP3   OH242947   1.784   0.292   3.369 -0.1263 -0.3711  0.6213
 6251TIP3    H142948   1.720   0.354   3.401 -0.5541  0.9183 -2.4050
 6251TIP3    H242949   1.868   0.325   3.401 -0.5304  0.7694  0.5423
 6252TIP3   OH242950   3.212   4.143   3.203  0.0393  0.5574  0.2154
 6252TIP3    H142951   3.227   4.072   3.266 -2.1010  0.5992  0.8641
 6252TIP3    H242952   3.127   4.121   3.164 -0.2646  2.3277 -0.1686
 6253TIP3   OH242953   1.957   2.784   3.203 -0.3417 -0.1309  0.1634
 6253TIP3    H142954   1.869   2.816   3.225 -0.0831  0.8606 -0.1838
 6253TIP3    H242955   1.983   2.733   3.280  0.3430  2.8555  2.0943
 6254TIP3   OH242956   0.827   1.403   3.383  0.2902 -0.3998  0.3911
 6254TIP3    H142957   0.783   1.487   3.371  0.7357 -0.1605  0.4109
 6254TIP3    H242958   0.867   1.384   3.298  0.4065 -0.4635  0.4580
 6255TIP3   OH242959   1.071   4.454   2.905 -0.2212 -0.3718 -0.5398
 6255TIP3    H142960   1.131   4.442   2.831 -2.0056 -0.8187 -1.9679
 6255TIP3    H242961   0.985   4.429   2.871 -1.7470  2.7728  0.5779
 6256TIP3   OH242962   7.651   4.878   2.705  0.1117  0.1881 -0.3206
 6256TIP3    H142963   7.708   4.848   2.635  0.0605  1.4586 -0.9341
 6256TIP3    H242964   7.563   4.856   2.676  0.1501 -0.1277 -0.2082
 6257TIP3   OH242965   4.727   6.389   5.057 -0.2434  0.1108 -0.0766
 6257TIP3    H142966   4.632   6.390   5.051 -0.1461  0.6882 -2.1608
 6257TIP3    H242967   4.750   6.473   5.096 -0.6417 -1.3044  3.6516
 6258TIP3   OH242968   2.194   3.918   4.068  0.7425 -0.3197  0.4345
 6258TIP3    H142969   2.260   3.987   4.059 -0.7525  1.1347  0.1493
 6258TIP3    H242970   2.194   3.898   4.162 -0.0815  1.4312  0.8544
 6259TIP3   OH242971   2.353   1.254   2.225  0.2412  0.1760 -0.2316
 6259TIP3    H142972   2.267   1.250   2.184  0.0711 -0.3685  0.1630
 6259TIP3    H242973   2.402   1.318   2.173  0.4670 -1.4252 -2.1527
 6260TIP3   OH242974   1.880   4.513   2.281 -0.3382 -0.5313  0.3129
 6260TIP3    H142975   1.835   4.524   2.364  0.4034 -1.6296  0.8763
 6260TIP3    H242976   1.886   4.419   2.268  0.4532 -0.3917 -0.4939
 6261TIP3   OH242977   5.584   6.406   2.327  0.1073 -0.2820  0.2356
 6261TIP3    H142978   5.506   6.402   2.272 -0.3569  0.1531  0.8482
 6261TIP3    H242979   5.553   6.441   2.411  1.2782  1.8391 -0.1307
 6262TIP3   OH242980   1.947   6.850   2.972  0.4396  0.4804 -0.1198
 6262TIP3    H142981   1.970   6.759   2.990  1.2336  0.8058  0.5919
 6262TIP3    H242982   1.915   6.883   3.057  0.0983  0.8496 -0.3882
 6263TIP3   OH242983   3.353   6.435   3.787 -0.0972  0.1836  0.1778
 6263TIP3    H142984   3.402   6.386   3.853  2.6298 -0.8217 -2.3562
 6263TIP3    H242985   3.277   6.380   3.768  0.7877 -1.1185  0.2588
 6264TIP3   OH242986   1.769   7.373   2.960 -0.2458  0.6036  0.2479
 6264TIP3    H142987   1.844   7.355   2.904 -0.5578  1.0813 -0.3318
 6264TIP3    H242988   1.752   7.467   2.949 -0.6979  0.5808  0.6620
 6265TIP3   OH242989   2.367   6.415   3.784 -0.0565 -0.0750  0.0012
 6265TIP3    H142990   2.414   6.356   3.843 -0.6444 -0.9201 -0.3581
 6265TIP3    H242991   2.432   6.481   3.759  0.5863 -0.5183  0.4890
 6266TIP3   OH242992   0.701   3.688   4.805  0.3421  0.4165 -0.1848
 6266TIP3    H142993   0.648   3.631   4.748  1.2883  1.5552 -2.3539
 6266TIP3    H242994   0.644   3.763   4.821  0.9208  1.2511 -1.8105
 6267TIP3   OH242995   1.028   2.447   2.360 -0.7134  0.3512  0.5175
 6267TIP3    H142996   1.067   2.443   2.447 -2.1313 -0.5643  1.1281
 6267TIP3    H242997   1.041   2.360   2.323 -0.9433  0.4580  0.1773
 6268TIP3   OH242998   4.020   4.816   2.234  0.2140  0.0976  1.0247
 6268TIP3    H142999   4.083   4.878   2.270  0.0321  0.6210  0.4705
 6268TIP3    H243000   3.947   4.871   2.204  0.4714 -0.2807 -0.3649
 6269TIP3   OH243001   5.817   3.626   3.513  0.3486 -0.3521  0.3286
 6269TIP3    H143002   5.790   3.717   3.525  2.2495  0.1173  1.4902
 6269TIP3    H243003   5.847   3.622   3.422 -0.3098  0.0133  0.0890
 6270TIP3   OH243004   6.801   4.361   2.583  0.1008  0.0187  0.1862
 6270TIP3    H143005   6.718   4.409   2.583  0.3686  0.4833  0.6940
 6270TIP3    H243006   6.824   4.351   2.675  1.2308  0.9851  0.0347
 6271TIP3   OH243007   7.326   7.066   3.883 -0.6224  0.3164 -0.2994
 6271TIP3    H143008   7.399   7.034   3.832  0.2684 -0.1620  1.2331
 6271TIP3    H243009   7.352   7.154   3.911  0.2699 -0.5524  1.8418
 6272TIP3   OH243010   2.634   6.213   3.097 -0.4164 -0.0141 -0.3826
 6272TIP3    H143011   2.680   6.147   3.044  1.0351  0.3482  0.3736
 6272TIP3    H243012   2.595   6.163   3.169 -0.9008 -0.2789 -0.8249
 6273TIP3   OH243013   4.253   7.449   2.174  0.1185 -0.2383 -0.2395
 6273TIP3    H143014   4.217   7.362   2.159  0.1892 -0.1695 -0.8508
 6273TIP3    H243015   4.222   7.501   2.100  1.1313 -0.0771 -0.5694
 6274TIP3   OH243016   3.451   0.965   3.350  0.4792  0.1836 -0.3188
 6274TIP3    H143017   3.500   0.882   3.343  2.8269  1.5667 -1.6685
 6274TIP3    H243018   3.401   0.969   3.269  0.5429  0.1866 -0.3586
 6275TIP3   OH243019   2.173   7.282   3.997  0.2684 -0.0684 -0.2195
 6275TIP3    H143020   2.223   7.287   4.078  1.6017  0.3973 -1.0403
 6275TIP3    H243021   2.230   7.321   3.931 -1.0924  0.2737 -1.2487
 6276TIP3   OH243022   5.806   1.457   3.130 -0.4248 -0.7786 -0.0535
 6276TIP3    H143023   5.875   1.490   3.072 -0.2561 -1.0694 -0.0197
 6276TIP3    H243024   5.760   1.392   3.077 -0.2592 -1.0571  0.1463
 6277TIP3   OH243025   3.501   1.925   4.163 -0.6555 -0.7054 -0.1230
 6277TIP3    H143026   3.557   1.951   4.089 -0.7083 -0.6030 -0.1271
 6277TIP3    H243027   3.521   1.988   4.231 -0.6332 -0.7792 -0.0608
 6278TIP3   OH243028   2.424   2.056   2.787  0.2190  0.1827  0.4971
 6278TIP3    H143029   2.491   2.070   2.720 -0.0841  1.2293  0.4043
 6278TIP3    H243030   2.364   2.129   2.777  0.0565  0.2534  1.7912
 6279TIP3   OH243031   1.283   7.121   4.500 -0.0632  0.1798 -0.0321
 6279TIP3    H143032   1.277   7.216   4.511  0.2616  0.0824  1.1260
 6279TIP3    H243033   1.215   7.099   4.437 -2.6038  0.7625  2.3158
 6280TIP3   OH243034   5.422   6.659   3.562  0.3004 -0.1827 -0.4112
 6280TIP3    H143035   5.419   6.753   3.542  0.6793 -0.2936 -1.0097
 6280TIP3    H243036   5.515   6.641   3.576  0.1195 -0.2581  0.7645
 6281TIP3   OH243037   2.643   7.506   3.864  0.2266  1.0911 -0.0890
 6281TIP3    H143038   2.617   7.523   3.773  2.2377  1.0639 -0.7388
 6281TIP3    H243039   2.657   7.593   3.902  0.7561  1.0846 -0.2611
 6282TIP3   OH243040   0.174   5.844   2.845 -0.1819 -0.3408  0.9326
 6282TIP3    H143041   0.106   5.792   2.803 -1.2579  1.0786  0.8411
 6282TIP3    H243042   0.235   5.780   2.880 -0.9543 -1.6275  0.0087
 6283TIP3   OH243043   7.380   0.723   3.248 -0.0906  0.1507 -0.2573
 6283TIP3    H143044   7.402   0.735   3.340 -2.4601  0.7248  0.3106
 6283TIP3    H243045   7.327   0.799   3.225 -0.4513 -0.5161 -1.7874
 6284TIP3   OH243046   5.642   2.664   3.904  0.2019  0.1942  0.3621
 6284TIP3    H143047   5.584   2.681   3.830  0.2562  0.1020  0.2987
 6284TIP3    H243048   5.716   2.616   3.866 -0.1948 -0.6359  0.6344
 6285TIP3   OH243049   7.306   4.502   3.488 -0.0924 -0.3965  0.8396
 6285TIP3    H143050   7.231   4.513   3.547 -0.5214  1.0530  0.0712
 6285TIP3    H243051   7.378   4.475   3.546 -1.3483 -2.6741  1.4900
 6286TIP3   OH243052   3.327   0.717   4.548  0.5938  0.1662 -0.8044
 6286TIP3    H143053   3.409   0.708   4.500  0.5464 -2.1330 -0.5783
 6286TIP3    H243054   3.323   0.638   4.602 -2.1714 -0.2074 -1.4436
 6287TIP3   OH243055   1.197   0.466   3.978 -0.3671 -0.1649  0.1725
 6287TIP3    H143056   1.275   0.437   4.026 -0.2935 -0.1676  0.0522
 6287TIP3    H243057   1.175   0.550   4.018  0.8373  0.7744 -1.0453
 6288TIP3   OH243058   7.156   2.631   3.039  0.0455  0.4501  0.1336
 6288TIP3    H143059   7.183   2.682   3.115 -1.6690  1.1655  0.3020
 6288TIP3    H243060   7.236   2.588   3.010  1.2151  1.9941  0.9325
 6289TIP3   OH243061   6.112   2.061   4.408  0.4113 -0.6669 -0.0755
 6289TIP3    H143062   6.132   2.136   4.465  0.3774  0.6115 -1.6778
 6289TIP3    H243063   6.102   1.987   4.469 -1.2634  0.9241  1.7447
 6290TIP3   OH243064   3.282   5.350   4.699 -0.3728  0.3124 -0.3368
 6290TIP3    H143065   3.219   5.283   4.726  1.0383 -1.4126 -1.1528
 6290TIP3    H243066   3.301   5.399   4.779 -2.5391  0.7404 -0.0260
 6291TIP3   OH243067   6.666   0.532   2.722 -0.3455 -0.5829  0.3683
 6291TIP3    H143068   6.702   0.521   2.810  1.5469  0.4089 -0.2156
 6291TIP3    H243069   6.685   0.450   2.678  4.3381  0.8648 -0.8690
 6292TIP3   OH243070   4.381   4.390   3.665 -0.2345 -0.3442  0.3741
 6292TIP3    H143071   4.458   4.442   3.641 -0.8582  1.5967  2.2886
 6292TIP3    H243072   4.307   4.437   3.626 -0.6473 -0.9468  0.4182
 6293TIP3   OH243073   2.085   3.960   3.817  0.3163  0.1170 -0.0084
 6293TIP3    H143074   2.030   3.889   3.849  0.0394  0.0130 -0.6972
 6293TIP3    H243075   2.115   4.005   3.897 -0.5198 -0.0089  0.3889
 6294TIP3   OH243076   0.614   0.075   3.952  0.4355  0.0916  0.1382
 6294TIP3    H143077   0.698   0.108   3.986  1.9387 -1.1753 -2.0650
 6294TIP3    H243078   0.639   0.016   3.881 -2.3818  0.0684 -0.9502
 6295TIP3   OH243079   4.144   7.194   2.143  0.4873 -0.2215  0.0605
 6295TIP3    H143080   4.077   7.144   2.096  1.1551 -0.2818 -0.8418
 6295TIP3    H243081   4.123   7.180   2.236 -0.8733 -0.0589 -0.2005
 6296TIP3   OH243082   4.689   4.319   3.093  0.6854  0.5269  0.2149
 6296TIP3    H143083   4.763   4.349   3.147  0.3209  0.8093  0.5589
 6296TIP3    H243084   4.703   4.224   3.084  0.7537  0.4787  0.8006
 6297TIP3   OH243085   7.395   3.558   4.248  0.3343  0.6625 -0.4790
 6297TIP3    H143086   7.465   3.550   4.183  3.7759  3.1143  2.5020
 6297TIP3    H243087   7.393   3.473   4.292  1.8880  0.6973 -0.2861
 6298TIP3   OH243088   3.311   6.802   3.051  0.0777 -0.3035  0.4197
 6298TIP3    H143089   3.263   6.734   3.099  0.2601 -0.1143  0.8833
 6298TIP3    H243090   3.247   6.841   2.993 -0.4952  0.3526  1.4665
 6299TIP3   OH243091   6.536   1.879   3.538 -0.5505  0.2609 -0.6420
 6299TIP3    H143092   6.523   1.941   3.609 -0.6506  1.1824 -1.4427
 6299TIP3    H243093   6.483   1.914   3.466 -0.9049 -0.9538 -0.9894
 6300TIP3   OH243094   6.789   3.065   4.315 -0.3372 -0.1280  0.6633
 6300TIP3    H143095   6.814   3.051   4.224 -1.7386 -1.3364  0.4126
 6300TIP3    H243096   6.849   3.010   4.366 -0.2053 -0.2513  0.3770
 6301TIP3   OH243097   3.527   2.504   4.035 -0.5717  0.2402  0.4609
 6301TIP3    H143098   3.486   2.418   4.042 -0.3600  0.1803  1.0406
 6301TIP3    H243099   3.542   2.516   3.941  1.3728 -1.3008  0.5070
 6302TIP3   OH243100   6.667   2.626   2.347 -0.5275 -0.1231 -0.1692
 6302TIP3    H143101   6.604   2.586   2.287 -1.4474  0.8157  0.1483
 6302TIP3    H243102   6.660   2.720   2.330  2.0926 -0.0550 -1.3864
 6303TIP3   OH243103   6.887   5.417   2.689 -0.5556 -0.2763  0.1292
 6303TIP3    H143104   6.860   5.455   2.772 -0.5592  0.3276 -0.1384
 6303TIP3    H243105   6.944   5.345   2.712  0.3986  0.6241  0.6385
 6304TIP3   OH243106   1.784   5.983   3.460 -0.3095  0.2438  0.1286
 6304TIP3    H143107   1.783   5.963   3.366 -0.8211 -1.7327  0.5065
 6304TIP3    H243108   1.852   5.927   3.496 -1.4050 -0.4674  1.1867
 6305TIP3   OH243109   6.829   4.131   2.887 -0.6178 -0.0749  0.4469
 6305TIP3    H143110   6.794   4.085   2.810 -0.3379  0.0357  0.2504
 6305TIP3    H243111   6.921   4.144   2.866 -0.3920 -0.6160  1.0810
 6306TIP3   OH243112   0.700   3.179   2.383  0.1721 -0.2781 -0.3701
 6306TIP3    H143113   0.757   3.217   2.450 -0.3451  0.1978 -0.1938
 6306TIP3    H243114   0.673   3.253   2.329 -0.2946 -0.4934 -0.4406
 6307TIP3   OH243115   2.407   1.323   2.768  0.4480  0.2357  0.0552
 6307TIP3    H143116   2.449   1.237   2.761 -1.3709 -0.7098  0.2015
 6307TIP3    H243117   2.385   1.346   2.678 -1.1818 -0.6001  0.2001
 6308TIP3   OH243118   7.204   7.650   3.039 -0.1826  0.8297  0.4157
 6308TIP3    H143119   7.134   7.704   3.076  0.8593  1.4055  1.6285
 6308TIP3    H243120   7.167   7.615   2.958 -2.1910  0.3652  1.4747
 6309TIP3   OH243121   7.083   2.897   4.797  0.2836  0.7120  0.1131
 6309TIP3    H143122   7.169   2.879   4.760  0.8127 -0.8717  1.9754
 6309TIP3    H243123   7.029   2.823   4.770 -0.4481  1.5374 -0.7769
 6310TIP3   OH243124   3.857   2.663   3.504 -0.7212  0.1053 -0.3971
 6310TIP3    H143125   3.926   2.722   3.535 -0.1851 -0.8296  0.2441
 6310TIP3    H243126   3.776   2.701   3.538 -0.7368  1.9196 -2.1918
 6311TIP3   OH243127   4.544   2.028   4.024  0.7032  0.2893  0.1234
 6311TIP3    H143128   4.578   1.957   4.078  1.0831  0.8942  0.6971
 6311TIP3    H243129   4.461   1.995   3.991  1.1521 -0.6394 -0.0942
 6312TIP3   OH243130   4.651   2.031   4.350 -0.1821  0.2737  0.5536
 6312TIP3    H143131   4.558   2.049   4.363 -0.2613  0.3106 -0.0034
 6312TIP3    H243132   4.652   1.963   4.282  0.2190  0.8866 -0.0638
 6313TIP3   OH243133   6.383   5.904   4.387  0.0264 -0.2981  0.2925
 6313TIP3    H143134   6.410   5.992   4.413 -0.2000  0.0982 -0.7580
 6313TIP3    H243135   6.416   5.895   4.298  0.1820 -1.3452  0.4501
 6314TIP3   OH243136   3.811   4.408   2.529 -0.8246 -0.1304  0.0102
 6314TIP3    H143137   3.842   4.498   2.532 -1.0848 -0.0518  0.3951
 6314TIP3    H243138   3.723   4.415   2.491  0.0821 -0.4800 -2.2938
 6315TIP3   OH243139   2.719   0.066   4.045  0.1782 -0.1862 -0.3104
 6315TIP3    H143140   2.777   0.143   4.047  0.1393 -0.1428  2.0317
 6315TIP3    H243141   2.633   0.101   4.068 -0.1530 -0.7105 -0.7384
 6316TIP3   OH243142   2.028   4.234   4.538  0.0446 -0.1007 -0.6448
 6316TIP3    H143143   2.119   4.210   4.558  0.2886  1.4603  0.2980
 6316TIP3    H243144   1.996   4.162   4.484  1.7085 -0.8946 -0.6523
 6317TIP3   OH243145   1.718   3.861   2.491  0.4350  0.2077 -0.2047
 6317TIP3    H143146   1.637   3.911   2.485  2.0220  3.0266  0.2057
 6317TIP3    H243147   1.768   3.887   2.413  0.8453 -1.7844 -0.6721
 6318TIP3   OH243148   0.721   0.838   3.400 -0.2257 -0.2636  0.3140
 6318TIP3    H143149   0.804   0.802   3.372 -1.0275 -1.4300 -0.6517
 6318TIP3    H243150   0.664   0.831   3.323 -0.9478  1.4096  0.6481
 6319TIP3   OH243151   1.384   4.626   2.549 -0.0390 -0.2220 -0.3916
 6319TIP3    H143152   1.472   4.622   2.512  0.7210  1.9410  0.9884
 6319TIP3    H243153   1.382   4.710   2.596 -1.5209 -1.9039  2.8840
 6320TIP3   OH243154   0.387   7.491   3.329  0.1721 -0.1042  1.0272
 6320TIP3    H143155   0.438   7.494   3.409  0.6099 -1.1637  0.7958
 6320TIP3    H243156   0.450   7.468   3.261  0.1184  2.2459  0.0987
 6321TIP3   OH243157   2.420   3.821   3.489  0.2641  0.2225  0.3136
 6321TIP3    H143158   2.490   3.775   3.537 -1.5319 -2.3390  0.7241
 6321TIP3    H243159   2.387   3.756   3.427 -1.5756  1.4286 -0.0560
 6322TIP3   OH243160   5.711   4.182   3.206 -0.1377 -0.0072  0.2420
 6322TIP3    H143161   5.654   4.111   3.177  2.0008 -1.8026  0.1022
 6322TIP3    H243162   5.693   4.190   3.300  0.0771 -1.2777  0.4134
 6323TIP3   OH243163   1.915   0.458   4.440 -0.1326 -0.5429 -0.2909
 6323TIP3    H143164   1.903   0.500   4.525  0.4129  0.4765 -0.7021
 6323TIP3    H243165   1.996   0.408   4.449 -0.5095 -1.1165  0.0334
 6324TIP3   OH243166   7.174   3.145   3.163 -0.0956  0.4704  0.2765
 6324TIP3    H143167   7.127   3.094   3.229 -0.3002 -0.1903 -0.3724
 6324TIP3    H243168   7.251   3.179   3.209  1.1098 -2.0177  0.2478
 6325TIP3   OH243169   0.143   2.551   3.832 -0.0765 -0.0678 -0.0701
 6325TIP3    H143170   0.228   2.575   3.871  0.2485 -1.8114  0.3888
 6325TIP3    H243171   0.141   2.455   3.837 -1.5216 -0.1269 -1.2777
 6326TIP3   OH243172   5.785   7.455   2.611 -0.4184 -0.6817 -0.3683
 6326TIP3    H143173   5.842   7.523   2.577 -1.2856 -0.0676 -0.6268
 6326TIP3    H243174   5.830   7.373   2.591  1.5650 -0.1650  1.6558
 6327TIP3   OH243175   6.344   5.147   4.102 -0.0489  0.3557 -0.3433
 6327TIP3    H143176   6.302   5.222   4.144  0.9615  0.4910  0.4688
 6327TIP3    H243177   6.383   5.097   4.174 -0.6221 -0.9101 -0.8772
 6328TIP3   OH243178   4.259   5.185   3.553  0.0983 -0.1658  0.1655
 6328TIP3    H143179   4.194   5.166   3.620 -1.1297  0.6753 -0.7424
 6328TIP3    H243180   4.244   5.118   3.485  0.6118 -0.3535  0.2311
 6329TIP3   OH243181   3.378   6.446   1.985 -0.1698 -0.3486 -0.7044
 6329TIP3    H143182   3.458   6.403   2.014 -0.6599 -0.2946  0.8134
 6329TIP3    H243183   3.359   6.407   1.900  0.3870 -1.8039 -0.1874
 6330TIP3   OH243184   1.956   5.619   2.489  0.6384  0.3068 -0.4668
 6330TIP3    H143185   2.021   5.658   2.430  0.7736 -0.9153 -1.1634
 6330TIP3    H243186   1.999   5.541   2.524  0.3280  0.6734  0.8018
 6331TIP3   OH243187   6.108   2.974   3.663 -0.3588 -0.2410  0.4763
 6331TIP3    H143188   6.092   3.030   3.739 -2.3143 -1.5564  1.0965
 6331TIP3    H243189   6.203   2.965   3.660 -0.0900  1.6563  1.3797
 6332TIP3   OH243190   5.811   2.805   2.916 -0.5819 -0.5710  0.3701
 6332TIP3    H143191   5.874   2.811   2.988  1.7834  1.9367 -1.6797
 6332TIP3    H243192   5.792   2.711   2.908  2.5569 -1.4229  1.4597
 6333TIP3   OH243193   6.998   3.904   2.542 -0.6960 -0.2758 -0.5873
 6333TIP3    H143194   6.982   3.810   2.537  0.9498 -0.6650  0.5706
 6333TIP3    H243195   7.093   3.912   2.552 -0.9497  1.4201  1.0540
 6334TIP3   OH243196   6.250   7.590   2.282 -0.3501  0.6981  0.4154
 6334TIP3    H143197   6.296   7.582   2.365  0.7883 -0.2542 -0.2866
 6334TIP3    H243198   6.298   7.657   2.233 -1.6378  2.0360  0.8841
 6335TIP3   OH243199   5.022   5.999   3.537  0.7508  0.9993  0.2864
 6335TIP3    H143200   5.041   5.973   3.627 -3.5476  0.1194  1.1625
 6335TIP3    H243201   5.017   6.094   3.539 -0.4963  0.9242  1.3106
 6336TIP3   OH243202   1.246   5.684   4.629 -0.5116 -0.0687  0.0656
 6336TIP3    H143203   1.341   5.682   4.625 -0.2842  3.5244  0.9124
 6336TIP3    H243204   1.223   5.614   4.691  1.4126 -1.7544 -1.0159
 6337TIP3   OH243205   1.804   7.473   4.819  0.4855  0.0894  0.2889
 6337TIP3    H143206   1.716   7.435   4.819  0.5436 -0.0481  0.3706
 6337TIP3    H243207   1.791   7.567   4.831  0.2402  0.3223 -1.5673
 6338TIP3   OH243208   6.044   7.183   3.803 -0.4643 -0.0918  0.0638
 6338TIP3    H143209   6.118   7.162   3.745 -0.6112 -1.0700  0.2193
 6338TIP3    H243210   6.001   7.258   3.761 -1.3477 -1.5769 -1.8223
 6339TIP3   OH243211   3.718   1.874   3.087  0.1228 -0.3831 -0.3134
 6339TIP3    H143212   3.703   1.811   3.157 -0.3836 -2.2513 -1.9900
 6339TIP3    H243213   3.803   1.849   3.050 -0.9997 -1.5087 -2.3077
 6340TIP3   OH243214   5.807   0.611   3.308 -0.2355  0.1439  0.4524
 6340TIP3    H143215   5.771   0.580   3.225  0.1477  0.0429  0.3216
 6340TIP3    H243216   5.889   0.653   3.284  0.5743 -1.1114  0.9367
 6341TIP3   OH243217   1.314   0.615   4.871 -0.0153  0.2083  0.6204
 6341TIP3    H143218   1.273   0.655   4.947 -1.7421 -1.4092  0.6231
 6341TIP3    H243219   1.371   0.547   4.908 -0.0688  0.1037  0.5122
 6342TIP3   OH243220   2.159   1.892   3.260 -0.2330 -0.6043 -0.8893
 6342TIP3    H143221   2.189   1.969   3.211  1.0574 -1.0858 -0.8835
 6342TIP3    H243222   2.064   1.904   3.266 -0.1490  0.6081 -1.5338
 6343TIP3   OH243223   7.492   7.210   2.491  0.0213  0.1527  0.7090
 6343TIP3    H143224   7.569   7.253   2.530 -0.0896  1.1557 -0.1454
 6343TIP3    H243225   7.464   7.269   2.421 -0.0298 -1.4028 -0.6510
 6344TIP3   OH243226   1.076   4.977   4.468  0.2798  0.3697  0.1887
 6344TIP3    H143227   0.993   5.025   4.470  0.7276  1.1720 -0.2266
 6344TIP3    H243228   1.085   4.948   4.378  0.7919  0.9014  0.0633
 6345TIP3   OH243229   6.890   7.378   3.914 -0.0692 -0.6855  0.2602
 6345TIP3    H143230   6.980   7.408   3.926 -0.7527  1.3232  0.7385
 6345TIP3    H243231   6.836   7.448   3.951 -1.8532 -1.5785 -0.5233
 6346TIP3   OH243232   5.615   4.240   3.473 -0.4338  0.4830 -0.3815
 6346TIP3    H143233   5.612   4.333   3.498  1.1405  0.4400  0.0324
 6346TIP3    H243234   5.602   4.193   3.555 -1.3858  0.3191 -0.6153
 6347TIP3   OH243235   4.035   0.091   4.218 -0.4299 -0.6674  0.4362
 6347TIP3    H143236   4.005   0.179   4.197  0.2663 -0.5634 -0.1405
 6347TIP3    H243237   4.007   0.037   4.144  0.9751 -0.5290 -0.2138
 6348TIP3   OH243238   4.722   5.755   2.590  0.9452  0.3579  0.2836
 6348TIP3    H143239   4.733   5.700   2.667  1.1590  0.8697  0.6216
 6348TIP3    H243240   4.639   5.727   2.552 -0.1406  1.3872  1.7726
 6349TIP3   OH243241   7.357   2.255   3.435 -0.4402 -0.0912  0.2695
 6349TIP3    H143242   7.445   2.217   3.439 -0.4918 -0.1491  1.1501
 6349TIP3    H243243   7.315   2.225   3.515 -1.0353  0.4866  0.1807
 6350TIP3   OH243244   5.736   3.516   2.802  0.3511  0.1945  0.0638
 6350TIP3    H143245   5.718   3.540   2.711  1.2948  1.7734  0.2575
 6350TIP3    H243246   5.779   3.593   2.839 -2.4294  0.6732  2.6462
 6351TIP3   OH243247   2.471   3.592   2.634 -0.1151 -0.0724 -0.5802
 6351TIP3    H143248   2.525   3.531   2.684 -0.3136 -0.2379 -0.5673
 6351TIP3    H243249   2.531   3.662   2.609 -0.0853  0.1856  0.1839
 6352TIP3   OH243250   4.939   4.514   2.420  0.0234 -0.1006  0.0178
 6352TIP3    H143251   5.034   4.519   2.426  0.1308 -1.8767  0.3278
 6352TIP3    H243252   4.922   4.442   2.359 -1.0905 -1.2115  1.5616
 6353TIP3   OH243253   3.807   3.107   5.057  0.3495 -0.8554 -0.1203
 6353TIP3    H143254   3.807   3.201   5.072  1.9566 -0.9063  0.3834
 6353TIP3    H243255   3.714   3.083   5.054 -0.0956  0.4790  1.4631
 6354TIP3   OH243256   7.562   4.455   3.621 -0.0286  0.3457 -0.3065
 6354TIP3    H143257   7.570   4.392   3.693 -3.6252  0.3172  0.2589
 6354TIP3    H243258   7.572   4.402   3.542  1.9569  0.0219  0.1181
 6355TIP3   OH243259   7.507   1.458   3.828 -0.8195 -0.4795  0.9989
 6355TIP3    H143260   7.535   1.390   3.767 -1.5332 -0.2568  0.4102
 6355TIP3    H243261   7.470   1.526   3.772 -1.9967 -0.5136  1.7092
 6356TIP3   OH243262   4.501   1.788   2.636 -0.5999  0.2412  0.1419
 6356TIP3    H143263   4.469   1.829   2.556 -0.0812  2.0236  0.7873
 6356TIP3    H243264   4.509   1.861   2.698  3.3646 -0.2497  0.4404
 6357TIP3   OH243265   6.234   7.348   4.769  0.1230 -0.0796 -0.4794
 6357TIP3    H143266   6.196   7.368   4.854  0.7065 -2.3320  0.3824
 6357TIP3    H243267   6.161   7.315   4.716  0.1633 -0.8321 -0.0768
 6358TIP3   OH243268   6.214   1.600   4.399  0.1996 -0.1744  0.1017
 6358TIP3    H143269   6.192   1.509   4.418 -0.0866 -0.1446 -0.0883
 6358TIP3    H243270   6.272   1.596   4.323 -0.2322 -0.1602 -0.2238
 6359TIP3   OH243271   4.107   1.117   4.088  0.1063  0.1775  0.2029
 6359TIP3    H143272   4.017   1.149   4.091  0.5645  1.6648 -0.8738
 6359TIP3    H243273   4.129   1.096   4.179 -1.3769 -0.4267  0.4488
 6360TIP3   OH243274   1.391   6.176   3.020  0.1406  0.1180  0.5794
 6360TIP3    H143275   1.336   6.254   3.028  1.3037  0.9859  0.4251
 6360TIP3    H243276   1.465   6.193   3.078  0.1184 -1.1718  1.0322
 6361TIP3   OH243277   1.407   1.118   4.183  0.1912 -0.1323 -0.1473
 6361TIP3    H143278   1.493   1.140   4.148 -0.6238 -0.6253 -2.6902
 6361TIP3    H243279   1.399   1.023   4.169 -1.0361  0.0318 -0.6419
 6362TIP3   OH243280   1.918   1.094   3.198 -0.1924  0.1416  0.1678
 6362TIP3    H143281   1.837   1.079   3.248 -0.8428 -0.8167 -1.1195
 6362TIP3    H243282   1.894   1.072   3.108  0.7213  2.5752 -0.7377
 6363TIP3   OH243283   2.801   1.465   4.721  0.0115 -0.5970 -0.6102
 6363TIP3    H143284   2.841   1.551   4.737  0.2273 -1.0445  1.5709
 6363TIP3    H243285   2.707   1.483   4.713  0.0298 -0.1685  0.0705
 6364TIP3   OH243286   1.075   2.988   3.058  0.5776 -0.2718  0.0349
 6364TIP3    H143287   1.009   2.923   3.035  1.4458 -1.1663  0.0030
 6364TIP3    H243288   1.074   3.051   2.986  0.9212 -1.2013 -0.8091
 6365TIP3   OH243289   5.397   7.199   5.241 -0.3284  0.0013  0.3282
 6365TIP3    H143290   5.489   7.178   5.226  0.1896  0.9415  1.9922
 6365TIP3    H243291   5.362   7.123   5.288 -0.4070 -0.3350 -0.2641
 6366TIP3   OH243292   2.786   3.957   3.836 -0.1631 -0.1330  0.8343
 6366TIP3    H143293   2.762   4.040   3.797  1.1404  0.5247  1.3497
 6366TIP3    H243294   2.709   3.931   3.886 -0.2184  1.3536  1.5932
 6367TIP3   OH243295   5.009   5.143   2.717 -0.4270  0.5963 -0.1049
 6367TIP3    H143296   4.983   5.081   2.784 -0.2511  0.6358 -0.0007
 6367TIP3    H243297   4.998   5.229   2.758  2.0699  0.5877  0.7706
 6368TIP3   OH243298   2.492   5.587   3.743 -0.0587 -1.2020 -0.5728
 6368TIP3    H143299   2.582   5.597   3.774 -0.4991 -0.4889  0.5148
 6368TIP3    H243300   2.441   5.568   3.822 -1.1168  0.0436 -0.9134
 6369TIP3   OH243301   3.965   1.078   2.843  0.4624  0.6917  0.0817
 6369TIP3    H143302   4.048   1.070   2.891  1.1022 -1.5917 -1.2444
 6369TIP3    H243303   3.968   1.165   2.804  1.3609  1.3677  1.5734
 6370TIP3   OH243304   1.441   5.361   4.456  0.2845  0.2604  0.1827
 6370TIP3    H143305   1.400   5.276   4.475 -1.3248  0.5908 -1.5190
 6370TIP3    H243306   1.480   5.388   4.539 -0.8072 -1.2591  1.2482
 6371TIP3   OH243307   7.029   1.104   4.106 -0.0155 -0.1977  0.2840
 6371TIP3    H143308   7.099   1.060   4.153  1.7266  1.0786 -1.0073
 6371TIP3    H243309   6.987   1.159   4.172  0.7100 -0.3529  0.8953
 6372TIP3   OH243310   1.988   2.187   4.331  0.0568  0.1926 -0.7075
 6372TIP3    H143311   2.052   2.167   4.262  0.1763 -1.2500 -0.2080
 6372TIP3    H243312   1.912   2.133   4.310  0.0477 -0.1691  0.2039
 6373TIP3   OH243313   5.647   4.983   3.474 -1.2077  0.1792 -0.6075
 6373TIP3    H143314   5.690   5.066   3.495 -0.7276 -0.7018  2.4917
 6373TIP3    H243315   5.714   4.931   3.429 -0.7085  0.6302 -0.3927
 6374TIP3   OH243316   0.870   2.850   2.638 -0.7691  0.4870  0.3688
 6374TIP3    H143317   0.911   2.798   2.568 -1.0184  0.1543  0.4668
 6374TIP3    H243318   0.793   2.888   2.597 -1.1750 -0.0884  0.5854
 6375TIP3   OH243319   6.909   1.820   3.234 -0.0119 -0.3545  0.2145
 6375TIP3    H143320   6.934   1.729   3.249 -0.6895 -0.8567 -1.4259
 6375TIP3    H243321   6.858   1.844   3.311 -0.4460 -1.6164  0.3493
 6376TIP3   OH243322   2.713   1.003   4.033 -0.1423 -0.2108 -0.0149
 6376TIP3    H143323   2.727   0.975   4.123 -1.4183 -0.6618  0.0641
 6376TIP3    H243324   2.619   1.018   4.027  0.1260  1.3774 -0.8365
 6377TIP3   OH243325   1.480   1.662   2.273  0.6231  0.0107 -0.4087
 6377TIP3    H143326   1.492   1.568   2.279  1.0959  0.1104  0.3835
 6377TIP3    H243327   1.563   1.699   2.302  0.7804  0.6692 -1.6466
 6378TIP3   OH243328   1.702   1.446   4.354  0.4973  0.0287  0.5455
 6378TIP3    H143329   1.618   1.491   4.362  0.3401 -0.5517  2.8728
 6378TIP3    H243330   1.761   1.494   4.413  1.0358 -1.2016  1.0374
 6379TIP3   OH243331   0.802   5.565   2.799  0.1157 -0.5684  0.3035
 6379TIP3    H143332   0.734   5.623   2.834 -0.9556 -2.3717  1.3936
 6379TIP3    H243333   0.770   5.541   2.712 -0.1424 -0.6042  0.4059
 6380TIP3   OH243334   1.864   5.768   4.828 -0.3531 -0.1892 -0.3223
 6380TIP3    H143335   1.802   5.698   4.807  1.7394 -1.8720 -1.2706
 6380TIP3    H243336   1.921   5.731   4.895  0.3950  0.8644 -0.3419
 6381TIP3   OH243337   3.991   5.477   3.014 -0.0930 -0.2673 -0.0645
 6381TIP3    H143338   4.036   5.556   2.984  0.6796 -0.3470  0.8333
 6381TIP3    H243339   3.934   5.453   2.941  0.8122  0.2301 -0.9709
 6382TIP3   OH243340   4.765   0.362   4.590 -0.1374  0.3445 -0.0160
 6382TIP3    H143341   4.725   0.447   4.576 -0.1371  0.5143  0.9627
 6382TIP3    H243342   4.709   0.301   4.541  0.6538  1.0438 -1.8992
 6383TIP3   OH243343   2.109   1.626   4.821 -0.2277 -0.6941 -0.3717
 6383TIP3    H143344   2.197   1.590   4.828  0.0892  0.0614 -0.3386
 6383TIP3    H243345   2.054   1.552   4.796  0.6299 -0.9106 -1.6858
 6384TIP3   OH243346   6.492   3.602   3.347 -0.4342 -0.4560  0.4647
 6384TIP3    H143347   6.564   3.626   3.405  0.2295 -0.0503 -0.5028
 6384TIP3    H243348   6.439   3.681   3.340 -0.5561 -0.5275  0.5787
 6385TIP3   OH243349   0.014   6.022   2.450 -0.3050  0.1951 -0.2523
 6385TIP3    H143350  -0.037   6.103   2.441 -1.4060 -0.3515  0.8414
 6385TIP3    H243351  -0.050   5.952   2.447  0.5290 -0.5961 -0.1389
 6386TIP3   OH243352   3.625   1.953   3.407 -0.3547  0.4440  0.3086
 6386TIP3    H143353   3.660   2.041   3.391 -0.9042  0.4646 -0.8244
 6386TIP3    H243354   3.631   1.943   3.502  0.7814  1.2523  0.3496
 6387TIP3   OH243355   1.556   4.847   2.620 -0.4629  0.7114 -0.3157
 6387TIP3    H143356   1.550   4.942   2.626 -1.5246  0.8054 -1.9999
 6387TIP3    H243357   1.558   4.817   2.711  2.4534  2.4212  0.2931
 6388TIP3   OH243358   0.672   5.249   3.160 -0.3547 -0.4195 -0.0644
 6388TIP3    H143359   0.741   5.185   3.176 -0.5578 -0.4690  0.6709
 6388TIP3    H243360   0.708   5.332   3.192 -0.2877 -0.2691 -0.5300
 6389TIP3   OH243361   2.964   6.068   4.081  0.9011  0.3231  0.0541
 6389TIP3    H143362   3.005   5.990   4.119  1.1222  0.4642  0.1052
 6389TIP3    H243363   3.036   6.128   4.064  0.9030 -0.0809 -1.4236
 6390TIP3   OH243364   2.085   0.268   4.304  0.0473  1.1411  0.3519
 6390TIP3    H143365   2.125   0.206   4.364 -0.9812  0.2930  0.1825
 6390TIP3    H243366   2.094   0.228   4.217 -3.1961 -0.2789  0.5322
 6391TIP3   OH243367   6.415   0.443   3.377  0.0669 -0.3090 -0.5544
 6391TIP3    H143368   6.382   0.379   3.313 -0.1249  0.3169 -1.0932
 6391TIP3    H243369   6.485   0.489   3.330 -0.0540  0.1358 -0.3037
 6392TIP3   OH243370   1.398   4.099   2.244  0.5940 -0.4239 -0.0533
 6392TIP3    H143371   1.449   4.117   2.165 -1.1904 -1.0491 -1.4174
 6392TIP3    H243372   1.349   4.179   2.260  1.1266 -0.2127  0.6070
 6393TIP3   OH243373   6.929   6.591   3.778 -0.2702 -0.2415 -0.3921
 6393TIP3    H143374   6.945   6.560   3.689  1.4094  1.6225 -0.8116
 6393TIP3    H243375   6.963   6.681   3.778 -1.3324  0.2080  1.8040
 6394TIP3   OH243376   3.595   0.068   2.630  0.2880 -0.1464  0.1416
 6394TIP3    H143377   3.688   0.044   2.632  0.0227 -1.3024 -0.3804
 6394TIP3    H243378   3.549  -0.013   2.652 -0.5975  0.4527  0.5392
 6395TIP3   OH243379   1.874   1.953   3.216 -0.1104  0.2479 -0.1953
 6395TIP3    H143380   1.837   1.932   3.131 -1.4949 -1.6331  0.7987
 6395TIP3    H243381   1.905   2.043   3.208 -0.6544  0.2724 -2.5109
 6396TIP3   OH243382   5.379   1.486   9.063  0.1639  0.4725  0.1494
 6396TIP3    H143383   5.407   1.438   8.985  3.6205  0.2997  1.3326
 6396TIP3    H243384   5.359   1.574   9.031  1.0382  0.2718 -1.0184
 6397TIP3   OH243385   5.802   0.949   2.795  0.0793  0.1342  0.9981
 6397TIP3    H143386   5.824   0.915   2.708 -2.1382  1.6547 -0.2924
 6397TIP3    H243387   5.876   1.004   2.819  0.8961 -0.6134  0.2570
 6398TIP3   OH243388   5.898   2.400   4.732 -0.0225 -0.4543 -0.0358
 6398TIP3    H143389   5.914   2.493   4.713 -0.8597 -0.0696  1.0054
 6398TIP3    H243390   5.844   2.370   4.659  1.0041 -0.3740 -0.8463
 6399TIP3   OH243391   4.005   0.502   3.731  0.0938 -0.3729 -0.0798
 6399TIP3    H143392   4.040   0.590   3.721  0.2246 -0.3230  0.8110
 6399TIP3    H243393   4.082   0.445   3.732  0.0951 -0.3571  0.8583
 6400TIP3   OH243394   1.729   4.311   4.212  0.2309 -0.3309 -0.2135
 6400TIP3    H143395   1.647   4.296   4.260 -0.5275  0.8700 -1.0685
 6400TIP3    H243396   1.781   4.233   4.229 -0.8248 -0.8324  0.8981
 6401TIP3   OH243397   1.088   2.175   2.308 -0.1933  0.0398  0.2555
 6401TIP3    H143398   1.050   2.115   2.372 -1.4244 -0.1685 -0.6412
 6401TIP3    H243399   1.092   2.124   2.227 -0.7000  0.9709 -0.3692
 6402TIP3   OH243400   6.530   7.359   2.724 -0.2375  0.0033 -0.2051
 6402TIP3    H143401   6.441   7.327   2.739 -0.4859  0.0105 -1.5766
 6402TIP3    H243402   6.587   7.289   2.756 -0.7499 -0.5708 -0.5348
 6403TIP3   OH243403   3.865   2.665   4.577 -0.8016  0.6181 -0.2772
 6403TIP3    H143404   3.946   2.666   4.628 -0.3315  0.1538 -0.9861
 6403TIP3    H243405   3.802   2.619   4.632  0.1399 -1.2942 -0.7265
 6404TIP3   OH243406   6.061   5.813   4.114 -0.2589  0.2395  0.2785
 6404TIP3    H143407   6.040   5.790   4.205  1.6849  0.4060  0.8229
 6404TIP3    H243408   6.021   5.744   4.062  0.7066 -1.2874  1.4627
 6405TIP3   OH243409   2.866   2.731   2.541  0.1506  0.3210  0.5355
 6405TIP3    H143410   2.816   2.676   2.600  1.5018 -0.0581  1.3718
 6405TIP3    H243411   2.953   2.690   2.538  0.5668  1.2236 -0.4883
 6406TIP3   OH243412   1.484   0.185   3.073 -0.4553  0.2386  0.0202
 6406TIP3    H143413   1.440   0.250   3.129 -1.4617 -1.7763  1.6950
 6406TIP3    H243414   1.576   0.192   3.097 -0.4785  1.3373 -0.1590
 6407TIP3   OH243415   4.586   4.406   2.416 -0.0868  0.1437 -0.2483
 6407TIP3    H143416   4.631   4.341   2.470 -0.7201 -0.1143 -0.0136
 6407TIP3    H243417   4.618   4.391   2.327 -0.5665 -0.7916 -0.2695
 6408TIP3   OH243418   2.596   5.414   4.276  0.3402 -0.0826  0.6968
 6408TIP3    H143419   2.619   5.394   4.367  0.0422 -1.3781  0.5124
 6408TIP3    H243420   2.671   5.463   4.243  0.3819  0.5438  1.6789
 6409TIP3   OH243421   7.296   4.182   3.383  0.3817  0.0770 -0.7133
 6409TIP3    H143422   7.384   4.217   3.398 -0.7284  3.0140 -0.4914
 6409TIP3    H243423   7.245   4.213   3.458 -1.3433  0.4102 -1.9701
 6410TIP3   OH243424   2.203   1.240   2.961 -0.3283  0.3513 -0.1657
 6410TIP3    H143425   2.154   1.322   2.967  0.2804  0.7274 -0.2846
 6410TIP3    H243426   2.287   1.265   2.924  0.1704 -0.2011  0.5831
 6411TIP3   OH243427   4.346   1.259   4.237 -0.6704  0.3143  0.3598
 6411TIP3    H143428   4.380   1.232   4.151 -0.9691 -0.3829  0.4552
 6411TIP3    H243429   4.401   1.212   4.299 -0.3898  0.8978  0.5559
 6412TIP3   OH243430   3.229   0.508   2.964 -0.0789 -0.0652  0.6049
 6412TIP3    H143431   3.223   0.431   3.021 -0.7153 -0.9204 -0.5702
 6412TIP3    H243432   3.300   0.487   2.903 -1.0980 -0.3171 -0.5371
 6413TIP3   OH243433   3.836   4.014   2.780  0.2020  0.0394 -0.7495
 6413TIP3    H143434   3.765   4.053   2.830  1.2554  2.0130 -0.7178
 6413TIP3    H243435   3.859   3.935   2.829 -1.2051 -0.0391 -0.1621
 6414TIP3   OH243436   1.256   3.661   2.396  0.6577  0.0083 -0.0211
 6414TIP3    H143437   1.309   3.616   2.330 -0.1771 -0.3268 -0.4848
 6414TIP3    H243438   1.220   3.591   2.450  1.4823  0.2931  0.9175
 6415TIP3   OH243439   4.224   7.357   3.080  0.5163 -0.1457 -0.5629
 6415TIP3    H143440   4.141   7.404   3.072 -0.1590 -1.2752 -0.3622
 6415TIP3    H243441   4.211   7.276   3.031  1.1457 -0.7999  0.3136
 6416TIP3   OH243442   6.902   2.816   4.394 -0.0988  0.3482  0.2141
 6416TIP3    H143443   6.867   2.741   4.443 -2.7947  1.8985  0.8330
 6416TIP3    H243444   6.994   2.820   4.421 -0.0358 -2.2599  0.7217
 6417TIP3   OH243445   3.379   4.510   2.773  0.5471 -0.2194 -0.1917
 6417TIP3    H143446   3.466   4.472   2.764  0.6995 -0.7488  2.6228
 6417TIP3    H243447   3.394   4.605   2.773  1.6408 -0.2647  3.1689
 6418TIP3   OH243448   4.718   7.342   3.585  0.2378  0.6276  0.2244
 6418TIP3    H143449   4.809   7.364   3.608  0.1832  1.4881 -0.3285
 6418TIP3    H243450   4.725   7.295   3.502  0.5592 -3.7348  2.4115
 6419TIP3   OH243451   2.519   1.358   3.143 -0.7143  0.5568 -0.4419
 6419TIP3    H143452   2.608   1.376   3.114 -0.3146 -0.6195 -0.0020
 6419TIP3    H243453   2.465   1.422   3.096  0.4888  2.1995  0.3059
 6420TIP3   OH243454   7.150   7.459   3.958 -0.1115  0.0857  0.0974
 6420TIP3    H143455   7.212   7.479   4.028  1.0095 -1.0779 -0.5343
 6420TIP3    H243456   7.142   7.540   3.909  0.8966  0.2647  0.2046
 6421TIP3   OH243457   0.802   2.885   2.302  0.1518 -0.1237 -0.1398
 6421TIP3    H143458   0.707   2.889   2.296 -0.2001 -0.5203  3.2048
 6421TIP3    H243459   0.821   2.792   2.312  0.9319 -0.0559 -0.8750
 6422TIP3   OH243460   0.606   0.850   3.160 -0.2719  0.0350 -0.0272
 6422TIP3    H143461   0.575   0.762   3.139  0.8001 -0.3504 -0.0721
 6422TIP3    H243462   0.542   0.909   3.120  0.9212 -0.6622 -3.2276
 6423TIP3   OH243463   1.869   5.182   4.409  0.5145 -0.2621  0.1876
 6423TIP3    H143464   1.879   5.150   4.320 -0.6455  1.5578 -0.6500
 6423TIP3    H243465   1.957   5.176   4.447  1.1723 -0.3802 -1.3082
 6424TIP3   OH243466   6.878   4.980   2.458 -0.1868 -0.1202  0.0720
 6424TIP3    H143467   6.806   4.954   2.515  0.2710  1.9236  1.7123
 6424TIP3    H243468   6.841   4.975   2.370 -2.6349  1.5203  0.8839
 6425TIP3   OH243469   4.335   0.323   4.286  0.2534 -0.4713 -0.1576
 6425TIP3    H143470   4.370   0.411   4.294  0.2166 -0.6080  3.2469
 6425TIP3    H243471   4.396   0.268   4.335 -1.2957 -1.7685  0.4433
 6426TIP3   OH243472   0.772   2.850   2.900 -0.0971 -0.1221  0.9149
 6426TIP3    H143473   0.820   2.830   2.820 -1.9844 -1.6010  0.0827
 6426TIP3    H243474   0.812   2.795   2.967 -0.1117 -0.7522  0.4135
 6427TIP3   OH243475   6.348   6.315   2.598 -0.3900  0.6979  0.0972
 6427TIP3    H143476   6.399   6.295   2.677  2.0645 -1.6343 -1.8721
 6427TIP3    H243477   6.260   6.285   2.618 -0.1583  1.3922  2.3790
 6428TIP3   OH243478   0.991   1.832   2.770  0.4427 -0.2109  0.0114
 6428TIP3    H143479   0.925   1.854   2.836  0.5649  0.8868 -0.2164
 6428TIP3    H243480   0.965   1.745   2.739 -0.4521 -0.1250  0.4789
 6429TIP3   OH243481   4.758   3.108   2.232  0.0695 -0.5098  0.2239
 6429TIP3    H143482   4.677   3.136   2.274  0.3231 -0.3100  0.5796
 6429TIP3    H243483   4.730   3.051   2.161 -0.3768 -0.5452  0.4309
 6430TIP3   OH243484   1.098   4.845   3.213 -0.0814 -0.3009  0.1337
 6430TIP3    H143485   1.156   4.770   3.223 -1.3756 -1.4232 -0.3607
 6430TIP3    H243486   1.147   4.919   3.247  1.0836 -1.4456  1.0214
 6431TIP3   OH243487   1.002   2.957   3.576  0.2063 -0.3639 -0.0893
 6431TIP3    H143488   1.045   2.902   3.510 -1.8092 -0.0073 -1.7981
 6431TIP3    H243489   0.931   2.902   3.609  0.2242  0.0415  0.6187
 6432TIP3   OH243490   4.119   2.869   3.317  0.4239  0.2148 -0.0005
 6432TIP3    H143491   4.140   2.779   3.292 -0.5340  0.2346 -0.9776
 6432TIP3    H243492   4.089   2.863   3.407 -1.6385 -0.7960 -0.6976
 6433TIP3   OH243493   0.605   2.720   3.218  0.5751  0.0940  0.3177
 6433TIP3    H143494   0.597   2.705   3.124  1.6779 -2.7706  0.5913
 6433TIP3    H243495   0.615   2.815   3.226 -0.6615  0.5372 -2.3247
 6434TIP3   OH243496   2.967   0.482   3.059  0.4624 -0.0162  0.1557
 6434TIP3    H143497   2.899   0.550   3.056 -0.7426 -1.2101 -0.4025
 6434TIP3    H243498   3.032   0.512   2.995  0.7485  1.4015  1.0588
 6435TIP3   OH243499   4.060   3.002   5.064 -0.6004  0.6891 -0.3017
 6435TIP3    H143500   4.067   2.991   5.159 -1.0341 -1.5495 -0.4766
 6435TIP3    H243501   3.972   3.036   5.050 -1.7388 -1.8687 -0.0081
 6436TIP3   OH243502   5.016   0.942   4.705 -0.2603 -0.1334  0.4821
 6436TIP3    H143503   4.974   1.028   4.708 -0.6302 -0.2107 -1.4559
 6436TIP3    H243504   4.944   0.880   4.721 -0.2639 -0.1343  0.4630
 6437TIP3   OH243505   1.730   5.256   3.304  0.3989  0.0245 -0.0757
 6437TIP3    H143506   1.666   5.320   3.339  0.7144  0.8090 -0.9059
 6437TIP3    H243507   1.781   5.230   3.381 -1.4004 -1.2179  0.7677
 6438TIP3   OH243508   5.178   7.567   4.418 -0.1751 -0.0404  0.3990
 6438TIP3    H143509   5.157   7.589   4.509 -0.9348 -0.9040  0.4428
 6438TIP3    H243510   5.208   7.650   4.380 -0.5795  0.4971  1.2244
 6439TIP3   OH243511   3.242   2.943   3.166  0.3354 -0.2080 -0.1248
 6439TIP3    H143512   3.252   3.020   3.222  0.4182 -0.2223 -0.1195
 6439TIP3    H243513   3.171   2.893   3.206 -1.1884  0.9215 -1.3394
 6440TIP3   OH243514   2.341   6.926   2.760 -0.0865 -0.1081 -0.3125
 6440TIP3    H143515   2.406   6.916   2.829 -0.1458 -1.7294 -0.4439
 6440TIP3    H243516   2.391   6.919   2.679 -0.4848 -2.4588 -0.4271
 6441TIP3   OH243517   1.860   2.292   3.243 -0.5696  0.2404 -0.6137
 6441TIP3    H143518   1.944   2.317   3.280 -0.2172  1.1554 -1.9670
 6441TIP3    H243519   1.796   2.341   3.295 -0.2408 -0.0209  0.0506
 6442TIP3   OH243520   5.763   6.195   2.644 -0.1964  0.2080  0.0290
 6442TIP3    H143521   5.674   6.216   2.673 -0.1714  0.7138 -0.2474
 6442TIP3    H243522   5.796   6.277   2.606 -0.8129 -0.7627 -2.8974
 6443TIP3   OH243523   5.762   5.784   4.640 -0.1691  0.1262  0.2523
 6443TIP3    H143524   5.740   5.811   4.729 -0.9547  0.8616 -0.1432
 6443TIP3    H243525   5.802   5.698   4.650  0.0978  0.3645  1.3449
 6444TIP3   OH243526   5.967   2.775   3.130  0.0836 -0.2022 -0.0983
 6444TIP3    H143527   5.985   2.831   3.206 -1.8753 -0.6309  0.7446
 6444TIP3    H243528   5.906   2.709   3.163 -1.1844 -0.1403 -2.1534
 6445TIP3   OH243529   4.330   4.500   4.019  0.3273 -0.2806  0.4544
 6445TIP3    H143530   4.303   4.564   3.953 -0.3718 -0.4716  0.5515
 6445TIP3    H243531   4.386   4.549   4.079  2.8702 -0.5578 -1.4830
 6446TIP3   OH243532   1.919   3.609   1.859 -0.3659 -0.2256 -0.5851
 6446TIP3    H143533   1.943   3.530   1.811  1.8214 -1.2399  1.9338
 6446TIP3    H243534   1.829   3.592   1.888 -0.6277 -0.8880 -1.7084
 6447TIP3   OH243535   0.996   5.510   3.970  0.1507  0.1441  0.4352
 6447TIP3    H143536   0.973   5.571   4.041 -0.8082  1.0569 -0.6256
 6447TIP3    H243537   0.928   5.443   3.973  0.3166 -0.0164  0.6085
 6448TIP3   OH243538   7.429   7.316   3.886 -0.0047  0.6907  0.3173
 6448TIP3    H143539   7.511   7.318   3.837 -0.3885  0.2634 -0.3588
 6448TIP3    H243540   7.450   7.359   3.969  0.8008  0.9277  0.0052
 6449TIP3   OH243541   5.816   5.932   3.907  0.4815  0.4619  0.3028
 6449TIP3    H143542   5.785   5.901   3.822 -1.0920  0.2548  0.9293
 6449TIP3    H243543   5.889   5.990   3.886  1.0245 -0.6720 -1.1052
 6450TIP3   OH243544   2.392   5.526   4.021 -0.7991  0.0602  0.3960
 6450TIP3    H143545   2.354   5.613   4.017  0.9215  0.8981  1.1616
 6450TIP3    H243546   2.397   5.506   4.115  3.1793  1.2632  0.6253
 6451TIP3   OH243547   6.430   4.532   4.901 -0.1145  0.6539 -0.1077
 6451TIP3    H143548   6.349   4.584   4.907  0.2336  1.4564 -1.8136
 6451TIP3    H243549   6.410   4.451   4.947 -1.0568  1.8115  1.6807
 6452TIP3   OH243550   6.352   6.539   2.420  0.3741 -0.0597 -0.1338
 6452TIP3    H143551   6.446   6.553   2.409  0.5786 -1.4654 -0.3318
 6452TIP3    H243552   6.346   6.466   2.482 -0.6087  0.5089  0.4671
 6453TIP3   OH243553   5.129   0.256   2.641  0.0533 -0.3447  0.0487
 6453TIP3    H143554   5.084   0.173   2.659 -0.2222 -0.1766  0.1346
 6453TIP3    H243555   5.108   0.275   2.550 -1.5695  0.6587  0.5884
 6454TIP3   OH243556   4.134   0.152   3.436  0.1335  0.2850 -0.1298
 6454TIP3    H143557   4.130   0.063   3.472 -0.0007  0.4356  0.2385
 6454TIP3    H243558   4.227   0.175   3.439  0.2047  0.0478 -0.5013
 6455TIP3   OH243559   5.522   4.399   2.738  0.3260  0.6961  0.1946
 6455TIP3    H143560   5.557   4.488   2.731  0.0109  0.7848 -0.3323
 6455TIP3    H243561   5.487   4.381   2.651  1.7548 -0.5116 -0.1673
 6456TIP3   OH243562   4.000   7.464   3.506  0.1127  0.3339 -0.4974
 6456TIP3    H143563   4.024   7.531   3.570  2.2318  0.7943 -1.6656
 6456TIP3    H243564   4.052   7.388   3.531 -0.6397 -0.1728 -0.4574
 6457TIP3   OH243565   5.466   5.394   2.650  0.0190 -0.3261 -1.0544
 6457TIP3    H143566   5.555   5.374   2.676  0.2873  1.1811 -0.7132
 6457TIP3    H243567   5.416   5.394   2.732  0.6992  3.5657 -0.4259
 6458TIP3   OH243568   5.080   2.907   3.105  0.5413 -0.7977  0.4693
 6458TIP3    H143569   5.148   2.904   3.038  0.9274 -2.5136  0.8875
 6458TIP3    H243570   5.121   2.869   3.183 -0.2416  0.1451  1.3747
 6459TIP3   OH243571   1.835   3.966   2.245 -0.2737 -0.1807  0.1355
 6459TIP3    H143572   1.918   3.934   2.208 -0.5423  0.9736 -1.5743
 6459TIP3    H243573   1.770   3.945   2.179 -1.0788  0.4422  0.7130
 6460TIP3   OH243574   3.708   1.230   3.670  0.6459  0.1232 -0.1044
 6460TIP3    H143575   3.781   1.205   3.612 -1.0179 -2.0736 -1.4225
 6460TIP3    H243576   3.694   1.153   3.725 -0.7484  0.4597  0.0359
 6461TIP3   OH243577   0.984   1.395   2.872 -0.5332 -0.1348 -0.3773
 6461TIP3    H143578   0.984   1.469   2.811 -0.4428 -0.5751 -0.9179
 6461TIP3    H243579   1.062   1.344   2.848 -1.6835 -1.5011 -1.3712
 6462TIP3   OH243580   0.717   5.489   2.095  0.0932  0.2617 -0.8014
 6462TIP3    H143581   0.653   5.521   2.031 -0.6436 -1.5047 -0.9961
 6462TIP3    H243582   0.790   5.456   2.042  0.1818  0.2244 -0.6576
 6463TIP3   OH243583   0.198   2.707   4.191  0.4058  0.0895 -0.0334
 6463TIP3    H143584   0.201   2.742   4.280  0.0749  0.7778 -0.2848
 6463TIP3    H243585   0.187   2.613   4.203 -3.0926  0.4578  0.6822
 6464TIP3   OH243586   3.591   2.757   3.601  0.1883 -0.1012 -0.1594
 6464TIP3    H143587   3.501   2.764   3.633 -0.1843  0.8641 -1.3507
 6464TIP3    H243588   3.602   2.832   3.544  1.9117  0.0203  0.2917
 6465TIP3   OH243589   2.698   2.234   4.476 -0.1493 -0.0172  0.0473
 6465TIP3    H143590   2.734   2.279   4.400 -0.4152 -0.1150 -0.1375
 6465TIP3    H243591   2.639   2.297   4.516  1.1814  0.6273  1.1029
 6466TIP3   OH243592   4.065   3.459   4.139 -0.5237 -0.4901 -0.0416
 6466TIP3    H143593   3.977   3.439   4.109 -0.8000 -0.9118  0.9971
 6466TIP3    H243594   4.078   3.403   4.216  0.3093  0.2072  0.3578
 6467TIP3   OH243595   5.148   2.771   2.068 -0.1979  0.6304  0.4229
 6467TIP3    H143596   5.094   2.829   2.121 -1.2639 -0.4026  0.5053
 6467TIP3    H243597   5.141   2.807   1.979 -0.4811  0.9016  0.5541
 6468TIP3   OH243598   3.366   3.853   2.072 -0.1463 -0.0516 -0.9863
 6468TIP3    H143599   3.272   3.837   2.080 -0.3291  1.6664  1.3507
 6468TIP3    H243600   3.372   3.943   2.040  0.7327 -0.4650 -2.0235
 6469TIP3   OH243601   3.358   3.708   3.374  0.2579  0.0248 -0.6499
 6469TIP3    H143602   3.375   3.693   3.281  0.2168 -1.3882 -0.4564
 6469TIP3    H243603   3.409   3.640   3.419 -0.4117  0.1296  0.3087
 6470TIP3   OH243604   1.408   7.189   2.994 -0.2961  0.4213  0.2969
 6470TIP3    H143605   1.496   7.154   2.983 -0.5226 -0.2403  0.5280
 6470TIP3    H243606   1.352   7.129   2.945 -0.6880  0.4567  0.6890
 6471TIP3   OH243607   7.479   3.318   4.096 -0.3659 -0.0140  0.1169
 6471TIP3    H143608   7.571   3.304   4.074 -0.1453 -0.0116  0.9974
 6471TIP3    H243609   7.437   3.340   4.013  0.3925 -0.2006 -0.3206
 6472TIP3   OH243610   0.847   0.210   4.034 -0.0381  0.4667 -0.0533
 6472TIP3    H143611   0.924   0.157   4.012 -0.3620  0.2042 -0.5543
 6472TIP3    H243612   0.870   0.298   4.005 -0.4080  0.1497 -1.3444
 6473TIP3   OH243613   6.277   4.061   3.637  0.6796  0.0108 -0.1128
 6473TIP3    H143614   6.275   3.991   3.573  1.5798 -0.9894  0.9229
 6473TIP3    H243615   6.280   4.141   3.585 -0.0954 -0.7109 -1.3062
 6474TIP3   OH243616   1.788   4.616   3.565  0.1134 -0.2856  0.0181
 6474TIP3    H143617   1.871   4.660   3.586  0.6399 -0.7715 -0.9866
 6474TIP3    H243618   1.722   4.670   3.609  0.7087  1.6965 -1.3597
 6475TIP3   OH243619   1.179   1.273   2.715  0.1368 -0.1187  0.2607
 6475TIP3    H143620   1.114   1.260   2.646  0.4270  0.0648 -0.0504
 6475TIP3    H243621   1.208   1.185   2.738 -0.7455 -0.2547  0.9165
 6476TIP3   OH243622   2.900   7.208   2.312  0.5501 -0.3176 -0.1225
 6476TIP3    H143623   2.995   7.195   2.302  0.8084  1.3045 -0.0677
 6476TIP3    H243624   2.890   7.303   2.322 -1.3245 -0.1626 -2.7055
 6477TIP3   OH243625   4.954   3.763   4.123 -0.0391 -0.1551 -0.5291
 6477TIP3    H143626   4.965   3.670   4.141 -1.0800 -0.2861 -0.5005
 6477TIP3    H243627   5.004   3.807   4.192  0.1753 -0.6814 -0.3429
 6478TIP3   OH243628   4.514   2.968   2.732 -0.4463  0.3794  0.7412
 6478TIP3    H143629   4.490   2.924   2.651  1.0391  0.4954  0.2108
 6478TIP3    H243630   4.434   3.014   2.759 -1.5584 -1.3208  0.4669
 6479TIP3   OH243631   2.048   5.841   2.304  0.1402  0.1111 -0.2080
 6479TIP3    H143632   2.063   5.794   2.222  0.9039  1.9290 -1.1845
 6479TIP3    H243633   2.034   5.932   2.276 -3.7609  0.1901  1.3468
 6480TIP3   OH243634   1.172   5.890   4.802 -0.0335 -0.6295 -0.2675
 6480TIP3    H143635   1.138   5.973   4.767  0.7094 -0.4628 -0.6257
 6480TIP3    H243636   1.165   5.829   4.729 -1.2326 -1.0826  0.2088
 6481TIP3   OH243637   1.550   5.151   3.624 -0.8907  0.2629  0.4465
 6481TIP3    H143638   1.567   5.237   3.584 -0.5791  0.3943  0.8488
 6481TIP3    H243639   1.471   5.164   3.675 -0.1530  0.6765  1.5317
 6482TIP3   OH243640   5.618   0.287   2.861  0.0629 -0.0534 -0.3847
 6482TIP3    H143641   5.533   0.278   2.903  0.2748 -0.6852 -0.0761
 6482TIP3    H243642   5.608   0.243   2.776 -0.8332  2.5503 -1.7483
 6483TIP3   OH243643   2.640   0.751   4.717  0.0269 -0.3189 -0.5375
 6483TIP3    H143644   2.662   0.811   4.789 -1.9556 -0.2208  0.0378
 6483TIP3    H243645   2.648   0.804   4.638 -1.1017  0.5649 -0.0836
 6484TIP3   OH243646   5.982   6.968   3.426 -0.1954  0.2941 -0.3870
 6484TIP3    H143647   6.074   6.949   3.444 -0.5468 -0.6146  0.5191
 6484TIP3    H243648   5.970   7.058   3.457  0.0882 -0.0236  0.6913
 6485TIP3   OH243649   6.075   3.722   2.449  0.4702  0.2717 -0.1634
 6485TIP3    H143650   6.138   3.666   2.493  2.8892  2.5856 -0.4497
 6485TIP3    H243651   5.993   3.707   2.496  1.3252 -2.3722  0.6469
 6486TIP3   OH243652   1.777   7.597   3.189  0.3553 -0.3112  0.4293
 6486TIP3    H143653   1.751   7.505   3.187 -2.5477  0.3542  1.6161
 6486TIP3    H243654   1.729   7.637   3.117  2.8610  0.0977 -1.1350
 6487TIP3   OH243655   2.685   4.393   3.853  0.2229  0.0033 -0.3187
 6487TIP3    H143656   2.768   4.438   3.837  0.3302 -0.5078 -1.2277
 6487TIP3    H243657   2.687   4.317   3.794 -0.4765 -0.5346  0.3314
 6488TIP3   OH243658   6.097   7.460   3.439 -0.0077 -0.3754 -0.3528
 6488TIP3    H143659   6.067   7.492   3.524  0.0097  1.4993 -1.0030
 6488TIP3    H243660   6.082   7.534   3.379  1.9413 -0.8760 -1.5479
 6489TIP3   OH243661   0.910   3.283   2.530 -0.1959  0.2122  0.1276
 6489TIP3    H143662   0.953   3.367   2.520  0.9976 -0.5973 -2.3005
 6489TIP3    H243663   0.911   3.267   2.625  3.4207  1.0228  0.3885
 6490TIP3   OH243664   4.795   3.461   4.127 -0.4446 -0.2465 -0.9182
 6490TIP3    H143665   4.761   3.484   4.214  1.1895 -1.3862  0.0688
 6490TIP3    H243666   4.890   3.467   4.135 -0.1353 -2.4300 -1.9808
 6491TIP3   OH243667   0.506   7.028   3.951 -0.6752  0.1226  0.0437
 6491TIP3    H143668   0.542   6.967   3.886 -1.3302  0.1804 -0.3829
 6491TIP3    H243669   0.537   6.994   4.035  1.4823  0.9261 -0.3578
 6492TIP3   OH243670   4.872   2.977   3.806  0.1615  0.2361  0.5552
 6492TIP3    H143671   4.801   3.015   3.754 -0.6023 -1.6163  0.1696
 6492TIP3    H243672   4.924   3.053   3.834 -0.4524  1.4489 -1.3406
 6493TIP3   OH243673   7.212   4.268   2.598 -0.0720 -0.0517  0.1524
 6493TIP3    H143674   7.121   4.297   2.594  0.0556  0.5510  1.2545
 6493TIP3    H243675   7.248   4.311   2.675  0.7683 -1.3825  0.5396
 6494TIP3   OH243676   3.885   4.899   3.514  0.8807 -0.2174  0.2462
 6494TIP3    H143677   3.884   4.852   3.597  1.7637 -1.6498 -0.5277
 6494TIP3    H243678   3.859   4.834   3.448 -4.6255  1.8835 -0.2140
 6495TIP3   OH243679   6.824   7.176   4.155  0.2038  0.3962  0.3490
 6495TIP3    H143680   6.805   7.201   4.064  0.4158  0.7408  0.3982
 6495TIP3    H243681   6.911   7.211   4.172  0.3329 -0.0231  0.5549
 6496TIP3   OH243682   4.072   7.443   4.912 -0.0323 -0.2403  0.2541
 6496TIP3    H143683   4.074   7.534   4.941  2.3689 -0.1970  0.1816
 6496TIP3    H243684   4.006   7.401   4.968 -0.5957  1.3526  0.8314
 6497TIP3   OH243685   2.025   7.044   4.355  0.4669 -0.2509  0.1766
 6497TIP3    H143686   1.946   6.993   4.371  0.3585 -0.1235  0.0441
 6497TIP3    H243687   2.011   7.085   4.270  0.6302 -0.1417  0.2008
 6498TIP3   OH243688   7.549   5.855   3.883  0.0677 -0.3341 -0.1583
 6498TIP3    H143689   7.621   5.880   3.824 -0.3487 -0.6663 -0.8146
 6498TIP3    H243690   7.521   5.937   3.923  0.0295 -0.0279 -0.7999
 6499TIP3   OH243691   6.258   4.091   2.858 -0.2286  0.3392  0.0181
 6499TIP3    H143692   6.341   4.092   2.809 -0.7808  1.4613 -0.9300
 6499TIP3    H243693   6.259   4.173   2.908 -1.0167  0.6278 -0.4352
 6500TIP3   OH243694   6.254   7.505   4.557 -0.0835 -0.6141 -0.2187
 6500TIP3    H143695   6.338   7.483   4.516 -0.4109 -0.7679 -0.8210
 6500TIP3    H243696   6.261   7.472   4.647  0.4566 -0.7294 -0.3005
 6501TIP3   OH243697   4.158   3.868   2.338 -0.1712 -0.0887 -0.2210
 6501TIP3    H143698   4.148   3.914   2.422 -0.1618  0.4498 -0.5111
 6501TIP3    H243699   4.222   3.921   2.290  0.4869 -0.8803 -0.2315
 6502TIP3   OH243700   4.136   5.697   3.554 -0.2398  0.3114  0.7182
 6502TIP3    H143701   4.150   5.602   3.553 -2.3404 -0.0308  0.9949
 6502TIP3    H243702   4.225   5.733   3.551  0.6058 -1.6412  0.1968
 6503TIP3   OH243703   1.031   6.325   2.818 -0.4770 -0.1249 -0.2484
 6503TIP3    H143704   1.089   6.316   2.894 -0.5477 -0.8013 -0.2662
 6503TIP3    H243705   1.077   6.278   2.748 -1.1914 -0.9585 -0.1724
 6504TIP3   OH243706   2.585   4.026   3.476 -0.7456  0.0748  0.2382
 6504TIP3    H143707   2.507   4.029   3.420 -1.3107  0.8944  1.0228
 6504TIP3    H243708   2.559   3.972   3.550 -0.5670  0.3237  0.4862
 6505TIP3   OH243709   6.059   3.077   3.173  0.0749  0.3943 -0.3881
 6505TIP3    H143710   6.083   3.051   3.262 -2.1246  0.4065  0.2691
 6505TIP3    H243711   6.143   3.095   3.130  1.5495 -3.6092  0.3617
 6506TIP3   OH243712   1.141   2.698   3.976 -0.1606  0.4766 -0.4884
 6506TIP3    H143713   1.065   2.659   4.017 -1.1762  2.7652 -0.0341
 6506TIP3    H243714   1.213   2.638   3.996 -1.8299 -1.9272 -1.2394
 6507TIP3   OH243715   6.208   2.247   4.098 -0.4788  0.0520 -0.0865
 6507TIP3    H143716   6.198   2.159   4.133  0.1436  0.5687  1.4793
 6507TIP3    H243717   6.125   2.291   4.117 -0.1508  0.3239  0.7476
 6508TIP3   OH243718   5.362   0.071   2.546 -0.7802  0.2608 -0.0728
 6508TIP3    H143719   5.343  -0.007   2.597  0.0581 -0.0225 -0.1810
 6508TIP3    H243720   5.291   0.132   2.568 -1.7038 -0.6781 -0.3311
 6509TIP3   OH243721   6.669   4.082   3.929 -0.7186 -0.4105  0.0607
 6509TIP3    H143722   6.625   4.135   3.863 -0.2546 -0.5588 -0.3801
 6509TIP3    H243723   6.620   4.000   3.929  0.5184 -1.2255 -1.6486
 6510TIP3   OH243724   3.131   2.900   2.465 -0.1013 -0.5112  0.8495
 6510TIP3    H143725   3.081   2.972   2.504 -0.3734  0.6442 -1.4636
 6510TIP3    H243726   3.216   2.938   2.446 -0.2260 -0.8063 -0.3477
 6511TIP3   OH243727   4.305   1.750   2.991 -0.0129  0.2214  0.5170
 6511TIP3    H143728   4.301   1.840   2.959  2.4931 -0.0244 -0.7741
 6511TIP3    H243729   4.373   1.752   3.058  1.7414 -1.0504 -1.1209
 6512TIP3   OH243730   0.404   2.311   3.282 -0.3875  0.2140  0.3669
 6512TIP3    H143731   0.492   2.286   3.252 -0.7569  0.2111 -0.7597
 6512TIP3    H243732   0.357   2.228   3.289 -0.9144  0.3517 -1.1055
 6513TIP3   OH243733   1.326   6.699   3.968 -0.5477  0.1158 -0.5009
 6513TIP3    H143734   1.323   6.668   4.059  0.3249 -0.6324 -0.7039
 6513TIP3    H243735   1.234   6.706   3.942 -0.7957 -0.7495  0.0878
 6514TIP3   OH243736   0.464   0.441   2.528 -0.1603  0.2880 -0.4455
 6514TIP3    H143737   0.379   0.484   2.531  0.6063  1.8241  2.2729
 6514TIP3    H243738   0.522   0.506   2.487 -0.3572 -1.0568 -3.0510
 6515TIP3   OH243739   4.527   5.985   4.855 -0.1327 -0.1550 -0.7763
 6515TIP3    H143740   4.471   5.924   4.903 -1.6583  1.0688 -0.9051
 6515TIP3    H243741   4.597   6.007   4.915 -1.9545  1.2916  0.9610
 6516TIP3   OH243742   2.299   6.911   3.558  0.0025  0.2295  0.4016
 6516TIP3    H143743   2.245   6.834   3.575  0.9813 -0.6277 -0.2530
 6516TIP3    H243744   2.265   6.978   3.617 -1.4709 -0.4188  0.3210
 6517TIP3   OH243745   6.115   0.856   2.357  0.2625 -0.5639 -1.1317
 6517TIP3    H143746   6.082   0.801   2.286  2.2046 -2.7468 -0.4407
 6517TIP3    H243747   6.210   0.855   2.347  0.4544  1.6030 -0.2529
 6518TIP3   OH243748   3.629   6.353   2.069  0.2748 -0.0069 -0.2520
 6518TIP3    H143749   3.651   6.277   2.017  1.7448  0.1127  0.1492
 6518TIP3    H243750   3.713   6.398   2.084 -0.4898  1.4598 -0.1363
 6519TIP3   OH243751   4.320   1.894   3.954  0.0549  0.7386 -0.3013
 6519TIP3    H143752   4.276   1.965   3.907  0.9398  1.2304 -0.4042
 6519TIP3    H243753   4.283   1.814   3.917  0.7727  1.1117 -1.8998
 6520TIP3   OH243754   5.832   5.685   5.011 -0.2562 -0.0375  0.3092
 6520TIP3    H143755   5.763   5.626   5.040  1.0283 -1.1055  1.2438
 6520TIP3    H243756   5.869   5.643   4.934  0.1766 -0.0817  0.5405
 6521TIP3   OH243757   4.093   6.607   3.880 -0.1878 -0.4712  1.1372
 6521TIP3    H143758   4.034   6.532   3.885  0.6133 -1.1828  0.2256
 6521TIP3    H243759   4.083   6.652   3.964 -0.1903 -1.9699  1.9573
 6522TIP3   OH243760   0.478   5.483   4.423  1.2520 -0.4105 -0.0900
 6522TIP3    H143761   0.552   5.540   4.401 -1.3525  3.5757  0.5162
 6522TIP3    H243762   0.473   5.485   4.518 -0.7098  1.1198 -0.1572
 6523TIP3   OH243763   6.742   2.217   3.674  0.5996  0.1405  0.0221
 6523TIP3    H143764   6.790   2.300   3.665 -0.6084  0.9522  0.7427
 6523TIP3    H243765   6.658   2.242   3.713 -0.2025 -1.3060 -0.6884
 6524TIP3   OH243766   0.868   5.264   4.764 -0.4387  0.5228 -0.1545
 6524TIP3    H143767   0.824   5.270   4.680 -0.2610  0.6982 -0.2378
 6524TIP3    H243768   0.798   5.256   4.829 -0.5413 -0.7207 -0.4089
 6525TIP3   OH243769   2.158   7.131   2.710  0.4890 -0.0478 -0.6600
 6525TIP3    H143770   2.209   7.052   2.731 -0.5772 -0.3337  1.0301
 6525TIP3    H243771   2.202   7.168   2.634  3.3176 -0.1771  0.8073
 6526TIP3   OH243772   5.474   2.685   3.691 -0.4863 -0.1087  0.6408
 6526TIP3    H143773   5.464   2.592   3.675 -3.7340 -0.2360  2.5746
 6526TIP3    H243774   5.441   2.727   3.612 -0.2451 -0.5890  0.2819
 6527TIP3   OH243775   5.122   2.600   2.447  0.6375 -0.8267 -0.1759
 6527TIP3    H143776   5.029   2.596   2.428  0.4565  1.5915 -0.1389
 6527TIP3    H243777   5.165   2.591   2.362  0.3261 -1.1213 -0.2996
 6528TIP3   OH243778   6.825   5.467   3.253  0.1405  0.1773 -0.0397
 6528TIP3    H143779   6.910   5.428   3.276 -1.8060 -3.7878  1.3439
 6528TIP3    H243780   6.818   5.543   3.311  2.7678  0.7670 -0.3468
 6529TIP3   OH243781   1.185   5.740   3.348  0.1336  0.1760  0.0511
 6529TIP3    H143782   1.191   5.796   3.426 -1.1354  0.1591  0.1916
 6529TIP3    H243783   1.197   5.800   3.275 -1.0847  0.6435  0.2059
 6530TIP3   OH243784   5.347   1.214   2.248 -0.5222  0.3359 -0.1941
 6530TIP3    H143785   5.298   1.148   2.297  0.5710 -0.0740  0.3660
 6530TIP3    H243786   5.361   1.173   2.162 -0.0913 -0.0629  0.0581
 6531TIP3   OH243787   2.115   3.527   3.764  0.1037  0.0332  0.0201
 6531TIP3    H143788   2.109   3.578   3.683 -0.2063  0.7479  0.4860
 6531TIP3    H243789   2.103   3.591   3.834 -1.6561 -0.8765  0.5981
 6532TIP3   OH243790   3.837   4.959   3.184 -0.4155  0.4719  0.2754
 6532TIP3    H143791   3.875   4.907   3.255  1.7426  0.2420 -0.9428
 6532TIP3    H243792   3.743   4.958   3.201 -0.0358 -0.1566  2.7020
 6533TIP3   OH243793   2.460   3.504   3.178  0.0156 -0.3669  0.3697
 6533TIP3    H143794   2.391   3.469   3.122  0.2035 -0.7629  0.3758
 6533TIP3    H243795   2.414   3.543   3.252 -0.2243 -0.0760  0.0710
 6534TIP3   OH243796   4.893   4.263   3.432 -0.2591 -0.9473  0.2334
 6534TIP3    H143797   4.972   4.225   3.471 -0.8472 -1.4317  0.9686
 6534TIP3    H243798   4.871   4.336   3.489 -0.0334 -0.4541 -0.2944
 6535TIP3   OH243799   3.554   5.403   3.975 -0.5359  0.1981  0.3531
 6535TIP3    H143800   3.533   5.314   4.002 -1.4140  0.1057 -0.5797
 6535TIP3    H243801   3.648   5.400   3.955 -0.8798 -0.9710 -1.2965
 6536TIP3   OH243802   1.672   7.153   4.126  0.4007 -0.0661  0.0434
 6536TIP3    H143803   1.725   7.081   4.090 -1.1853 -1.5704  0.5550
 6536TIP3    H243804   1.710   7.232   4.088  0.0860 -1.3901 -3.4297
 6537TIP3   OH243805   2.825   6.662   3.882 -0.5614  0.0732  0.1875
 6537TIP3    H143806   2.731   6.676   3.889 -0.7593 -0.0651 -1.7275
 6537TIP3    H243807   2.851   6.710   3.803  1.0766  0.5196  0.9469
 6538TIP3   OH243808   0.054   6.651   4.290 -0.0521  0.2910 -0.2772
 6538TIP3    H143809   0.126   6.628   4.231  0.0804 -0.5721  0.2073
 6538TIP3    H243810   0.022   6.735   4.258  1.4690  0.9091 -0.2292
 6539TIP3   OH243811   2.747   1.207   2.990 -0.4729 -0.1741  0.2799
 6539TIP3    H143812   2.823   1.253   2.954 -0.0672 -0.3061  0.9489
 6539TIP3    H243813   2.776   1.116   2.997 -1.3433 -0.5937 -1.2410
 6540TIP3   OH243814   3.492   1.099   3.004  0.0135  0.5580 -0.5430
 6540TIP3    H143815   3.569   1.151   3.024 -0.5946  1.1563  0.3007
 6540TIP3    H243816   3.418   1.152   3.033 -0.6340 -0.7357  0.2956
 6541TIP3   OH243817   0.548   6.874   4.255 -0.2687  0.2824 -0.0376
 6541TIP3    H143818   0.521   6.845   4.341  1.0199 -1.0888 -0.0629
 6541TIP3    H243819   0.615   6.941   4.272  1.3417 -1.2714  0.1123
 6542TIP3   OH243820   2.875   3.509   1.837 -0.0142 -0.0105 -0.3287
 6542TIP3    H143821   2.857   3.422   1.801 -0.7451  0.5148 -1.2944
 6542TIP3    H243822   2.789   3.547   1.852  0.2530 -0.2595  2.2172
 6543TIP3   OH243823   6.809   7.498   3.040 -0.5101 -0.4728 -0.3717
 6543TIP3    H143824   6.826   7.591   3.023  0.1323 -0.7507 -1.3132
 6543TIP3    H243825   6.754   7.498   3.118  1.0673  0.6386  0.8137
 6544TIP3   OH243826   0.238   2.029   3.633  0.3488  0.4640  0.6433
 6544TIP3    H143827   0.318   2.026   3.580 -0.3802  2.2115 -0.6184
 6544TIP3    H243828   0.169   1.997   3.575 -0.1770  0.6948  1.1307
 6545TIP3   OH243829   1.259   1.395   4.830  0.2000  0.1171 -0.3134
 6545TIP3    H143830   1.268   1.445   4.911 -0.5223  0.9947 -0.7578
 6545TIP3    H243831   1.164   1.380   4.821  0.3832 -1.2288 -0.2663
 6546TIP3   OH243832   5.262   5.079   2.653  0.3606 -0.2382 -0.3494
 6546TIP3    H143833   5.197   5.146   2.675  1.6176  0.7548  0.4712
 6546TIP3    H243834   5.301   5.110   2.571 -0.3120 -0.9350 -0.9467
 6547TIP3   OH243835   2.193   4.723   2.861 -0.6241  0.4793  0.2702
 6547TIP3    H143836   2.169   4.723   2.954  0.5900 -0.4646  0.6153
 6547TIP3    H243837   2.181   4.814   2.833 -1.9305  0.5819  1.0828
 6548TIP3   OH243838   6.184   4.925   4.623 -0.0384 -0.0265 -0.0905
 6548TIP3    H143839   6.174   4.844   4.573  1.9533  0.7126 -1.7808
 6548TIP3    H243840   6.253   4.905   4.687  0.6286  0.3990 -0.6731
 6549TIP3   OH243841   1.260   7.252   2.702  0.4214 -0.2239 -0.5186
 6549TIP3    H143842   1.202   7.317   2.742  1.3433  0.7354 -0.7021
 6549TIP3    H243843   1.266   7.182   2.767  1.5578  1.1106  0.8947
 6550TIP3   OH243844   5.322   0.564   4.183  0.2042  0.2454  0.4583
 6550TIP3    H143845   5.347   0.552   4.274  1.5720  0.6472  0.1534
 6550TIP3    H243846   5.272   0.645   4.182 -0.6552 -0.2581  0.9847
 6551TIP3   OH243847   7.240   3.061   4.478 -0.1739  0.3178  0.0381
 6551TIP3    H143848   7.268   2.973   4.452  1.4389 -0.2616  3.3115
 6551TIP3    H243849   7.150   3.049   4.508  0.7523 -0.8438  2.6715
 6552TIP3   OH243850   7.126   1.571   4.483 -0.1690 -0.3847  0.3584
 6552TIP3    H143851   7.198   1.549   4.423 -0.1926  0.1602  0.1243
 6552TIP3    H243852   7.165   1.634   4.544 -0.3592 -0.3469  0.4411
 6553TIP3   OH243853   2.300   3.393   4.692  0.1866  0.1606 -0.7891
 6553TIP3    H143854   2.236   3.391   4.621  1.1770  0.1366 -1.7034
 6553TIP3    H243855   2.384   3.374   4.650  0.9504  1.1428  0.2122
 6554TIP3   OH243856   1.248   2.297   5.069  0.4012 -0.1221 -0.0997
 6554TIP3    H143857   1.189   2.358   5.114  0.2721  0.9965 -1.7076
 6554TIP3    H243858   1.191   2.243   5.015  0.6297 -0.8079  0.3386
 6555TIP3   OH243859   1.753   2.548   4.399  0.4284  0.1499 -0.2637
 6555TIP3    H143860   1.772   2.634   4.361 -1.6664 -0.0587 -1.9979
 6555TIP3    H243861   1.731   2.494   4.323 -3.3356 -0.4953  1.0758
 6556TIP3   OH243862   6.338   4.485   2.140 -0.4474 -0.1269 -0.1343
 6556TIP3    H143863   6.329   4.438   2.057 -1.2028 -0.0733 -0.0950
 6556TIP3    H243864   6.427   4.519   2.139  0.0617 -1.4058 -0.2444
 6557TIP3   OH243865   3.616   4.006   1.988  1.2244 -0.1724  0.1677
 6557TIP3    H143866   3.711   3.999   1.979  1.5884  0.8018  2.4631
 6557TIP3    H243867   3.595   3.950   2.062 -0.1888 -1.2211 -0.9758
 6558TIP3   OH243868   0.053   2.792   3.011 -0.1587  0.9787  0.0909
 6558TIP3    H143869   0.033   2.813   3.102  0.2570 -1.3693  0.7875
 6558TIP3    H243870   0.148   2.790   3.008 -0.1672  1.2871 -0.4783
 6559TIP3   OH243871   1.106   2.156   4.836  0.1975 -0.7287  0.1607
 6559TIP3    H143872   1.132   2.135   4.746  0.3318  0.7901 -0.1905
 6559TIP3    H243873   1.011   2.147   4.838  0.0819  0.2061 -0.4403
 6560TIP3   OH243874   7.613   6.937   4.217 -0.2873 -0.0964 -0.4808
 6560TIP3    H143875   7.616   7.021   4.264 -0.8741 -1.7113  2.6695
 6560TIP3    H243876   7.525   6.934   4.178  0.1627  1.2008 -1.7210
 6561TIP3   OH243877   2.609   3.587   1.910 -0.1982  0.4843  0.1095
 6561TIP3    H143878   2.557   3.665   1.925 -1.2149 -0.1612  0.0482
 6561TIP3    H243879   2.564   3.541   1.839  0.6725  0.0913 -0.2105
 6562TIP3   OH243880   2.930   2.948   2.760 -0.1809 -0.4606 -0.0006
 6562TIP3    H143881   2.849   2.898   2.767 -0.5742 -0.0023 -1.0576
 6562TIP3    H243882   2.953   2.944   2.668 -0.9823  2.4211 -0.4261
 6563TIP3   OH243883   1.669   5.035   4.053 -0.0212  0.1995  0.2500
 6563TIP3    H143884   1.646   5.128   4.049 -2.2347 -0.1715  2.1211
 6563TIP3    H243885   1.610   4.999   4.119  0.9772 -2.4975 -0.2172
 6564TIP3   OH243886   5.069   1.105   2.836  0.4134  0.0233 -0.3659
 6564TIP3    H143887   5.076   1.195   2.804  0.4456  0.0777 -0.2064
 6564TIP3    H243888   5.015   1.112   2.915  0.7770 -0.0397 -0.1107
 6565TIP3   OH243889   1.179   3.829   3.491 -0.1271 -0.6481  0.3389
 6565TIP3    H143890   1.154   3.921   3.481  1.2262 -0.1217  1.4497
 6565TIP3    H243891   1.099   3.785   3.518 -0.4925  0.4488  1.0962
 6566TIP3   OH243892   3.637   2.297   3.378 -0.0143  0.6518  0.1491
 6566TIP3    H143893   3.638   2.375   3.323  0.4975  0.1133 -0.6276
 6566TIP3    H243894   3.552   2.257   3.362  0.1120  0.5259 -0.2173
 6567TIP3   OH243895   4.656   3.733   4.117 -0.1376  0.5595 -0.6229
 6567TIP3    H143896   4.604   3.710   4.041  2.0150 -1.6600 -1.5833
 6567TIP3    H243897   4.709   3.655   4.134  2.0882  2.2613  0.9076
 6568TIP3   OH243898   7.254   4.632   4.738 -0.0162  0.0062 -0.1657
 6568TIP3    H143899   7.266   4.685   4.816  0.6788  0.9410 -0.8769
 6568TIP3    H243900   7.342   4.598   4.719  0.0111  0.5363 -1.0435
 6569TIP3   OH243901   4.261   5.241   3.829  0.0947  0.0357  0.0414
 6569TIP3    H143902   4.276   5.219   3.920 -0.3093 -0.8534 -0.0938
 6569TIP3    H243903   4.272   5.336   3.824 -1.9384  0.4016  1.4423
 6570TIP3   OH243904   3.429   6.466   3.301 -0.4464 -0.4402 -0.4832
 6570TIP3    H143905   3.495   6.514   3.351 -0.5989 -0.9519  0.2176
 6570TIP3    H243906   3.362   6.443   3.365 -0.2119 -1.8799 -0.7265
 6571TIP3   OH243907   4.168   6.087   2.504  0.4545  0.1546  0.0631
 6571TIP3    H143908   4.144   6.179   2.497 -0.2272 -0.0264 -0.0650
 6571TIP3    H243909   4.090   6.044   2.540  0.9782 -0.2781  0.7268
 6572TIP3   OH243910   6.075   5.065   3.420 -0.8072  0.2458 -0.3054
 6572TIP3    H143911   6.111   5.044   3.507 -0.2635  1.3110 -0.2586
 6572TIP3    H243912   6.006   5.000   3.407 -0.9155  0.0819  0.9375
 6573TIP3   OH243913   5.789   3.112   3.052 -0.3015  0.3824 -0.5460
 6573TIP3    H143914   5.878   3.090   3.080 -0.5236 -0.8518 -0.7443
 6573TIP3    H243915   5.789   3.096   2.958 -1.0297 -0.7386 -0.3750
 6574TIP3   OH243916   2.380   4.956   3.395  0.1379 -0.1679 -0.0449
 6574TIP3    H143917   2.308   4.933   3.453  0.2002  0.5667  0.3345
 6574TIP3    H243918   2.456   4.909   3.430 -0.4571 -2.2390 -1.3836
 6575TIP3   OH243919   1.802   3.709   3.255  0.2534 -0.1389  0.0413
 6575TIP3    H143920   1.745   3.750   3.190  1.0436  0.6128 -0.1993
 6575TIP3    H243921   1.751   3.710   3.336 -0.8064 -1.2331 -0.5840
 6576TIP3   OH243922   6.109   4.683   3.398  0.1604  0.2046  0.2282
 6576TIP3    H143923   6.200   4.657   3.415 -0.2843 -2.9510 -1.5187
 6576TIP3    H243924   6.088   4.642   3.314 -2.6985  1.4679  0.2247
 6577TIP3   OH243925   5.953   5.919   2.205 -0.0397  0.2804  0.4745
 6577TIP3    H143926   5.904   5.911   2.123  1.4713 -0.5032 -0.4110
 6577TIP3    H243927   5.921   5.847   2.259 -0.6622  0.4696  0.3598
 6578TIP3   OH243928   3.570   6.248   4.264 -0.5650  0.2805  0.2020
 6578TIP3    H143929   3.581   6.315   4.331 -2.3303  0.1937  0.6250
 6578TIP3    H243930   3.641   6.186   4.280  0.5199  1.5377  0.4022
 6579TIP3   OH243931   6.898   3.631   2.555  0.5091 -0.2822  0.2736
 6579TIP3    H143932   6.938   3.547   2.579 -0.9813 -0.6957  1.5367
 6579TIP3    H243933   6.808   3.608   2.533 -0.3269  1.1122  2.0118
 6580TIP3   OH243934   2.920   6.576   4.981 -0.4162 -0.1212  0.4656
 6580TIP3    H143935   2.905   6.482   4.975  1.0203 -0.4450  1.4111
 6580TIP3    H243936   2.983   6.586   5.053 -0.9382  1.6072  0.7361
 6581TIP3   OH243937   4.113   0.006   2.532  0.4747 -0.5895 -0.4058
 6581TIP3    H143938   4.156   0.078   2.486  1.6466 -0.3057  1.0442
 6581TIP3    H243939   4.172  -0.069   2.522  0.1056 -0.8833 -0.4429
 6582TIP3   OH243940   2.227   2.973   2.944 -0.3120 -0.0530 -0.4446
 6582TIP3    H143941   2.169   2.939   2.876  1.9849  0.2150 -2.7104
 6582TIP3    H243942   2.210   3.067   2.945  0.4863  0.1317 -1.6178
 6583TIP3   OH243943   0.476   1.499   4.252 -0.1337 -0.2663 -0.2073
 6583TIP3    H143944   0.383   1.477   4.259 -0.3456  0.7676  0.3809
 6583TIP3    H243945   0.477   1.590   4.224  0.7262 -0.7674 -1.9284
 6584TIP3   OH243946   5.556   0.057   4.015  0.4185 -0.3383  0.1275
 6584TIP3    H143947   5.631   0.103   4.052  0.0066  0.6482 -0.2294
 6584TIP3    H243948   5.563  -0.032   4.050  1.5117 -0.1525  0.4328
 6585TIP3   OH243949   6.817   6.204   3.748  0.4046 -0.0267 -0.1378
 6585TIP3    H143950   6.848   6.260   3.678 -0.2588 -1.2597 -1.4729
 6585TIP3    H243951   6.826   6.115   3.714  0.5412 -0.7045  1.5378
 6586TIP3   OH243952   3.469   5.033   1.982  0.9477  0.7240 -0.2027
 6586TIP3    H143953   3.441   4.986   2.060 -0.6033 -1.6760 -2.0795
 6586TIP3    H243954   3.560   5.057   2.001  0.7408 -0.0642  2.1779
 6587TIP3   OH243955   7.067   1.031   3.011 -0.3022  0.1353 -0.0225
 6587TIP3    H143956   7.114   0.948   3.008  0.3672  0.3767  1.8371
 6587TIP3    H243957   7.051   1.054   2.920  2.1444 -0.5763 -0.6961
 6588TIP3   OH243958   6.477   6.754   3.795 -0.1067 -0.1389 -0.2778
 6588TIP3    H143959   6.521   6.686   3.845 -0.9602  0.7007  1.7018
 6588TIP3    H243960   6.545   6.817   3.774  0.1053 -0.0483  0.6460
 6589TIP3   OH243961   5.968   5.214   3.064  0.5634  0.3724 -0.3092
 6589TIP3    H143962   5.921   5.294   3.040  0.0468  0.4429  0.8895
 6589TIP3    H243963   5.906   5.143   3.046 -0.0776  0.4710  1.3470
 6590TIP3   OH243964   7.468   5.887   4.654  0.1121  0.0293 -0.8016
 6590TIP3    H143965   7.385   5.868   4.698 -0.0058  0.0228 -1.0271
 6590TIP3    H243966   7.481   5.813   4.595  1.5902 -1.3447  1.1235
 6591TIP3   OH243967   4.878   1.746   3.138  0.4814 -0.2702 -0.5080
 6591TIP3    H143968   4.924   1.710   3.062  2.2410  0.0264  0.3641
 6591TIP3    H243969   4.849   1.670   3.188 -1.7944 -0.4934 -2.0490
 6592TIP3   OH243970   2.836   1.598   3.388  1.1427 -0.3259  0.1113
 6592TIP3    H143971   2.908   1.549   3.428  1.4539  0.1847  0.1892
 6592TIP3    H243972   2.842   1.685   3.428  3.3511  1.2355 -3.1071
 6593TIP3   OH243973   1.122   3.908   4.676 -0.0192  0.5933 -0.0153
 6593TIP3    H143974   1.075   3.882   4.755  0.9735 -1.6537 -0.0849
 6593TIP3    H243975   1.208   3.937   4.709  0.0702  0.5405 -0.2028
 6594TIP3   OH243976   6.640   6.034   2.467  0.1612 -0.6042 -0.4762
 6594TIP3    H143977   6.707   6.098   2.492  1.1065 -1.5825 -0.4478
 6594TIP3    H243978   6.689   5.963   2.426 -0.7336 -1.8792  0.5851
 6595TIP3   OH243979   4.975   7.370   3.603 -0.0448  0.1830 -0.0850
 6595TIP3    H143980   5.023   7.355   3.522 -1.5119 -2.0347 -0.6416
 6595TIP3    H243981   5.042   7.365   3.671  1.0736  1.1823 -1.0631
 6596TIP3   OH243982   1.207   2.917   3.823  0.2694 -0.1646  0.0382
 6596TIP3    H143983   1.202   2.847   3.888  1.3637  0.4850  0.8540
 6596TIP3    H243984   1.200   2.872   3.739  1.8260 -1.3795  0.5023
 6597TIP3   OH243985   2.959   5.217   4.068 -0.5020  0.1354  0.0025
 6597TIP3    H143986   2.998   5.303   4.080  0.9878 -0.0855 -2.4972
 6597TIP3    H243987   2.881   5.233   4.015 -0.3479 -0.0155 -0.2749
 6598TIP3   OH243988   3.556   7.618   3.535 -0.2342  0.1823  0.6503
 6598TIP3    H143989   3.588   7.672   3.463 -1.1422 -0.0981  0.0167
 6598TIP3    H243990   3.628   7.617   3.598  1.0624 -0.5902 -0.7902
 6599TIP3   OH243991   4.021   1.014   5.072 -0.2124  0.0942 -0.0505
 6599TIP3    H143992   4.025   0.940   5.133 -0.5902  1.6132  1.9284
 6599TIP3    H243993   3.928   1.032   5.063 -0.0947  0.8691  0.2076
 6600TIP3   OH243994   2.319   7.441   3.415  0.2890  0.5502 -0.6387
 6600TIP3    H143995   2.244   7.394   3.379 -0.6302  1.1279  0.4386
 6600TIP3    H243996   2.356   7.488   3.341  0.1487 -0.4613 -1.3687
 6601TIP3   OH243997   5.960   1.569   2.080 -0.8850  0.6981 -0.4448
 6601TIP3    H143998   6.010   1.634   2.029 -0.3629  2.9582  2.6564
 6601TIP3    H243999   5.870   1.604   2.080 -0.7048  1.2074  0.8120
 6602TIP3   OH244000   7.318   3.705   3.946  0.1787 -0.3858  0.8631
 6602TIP3    H144001   7.268   3.623   3.942 -0.3295 -0.0290 -2.3122
 6602TIP3    H244002   7.407   3.677   3.970  0.1775 -1.9983 -0.8085
 6603TIP3   OH244003   0.502   5.683   5.070  0.1916 -0.0515  0.1432
 6603TIP3    H144004   0.577   5.741   5.053  0.7508 -1.4653 -2.7697
 6603TIP3    H244005   0.542   5.600   5.096 -0.4116 -0.3494  0.1254
 6604TIP3   OH244006   5.186   2.307   2.806  0.5563  0.2252  0.4198
 6604TIP3    H144007   5.205   2.232   2.749  1.7798  1.0174 -0.2581
 6604TIP3    H244008   5.255   2.370   2.787  0.7401  0.7206  2.4651
 6605TIP3   OH244009   4.124   3.017   4.588  0.2405 -0.4059  0.2525
 6605TIP3    H144010   4.082   2.964   4.656 -0.1649  0.5183  0.7501
 6605TIP3    H244011   4.102   2.974   4.506 -0.6021 -0.6659  0.6077
 6606TIP3   OH244012   2.163   6.694   3.697 -0.3339  0.2908 -0.1141
 6606TIP3    H144013   2.236   6.634   3.692 -2.0086 -1.9795  0.9743
 6606TIP3    H244014   2.098   6.659   3.636 -0.9932  1.5311 -0.1630
 6607TIP3   OH244015   5.604   1.721   4.128  0.1725  0.0106 -0.2043
 6607TIP3    H144016   5.645   1.777   4.195  1.5341 -1.6914  0.4730
 6607TIP3    H244017   5.660   1.732   4.051 -0.6615  0.9925 -0.6926
 6608TIP3   OH244018   3.165   7.306   3.093  0.1345 -0.0725 -0.3244
 6608TIP3    H144019   3.255   7.272   3.090  0.5485  1.0087 -0.7840
 6608TIP3    H244020   3.164   7.376   3.027 -0.5839  1.0013  0.7833
 6609TIP3   OH244021   0.904   0.537   3.649 -0.0964 -0.6402  0.3835
 6609TIP3    H144022   0.943   0.519   3.563 -1.3853  1.1457 -0.6441
 6609TIP3    H244023   0.948   0.617   3.679  0.0200 -0.9982  1.1876
 6610TIP3   OH244024   4.829   1.761  10.423  0.4552 -0.0238 -0.5463
 6610TIP3    H144025   4.852   1.853  10.412 -0.3303  0.0559 -1.7740
 6610TIP3    H244026   4.886   1.715  10.362  0.9416 -0.3767  0.1666
 6611TIP3   OH244027   4.843   1.068   3.015  0.0035  0.3037 -0.7667
 6611TIP3    H144028   4.871   0.984   3.051  1.1391  0.6266 -0.8628
 6611TIP3    H244029   4.858   1.130   3.086  0.0466  0.5734 -1.0117
 6612TIP3   OH244030   5.296   0.043   3.728 -0.0455 -0.1406 -0.3338
 6612TIP3    H144031   5.313  -0.045   3.762  0.8414  0.0012 -0.3798
 6612TIP3    H244032   5.240   0.028   3.652 -1.0852 -0.5438  0.4907
 6613TIP3   OH244033   4.601   3.451   3.824  0.6433 -0.2231 -0.0261
 6613TIP3    H144034   4.563   3.454   3.912  2.9179 -1.0439  1.0878
 6613TIP3    H244035   4.559   3.522   3.777 -3.7365 -2.2839  0.3007
 6614TIP3   OH244036   2.197   2.412   4.789 -0.6464 -0.1338  0.3112
 6614TIP3    H144037   2.186   2.502   4.758  1.8603 -0.0189 -0.4630
 6614TIP3    H244038   2.141   2.406   4.866  0.2564  2.6171  1.2942
 6615TIP3   OH244039   2.904   1.170   3.946 -0.2500 -0.0015 -0.1007
 6615TIP3    H144040   2.848   1.099   3.977  0.6737 -1.6095 -1.8806
 6615TIP3    H244041   2.993   1.136   3.951  0.3053  1.3371 -0.2455
 6616TIP3   OH244042   0.781   0.944   5.063  0.1786  0.0071  0.3013
 6616TIP3    H144043   0.808   1.021   5.013 -0.7763  0.3161  0.2339
 6616TIP3    H244044   0.858   0.921   5.115  1.4645 -0.7591 -1.7962
 6617TIP3   OH244045   6.310   2.961   3.902 -0.2380 -0.0573  0.3867
 6617TIP3    H144046   6.353   2.978   3.986 -1.6650  0.8899  0.9601
 6617TIP3    H244047   6.366   2.895   3.859  1.4582  0.7201  1.3125
 6618TIP3   OH244048   3.280   5.883   2.199  0.1596 -0.3832 -0.3335
 6618TIP3    H144049   3.280   5.977   2.180  2.2897  0.6297  3.4650
 6618TIP3    H244050   3.192   5.866   2.234 -1.2659 -0.6635 -3.6840
 6619TIP3   OH244051   5.210   6.165   3.933 -0.0069 -0.3110 -0.0228
 6619TIP3    H144052   5.295   6.188   3.971 -0.7106 -0.6561  1.8332
 6619TIP3    H244053   5.163   6.248   3.927  0.0655 -0.2732 -0.0773
 6620TIP3   OH244054   1.310   0.468   4.261 -0.0968 -0.7400 -0.0145
 6620TIP3    H144055   1.220   0.499   4.250  0.3862  1.8526  2.1792
 6620TIP3    H244056   1.305   0.402   4.329 -0.5127 -1.9565 -1.1852
 6621TIP3   OH244057   2.637   5.829   2.307 -0.3562 -0.2620 -0.2243
 6621TIP3    H144058   2.668   5.785   2.228 -2.7012  2.3418 -2.8265
 6621TIP3    H244059   2.546   5.801   2.316 -0.4260  0.2909  0.9484
 6622TIP3   OH244060   5.990   1.212   3.556  0.2476  0.0549 -0.1782
 6622TIP3    H144061   5.980   1.244   3.467 -1.0728 -1.6233 -0.6870
 6622TIP3    H244062   6.072   1.250   3.587 -0.8809  3.3245 -0.8986
 6623TIP3   OH244063   3.311   4.352   4.241 -0.5445  0.5871 -0.1754
 6623TIP3    H144064   3.264   4.276   4.276 -0.7970  1.2723  1.0570
 6623TIP3    H244065   3.388   4.360   4.297 -0.3751  1.0773 -0.4726
 6624TIP3   OH244066   4.956   0.765   2.886 -0.6018 -1.0751 -0.5247
 6624TIP3    H144067   5.029   0.707   2.910  1.0361  0.9929 -0.2277
 6624TIP3    H244068   4.970   0.784   2.794  0.8621  1.3907  0.1220
 6625TIP3   OH244069   5.395   6.984   3.393  0.3923  0.0686 -0.1167
 6625TIP3    H144070   5.481   6.948   3.374  0.2008  0.1240 -1.1805
 6625TIP3    H244071   5.358   7.004   3.307 -1.8520 -2.6099  0.0621
 6626TIP3   OH244072   1.333   5.695   2.862 -0.4388  0.1056  0.1580
 6626TIP3    H144073   1.252   5.656   2.830  0.7023 -1.1471 -1.4458
 6626TIP3    H244074   1.354   5.764   2.799 -0.1071  0.2206  0.3849
 6627TIP3   OH244075   3.042   6.212   4.597 -0.3939  0.1721 -0.0002
 6627TIP3    H144076   3.072   6.126   4.568  3.2413  1.6471 -1.1461
 6627TIP3    H244077   2.983   6.193   4.670  0.3840 -3.2873 -0.1037
 6628TIP3   OH244078   4.906   7.069   2.148 -0.1143  0.4145  0.2128
 6628TIP3    H144079   4.990   7.092   2.109 -1.2454  0.7816 -2.2321
 6628TIP3    H244080   4.921   7.071   2.242  2.9366 -0.9060 -0.1462
 6629TIP3   OH244081   1.483   5.868   4.532  0.0270  0.0820 -0.0236
 6629TIP3    H144082   1.478   5.785   4.581 -3.5388  0.5936  0.8197
 6629TIP3    H244083   1.528   5.927   4.592  0.5213 -0.6662  0.3680
 6630TIP3   OH244084   6.674   3.139   2.879  0.1294  0.0154  0.1373
 6630TIP3    H144085   6.637   3.059   2.915 -1.3953  0.6716  0.1519
 6630TIP3    H244086   6.693   3.194   2.956  1.4109 -0.4076  0.1416
 6631TIP3   OH244087   5.882   5.497   2.632  0.3250  0.0609  0.6560
 6631TIP3    H144088   5.841   5.584   2.641 -1.4014 -0.8095  1.9843
 6631TIP3    H244089   5.908   5.492   2.540 -0.3702  1.6371  0.3304
 6632TIP3   OH244090   2.339   2.569   2.376 -0.4309  0.0820 -0.7705
 6632TIP3    H144091   2.254   2.551   2.416 -1.2927 -1.7648 -3.2183
 6632TIP3    H244092   2.348   2.665   2.380 -0.5605  0.1143  3.3348
 6633TIP3   OH244093   6.591   3.512   2.947 -0.0999 -0.2101 -0.2204
 6633TIP3    H144094   6.626   3.504   3.036  0.0524 -1.1447 -0.3487
 6633TIP3    H244095   6.577   3.421   2.919  2.1894 -0.0880 -2.0584
 6634TIP3   OH244096   5.604   7.439   3.900  0.5401  0.3555  0.1273
 6634TIP3    H144097   5.638   7.356   3.867 -0.2830 -0.8916  2.2533
 6634TIP3    H244098   5.656   7.506   3.854  2.2850 -1.3410 -0.5144
 6635TIP3   OH244099   1.074   5.571   2.884  0.1371  0.4809 -0.0369
 6635TIP3    H144100   0.984   5.591   2.859 -0.0393 -0.3058 -0.0472
 6635TIP3    H244101   1.092   5.485   2.846  1.3386  1.1809 -1.1454
 6636TIP3   OH244102   2.012   7.513   4.048  0.3542  0.3022  0.3333
 6636TIP3    H144103   2.032   7.566   3.971  1.2175  0.4162  0.6323
 6636TIP3    H244104   2.062   7.433   4.036 -0.7791 -0.3820 -0.0128
 6637TIP3   OH244105   0.907   3.146   4.225  0.3321  0.2585  0.2256
 6637TIP3    H144106   0.844   3.168   4.157  0.8016  3.2300  0.5945
 6637TIP3    H244107   0.859   3.089   4.285 -1.2905  0.6505 -0.6469
 6638TIP3   OH244108   1.463   5.196   3.126 -0.2725  0.3438  0.0899
 6638TIP3    H144109   1.461   5.291   3.131  2.4942  0.8315 -3.6005
 6638TIP3    H244110   1.546   5.171   3.166  0.2935 -0.1333 -1.2910
 6639TIP3   OH244111   4.487   2.880   3.847  0.8473  0.3350  0.3534
 6639TIP3    H144112   4.459   2.788   3.845  2.4489 -0.1592 -1.6798
 6639TIP3    H244113   4.551   2.884   3.918  0.4269  0.0044  0.7574
 6640TIP3   OH244114   5.458   2.404   2.210  0.0511  0.2054  0.1875
 6640TIP3    H144115   5.386   2.454   2.171  0.0583  0.0849  0.0218
 6640TIP3    H244116   5.431   2.313   2.201  0.3086  0.1527 -0.0337
 6641TIP3   OH244117   0.956   2.233   3.807  0.1821  0.2808  0.3167
 6641TIP3    H144118   0.967   2.150   3.761 -0.8493  0.7309 -0.8128
 6641TIP3    H244119   0.947   2.208   3.899  0.6934 -0.7841  0.0960
 6642TIP3   OH244120   5.295   7.512   4.150 -0.4339 -0.2921  0.3457
 6642TIP3    H144121   5.254   7.432   4.184 -0.9872 -0.0315  0.2989
 6642TIP3    H244122   5.319   7.562   4.228  0.3453 -0.7068  0.3887
 6643TIP3   OH244123   0.602   4.141   3.028  0.1198 -0.2436 -0.6077
 6643TIP3    H144124   0.528   4.194   2.998  1.2709  0.3479 -2.5994
 6643TIP3    H244125   0.666   4.205   3.061 -0.2191 -0.7516  1.1611
 6644TIP3   OH244126   4.883   1.729   4.048  0.6271  0.3554  0.1261
 6644TIP3    H144127   4.841   1.652   4.010 -1.8267  1.4220  0.4930
 6644TIP3    H244128   4.966   1.736   4.001 -0.3559 -0.8643 -1.9485
 6645TIP3   OH244129   2.741   4.656   4.116 -0.3702 -0.3754 -0.3408
 6645TIP3    H144130   2.803   4.701   4.174 -0.2652 -0.0261 -0.7150
 6645TIP3    H244131   2.761   4.563   4.127  1.4655 -0.2108 -1.7925
 6646TIP3   OH244132   6.826   5.263   2.443  0.1175  0.8009 -0.0981
 6646TIP3    H144133   6.832   5.310   2.526  1.8867  0.9794 -0.2818
 6646TIP3    H244134   6.847   5.173   2.465 -0.4512  0.6413 -0.1987
 6647TIP3   OH244135   0.242   3.906   2.319 -0.3682  0.4199 -0.4664
 6647TIP3    H144136   0.153   3.915   2.284 -0.0279 -0.2193 -1.5679
 6647TIP3    H244137   0.264   3.814   2.305 -0.1121  0.1944  1.2700
 6648TIP3   OH244138   4.005   5.964   2.727  0.3594  0.0177 -0.2057
 6648TIP3    H144139   4.011   5.870   2.739  1.0980  0.2474  1.4877
 6648TIP3    H244140   3.919   5.988   2.762  0.8201  0.1482  0.8899
 6649TIP3   OH244141   3.580   7.251   3.591 -0.2185 -0.2422  0.1504
 6649TIP3    H144142   3.587   7.294   3.676 -1.2422  1.7438 -0.7207
 6649TIP3    H244143   3.488   7.224   3.585 -0.2767  0.0686 -0.5008
 6650TIP3   OH244144   1.293   1.398   3.507  0.2116  0.4420 -0.2557
 6650TIP3    H144145   1.334   1.478   3.475 -1.7945  0.9764 -1.7116
 6650TIP3    H244146   1.237   1.426   3.579 -1.4876  0.6297 -1.5943
 6651TIP3   OH244147   4.373   4.867   2.499  1.0854  0.1628  0.4161
 6651TIP3    H144148   4.363   4.786   2.549  1.4132 -0.5363 -0.6352
 6651TIP3    H244149   4.421   4.841   2.420  0.9524  1.3314 -0.0637
 6652TIP3   OH244150   0.874   2.372   4.281  0.4295  0.1983  0.4279
 6652TIP3    H144151   0.844   2.281   4.272  1.5852 -0.1514  0.0464
 6652TIP3    H244152   0.813   2.410   4.344 -0.8843 -0.4633 -0.3952
 6653TIP3   OH244153   3.829   5.142   2.971 -0.1573 -0.5863 -0.5470
 6653TIP3    H144154   3.838   5.068   3.031 -0.6752 -1.1673 -1.1757
 6653TIP3    H244155   3.919   5.174   2.958 -0.0803 -0.0223  1.0370
 6654TIP3   OH244156   7.223   1.792   4.629 -0.6817  0.3990  0.0893
 6654TIP3    H144157   7.189   1.881   4.632 -0.8111  0.3399  3.1348
 6654TIP3    H244158   7.304   1.795   4.680 -0.1547 -1.0657 -0.5831
 6655TIP3   OH244159   0.845   1.586   2.706  0.4935  0.6007 -0.0097
 6655TIP3    H144160   0.800   1.566   2.624  0.1447 -1.1824  0.5530
 6655TIP3    H244161   0.786   1.647   2.751 -1.1916 -1.2406  0.4640
 6656TIP3   OH244162   0.272   4.533   4.265  0.5345  0.5524 -1.4765
 6656TIP3    H144163   0.358   4.543   4.224  1.4285  0.6812  0.3208
 6656TIP3    H244164   0.236   4.622   4.267  1.2339  0.8336 -0.4968
 6657TIP3   OH244165   4.921   7.594   4.309  0.1641  0.5996  0.5715
 6657TIP3    H144166   4.961   7.568   4.226 -1.7362 -0.7753  0.0223
 6657TIP3    H244167   4.979   7.557   4.376  1.2592  0.9917 -0.1330
 6658TIP3   OH244168   2.683   6.810   2.763  0.1769  0.4129  0.4586
 6658TIP3    H144169   2.716   6.786   2.849  0.2776 -0.4172  0.1935
 6658TIP3    H244170   2.678   6.728   2.715 -0.9466  0.7131  0.0303
 6659TIP3   OH244171   0.314   3.477   2.446 -0.4071 -0.0917  0.6171
 6659TIP3    H144172   0.338   3.518   2.529 -1.0524  0.0169  0.7507
 6659TIP3    H244173   0.234   3.428   2.465 -1.7906  1.6428 -0.4052
 6660TIP3   OH244174   5.773   1.123   2.474  0.2504  0.6620 -0.4711
 6660TIP3    H144175   5.695   1.091   2.428  0.1442  0.1374  0.0478
 6660TIP3    H244176   5.812   1.043   2.511 -0.9858  1.2207  2.3734
 6661TIP3   OH244177   2.163   2.569   2.784  0.1716 -0.1126  0.1191
 6661TIP3    H144178   2.213   2.509   2.840 -0.6605 -1.1831 -0.2387
 6661TIP3    H244179   2.098   2.608   2.842  0.4378  0.1242  0.2613
 6662TIP3   OH244180   3.927   5.870   2.370 -0.0553 -0.7438 -0.2049
 6662TIP3    H144181   3.843   5.915   2.373  1.1838  1.7104  0.6372
 6662TIP3    H244182   3.915   5.801   2.304 -2.2520  0.5220 -1.2478
 6663TIP3   OH244183   1.313   0.854   2.606  0.1552 -0.2490  0.2173
 6663TIP3    H144184   1.255   0.890   2.673  0.0434 -0.7597  0.3976
 6663TIP3    H244185   1.309   0.917   2.534 -0.6797 -0.3173  0.1980
 6664TIP3   OH244186   4.598   7.258   2.537  0.0276  0.4098 -0.3706
 6664TIP3    H144187   4.554   7.321   2.481  0.0103  0.3628 -0.4101
 6664TIP3    H244188   4.576   7.173   2.499 -1.2908  0.2804  0.6042
 6665TIP3   OH244189   3.391   3.596   2.456  0.3471  0.4207 -0.7288
 6665TIP3    H144190   3.309   3.644   2.464 -1.0847 -1.8207 -1.0658
 6665TIP3    H244191   3.401   3.552   2.541  1.3198  0.8239 -0.6197
 6666TIP3   OH244192   6.249   1.138   2.320 -0.2975  0.1118  0.6446
 6666TIP3    H144193   6.268   1.218   2.269 -0.2025  0.8226  1.7599
 6666TIP3    H244194   6.155   1.127   2.312 -0.3786  0.6116  0.8728
 6667TIP3   OH244195   2.005   6.492   4.892 -0.6166  0.8695 -0.4401
 6667TIP3    H144196   1.974   6.550   4.962 -0.7167 -0.1355  0.3756
 6667TIP3    H244197   2.086   6.534   4.861  0.8369  0.1338  1.9864
 6668TIP3   OH244198   1.446   4.193   3.622 -0.7720  0.4063 -0.2832
 6668TIP3    H144199   1.495   4.180   3.704  0.4320 -1.3967 -1.2312
 6668TIP3    H244200   1.505   4.245   3.567  0.0026 -1.4242 -1.2773
 6669TIP3   OH244201   1.590   4.726   2.877  0.3335  0.0341 -0.3359
 6669TIP3    H144202   1.509   4.767   2.905  1.2638  0.8219  1.3467
 6669TIP3    H244203   1.570   4.633   2.872 -0.9561  0.3348 -1.0656
 6670TIP3   OH244204   4.720   5.589   2.806  0.3364 -0.7690 -0.2934
 6670TIP3    H144205   4.632   5.552   2.807  0.4273 -1.1196 -1.8693
 6670TIP3    H244206   4.777   5.514   2.788  0.8118 -0.3337 -0.6529
 6671TIP3   OH244207   0.911   6.017   4.338  0.4721 -0.4852  0.0546
 6671TIP3    H144208   0.940   6.092   4.390  1.5616 -2.0004  1.7686
 6671TIP3    H244209   0.818   6.031   4.325 -0.4854 -1.1569  4.6746
 6672TIP3   OH244210   4.261   2.060   4.961  0.5587  0.3882  0.2496
 6672TIP3    H144211   4.304   2.140   4.929 -1.2519  1.9847  1.5364
 6672TIP3    H244212   4.167   2.080   4.955  0.0420 -1.7172  0.5158
 6673TIP3   OH244213   3.440   5.704   3.881  0.2332  0.3652 -0.0240
 6673TIP3    H144214   3.495   5.676   3.954  0.9023  1.0635 -0.2576
 6673TIP3    H244215   3.499   5.750   3.822 -0.6247  1.2822 -0.2019
 6674TIP3   OH244216   6.683   6.996   3.874 -0.0077  0.6019 -0.5521
 6674TIP3    H144217   6.716   6.934   3.939  2.8710  0.3293 -2.0851
 6674TIP3    H244218   6.676   6.945   3.793 -1.1112  1.4774 -1.0351
 6675TIP3   OH244219   1.004   5.363   4.268 -0.2843 -0.0713 -0.3352
 6675TIP3    H144220   1.076   5.420   4.296 -1.1482  0.7757  0.2306
 6675TIP3    H244221   1.006   5.366   4.172  0.6571 -0.3713 -0.3379
 6676TIP3   OH244222   4.458   0.518   3.604 -0.6503  0.0588  0.9566
 6676TIP3    H144223   4.517   0.586   3.573  0.6021 -1.0395  0.8277
 6676TIP3    H244224   4.453   0.455   3.532 -1.7439 -0.0378  1.0911
 6677TIP3   OH244225   0.658   0.234   2.959 -0.1049 -0.4574 -0.4359
 6677TIP3    H144226   0.615   0.308   2.917 -0.0067  1.4033  2.4829
 6677TIP3    H244227   0.586   0.172   2.977 -0.5972  0.0207 -0.7119
 6678TIP3   OH244228   3.509   5.383   4.544  0.0847  0.0075  0.0673
 6678TIP3    H144229   3.487   5.294   4.514 -2.5889  0.2691  0.9642
 6678TIP3    H244230   3.486   5.383   4.637 -0.5893  1.8081 -0.0711
 6679TIP3   OH244231   6.898   1.722   4.599  0.1190  0.1089  0.2450
 6679TIP3    H144232   6.917   1.783   4.671  1.9547  1.2871 -1.1715
 6679TIP3    H244233   6.973   1.663   4.597  0.4854  0.5899 -1.1827
 6680TIP3   OH244234   3.822   2.109   1.911 -0.3765 -0.2590  0.8172
 6680TIP3    H144235   3.797   2.138   1.823  0.2517 -0.0587  0.6965
 6680TIP3    H244236   3.783   2.174   1.970  0.8517  0.7607  0.5610
 6681TIP3   OH244237   5.890   7.569   4.012 -0.3123  0.3538 -0.3104
 6681TIP3    H144238   5.852   7.657   4.004 -0.3788  0.2281 -1.7767
 6681TIP3    H244239   5.984   7.585   4.023 -0.3384  0.6238 -0.4512
 6682TIP3   OH244240   5.530   5.803   3.521 -0.1503  0.9447  0.0503
 6682TIP3    H144241   5.548   5.855   3.442 -0.1694  0.1419 -0.4902
 6682TIP3    H244242   5.441   5.769   3.507  0.3435 -0.2779 -0.2007
 6683TIP3   OH244243   2.183   2.104   3.088 -0.1264  0.5604  0.4682
 6683TIP3    H144244   2.205   2.190   3.122  0.9689  0.4579  0.0809
 6683TIP3    H244245   2.255   2.083   3.028 -0.5963 -0.4335  0.2252
 6684TIP3   OH244246   3.275   1.513   2.630  0.0044 -0.3613  0.3154
 6684TIP3    H144247   3.229   1.459   2.566 -0.3385 -1.2154  1.2673
 6684TIP3    H244248   3.351   1.460   2.655  1.1553  0.7300 -0.7072
 6685TIP3   OH244249   3.419   1.080   3.944  0.4872  0.1330 -0.1670
 6685TIP3    H144250   3.510   1.052   3.939  0.7229  0.1639  2.5859
 6685TIP3    H244251   3.415   1.158   3.889  2.7042  1.3990  1.2888
 6686TIP3   OH244252   6.681   0.825   3.015  0.1101 -0.2934  0.1557
 6686TIP3    H144253   6.665   0.897   2.953  0.2851  0.0498  0.5035
 6686TIP3    H244254   6.594   0.802   3.047  0.1723  0.8184  1.2062
 6687TIP3   OH244255   3.832   7.228   2.911  0.4494 -0.1557 -0.5739
 6687TIP3    H144256   3.826   7.279   2.991  0.7842  0.1277 -0.7249
 6687TIP3    H244257   3.924   7.202   2.906  0.3442 -0.5232 -0.6537
 6688TIP3   OH244258   7.557   3.910   3.426 -0.2852 -0.1889 -0.4753
 6688TIP3    H144259   7.540   3.949   3.511 -0.1959 -2.2298  0.5185
 6688TIP3    H244260   7.499   3.957   3.366 -0.7616  0.8886  0.7955
 6689TIP3   OH244261   2.433   5.765   3.436  0.1260  0.2992  0.6287
 6689TIP3    H144262   2.389   5.681   3.448  0.7371  0.0514  1.1306
 6689TIP3    H244263   2.405   5.817   3.511  0.6361  0.1603  0.9197
 6690TIP3   OH244264   6.500   5.570   3.493  0.0345 -0.1070 -0.1379
 6690TIP3    H144265   6.506   5.513   3.417 -0.4545  2.0963 -1.9449
 6690TIP3    H244266   6.560   5.643   3.474  0.5360  0.1144  1.9901
 6691TIP3   OH244267   0.827   2.113   4.198 -0.1559  0.1403 -0.2909
 6691TIP3    H144268   0.789   2.060   4.268 -0.7789  0.6632 -0.2261
 6691TIP3    H244269   0.798   2.072   4.117  0.4738 -0.4003 -0.2508
 6692TIP3   OH244270   1.387   5.060   4.076 -0.1962  0.6266  0.0469
 6692TIP3    H144271   1.381   5.153   4.055 -1.0255  0.6749  0.4854
 6692TIP3    H244272   1.417   5.058   4.167  2.8948  0.4219 -0.8610
 6693TIP3   OH244273   1.123   0.702   4.102  0.1143 -0.0697  0.3538
 6693TIP3    H144274   1.038   0.703   4.146 -0.8173  0.4347 -1.3549
 6693TIP3    H244275   1.118   0.775   4.039  1.7306 -0.1629  0.0795
 6694TIP3   OH244276   3.446   5.437   2.060  0.7445 -0.3911  0.2321
 6694TIP3    H144277   3.483   5.464   1.976  0.6202 -0.0938  0.2695
 6694TIP3    H244278   3.501   5.480   2.126  1.0923 -0.9508  0.3162
 6695TIP3   OH244279   5.331   6.362   2.225  0.4720  0.2990  0.0886
 6695TIP3    H144280   5.296   6.433   2.279 -1.7116  0.8413 -1.9016
 6695TIP3    H244281   5.263   6.295   2.225  1.6657 -0.9602  0.3118
 6696TIP3   OH244282   3.897   2.878   2.695  0.2976  0.5598  0.0215
 6696TIP3    H144283   3.836   2.834   2.755  0.5891  0.6087  0.3534
 6696TIP3    H244284   3.956   2.809   2.666  1.0687  0.8130  0.9295
 6697TIP3   OH244285   0.828   7.390   3.214  0.5606  0.0746 -0.3483
 6697TIP3    H144286   0.910   7.341   3.203 -0.2136 -0.7181 -3.8907
 6697TIP3    H244287   0.857   7.478   3.239  2.3608 -0.6162  0.1901
 6698TIP3   OH244288   2.018   3.198   2.331  0.2879 -0.3090  0.2666
 6698TIP3    H144289   1.950   3.131   2.328 -1.3748  1.3157  0.0143
 6698TIP3    H244290   2.089   3.158   2.381 -1.8640 -1.2014  2.8175
 6699TIP3   OH244291   5.481   1.094   4.903 -0.0765  0.3267  0.1754
 6699TIP3    H144292   5.507   1.134   4.819 -0.8605  0.6695  0.0909
 6699TIP3    H244293   5.414   1.030   4.880 -0.3178  0.4431  0.5408
 6700TIP3   OH244294   4.310   4.427   2.467  0.5331 -0.0829 -0.1489
 6700TIP3    H144295   4.405   4.424   2.459  0.9147 -1.3464  3.2455
 6700TIP3    H244296   4.293   4.494   2.532 -0.8420 -0.3778 -0.1633
 6701TIP3   OH244297   7.362   2.929   3.976 -0.2618  0.3501 -0.2798
 6701TIP3    H144298   7.336   2.966   3.891 -1.2880 -1.1087 -0.6422
 6701TIP3    H244299   7.369   2.835   3.960  1.8922  0.2791  0.6984
 6702TIP3   OH244300   4.555   4.086   3.985  0.3326 -0.8752 -0.6088
 6702TIP3    H144301   4.507   4.009   3.956  0.6624 -0.8706 -1.1783
 6702TIP3    H244302   4.536   4.152   3.918 -0.0828 -0.4028 -0.0399
 6703TIP3   OH244303   1.467   1.166   3.610  0.3058  0.2163  0.3373
 6703TIP3    H144304   1.416   1.245   3.596 -1.4110 -0.6423  1.4264
 6703TIP3    H244305   1.557   1.197   3.619 -0.0991  1.8519 -0.8637
 6704TIP3   OH244306   3.422   5.674   4.719  0.2625  0.7429  0.2791
 6704TIP3    H144307   3.389   5.763   4.719 -1.2472  0.2207 -0.0661
 6704TIP3    H244308   3.370   5.629   4.786 -0.8908 -0.4922 -1.3591
 6705TIP3   OH244309   4.256   0.478   3.157 -0.3052  0.5026  0.0988
 6705TIP3    H144310   4.253   0.570   3.184 -1.0854  0.3881  0.4247
 6705TIP3    H244311   4.188   0.470   3.091  0.5019  0.4010 -0.7490
 6706TIP3   OH244312   3.550   4.229   3.508  0.1019 -0.2405 -0.3518
 6706TIP3    H144313   3.558   4.308   3.454 -2.5072  2.7047  3.0136
 6706TIP3    H244314   3.629   4.230   3.562  0.2751 -0.1778 -0.6029
 6707TIP3   OH244315   5.291   4.424   4.502 -0.2388  0.3420  0.0184
 6707TIP3    H144316   5.365   4.409   4.562  1.0961 -1.4013 -1.9059
 6707TIP3    H244317   5.285   4.519   4.494  0.4917  0.5804  1.7224
 6708TIP3   OH244318   6.870   6.495   2.595  0.1391  0.0394  0.2371
 6708TIP3    H144319   6.811   6.481   2.669  1.1375 -1.5662  0.7844
 6708TIP3    H244320   6.875   6.590   2.586 -0.6965  0.2459  1.6648
 6709TIP3   OH244321   3.581   4.574   3.604 -0.4712 -0.3065 -0.0980
 6709TIP3    H144322   3.522   4.499   3.604  1.9044 -2.5096  3.7662
 6709TIP3    H244323   3.548   4.631   3.674  0.8314 -0.6331  0.8179
 6710TIP3   OH244324   0.388   1.532   2.749  0.4195 -0.4793  0.0929
 6710TIP3    H144325   0.465   1.586   2.768 -0.2986 -0.2344  2.5689
 6710TIP3    H244326   0.346   1.576   2.675  0.5464  1.6646  1.2189
 6711TIP3   OH244327   5.749   4.246   3.899  0.6505  0.5437 -0.2758
 6711TIP3    H144328   5.706   4.235   3.814  1.5592  3.6096 -1.2474
 6711TIP3    H244329   5.681   4.281   3.956  0.2384 -0.8257  0.1295
 6712TIP3   OH244330   0.918   3.735   1.933  0.3976 -0.6385  0.3379
 6712TIP3    H144331   0.886   3.762   2.020  1.5935  1.8701  0.0799
 6712TIP3    H244332   0.992   3.678   1.952  2.1522  1.7060  1.1292
 6713TIP3   OH244333   1.543   1.117   3.878  0.5138 -0.0703 -0.1512
 6713TIP3    H144334   1.520   1.140   3.788 -2.0681 -0.2853  0.3600
 6713TIP3    H244335   1.473   1.155   3.931  2.5104  0.9537  1.9230
 6714TIP3   OH244336   3.499   1.743   3.275 -0.0282  0.2341  0.2707
 6714TIP3    H144337   3.536   1.812   3.330 -0.4596 -0.0773  0.9475
 6714TIP3    H244338   3.576   1.698   3.239  0.3360  2.2687 -1.7889
 6715TIP3   OH244339   5.520   2.336   4.000 -0.2903  0.7568  0.0736
 6715TIP3    H144340   5.488   2.263   3.948  0.6121 -1.4333  2.4190
 6715TIP3    H244341   5.610   2.350   3.969 -0.3808  0.7207 -0.2054
 6716TIP3   OH244342   3.756   1.251   4.234 -0.2415  0.5003  0.2000
 6716TIP3    H144343   3.786   1.300   4.157  2.4134  1.0761  1.4973
 6716TIP3    H244344   3.752   1.160   4.204  0.4216  0.7525 -0.7127
 6717TIP3   OH244345   5.732   6.418   2.920 -0.2558 -0.3573  0.1219
 6717TIP3    H144346   5.749   6.500   2.873 -0.7175  0.3099  1.0886
 6717TIP3    H244347   5.637   6.408   2.917 -0.0819 -2.1195 -2.0236
 6718TIP3   OH244348   6.146   7.246   2.347 -0.3050  0.4716 -0.6541
 6718TIP3    H144349   6.068   7.214   2.391 -0.8233  0.9883 -1.1682
 6718TIP3    H244350   6.126   7.237   2.253 -0.8045  2.9342 -0.8544
 6719TIP3   OH244351   3.243   2.427   2.757 -0.4112 -0.3061 -0.0549
 6719TIP3    H144352   3.319   2.380   2.723  0.1528  0.1172  0.5857
 6719TIP3    H244353   3.280   2.498   2.810 -1.2484  0.3225 -0.2818
 6720TIP3   OH244354   3.597   7.058   4.165  0.5915 -1.1404  0.2738
 6720TIP3    H144355   3.647   7.060   4.083  0.3905 -0.3327  0.1638
 6720TIP3    H244356   3.506   7.074   4.138  0.8016  1.3654  0.8395
 6721TIP3   OH244357   4.670   3.171   2.566  0.0077 -0.1328 -0.2987
 6721TIP3    H144358   4.619   3.129   2.636  1.4959  0.4755  1.2267
 6721TIP3    H244359   4.645   3.263   2.570 -0.8366 -0.2849 -1.4657
 6722TIP3   OH244360   7.573   1.631   4.074 -0.4332  0.2813 -0.3433
 6722TIP3    H144361   7.628   1.655   4.148 -1.9557 -1.3479  1.4235
 6722TIP3    H244362   7.515   1.707   4.062 -0.8346  0.1717  0.8044
 6723TIP3   OH244363   4.089   2.618   2.863  0.5816 -0.5950  0.2700
 6723TIP3    H144364   4.147   2.641   2.935 -0.1809 -1.4813  1.1902
 6723TIP3    H244365   4.143   2.569   2.802  1.0848 -0.3452  0.5107
 6724TIP3   OH244366   2.802   4.968   2.326 -0.0293  0.4124 -0.3881
 6724TIP3    H144367   2.890   4.966   2.288  0.1352 -0.3823  0.0241
 6724TIP3    H244368   2.815   4.996   2.416 -0.2756  0.9284 -0.5072
 6725TIP3   OH244369   0.637   3.754   2.719 -0.0537 -0.2666  0.4198
 6725TIP3    H144370   0.628   3.722   2.630  0.6079 -0.4380  0.4065
 6725TIP3    H244371   0.641   3.675   2.773 -2.2032 -0.1646  0.8101
 6726TIP3   OH244372   1.392   7.656   4.005  0.1038 -0.0200 -0.7064
 6726TIP3    H144373   1.337   7.732   3.987  0.3738  0.3642  0.0477
 6726TIP3    H244374   1.421   7.668   4.096  1.0780 -0.4334 -0.9472
 6727TIP3   OH244375   3.216   1.979   3.717 -0.5544 -0.0297  0.2125
 6727TIP3    H144376   3.231   1.897   3.763 -0.6029 -1.1024 -1.6141
 6727TIP3    H244377   3.156   1.957   3.646 -0.2836  1.5119 -0.5419
 6728TIP3   OH244378   5.544   1.662   2.705  0.5240  0.6160 -0.3604
 6728TIP3    H144379   5.638   1.678   2.698  0.7724 -0.2023  0.7793
 6728TIP3    H244380   5.519   1.701   2.789 -0.0262  0.2949 -0.3663
 6729TIP3   OH244381   2.819   3.539   4.207 -0.1749 -0.5541  0.2576
 6729TIP3    H144382   2.750   3.476   4.187 -0.5434 -0.0785  0.0298
 6729TIP3    H244383   2.890   3.485   4.243 -1.1607 -0.8965  1.7925
 6730TIP3   OH244384   2.175   2.985   3.847  0.6026  0.1613 -0.0218
 6730TIP3    H144385   2.209   2.980   3.758 -0.6810 -0.0819 -0.5194
 6730TIP3    H244386   2.090   2.941   3.843 -0.5889  2.2506  0.7348
 6731TIP3   OH244387   4.493   6.163   3.745 -0.9769 -0.4248 -0.3902
 6731TIP3    H144388   4.487   6.084   3.799  1.5947 -0.9702 -0.7314
 6731TIP3    H244389   4.441   6.228   3.791 -1.1733 -1.6545  1.2264
 6732TIP3   OH244390   4.961   2.042   2.187  0.1582 -0.3397  0.4365
 6732TIP3    H144391   4.873   2.010   2.165 -0.2326  0.1033  1.3064
 6732TIP3    H244392   4.983   1.995   2.268  1.6511 -2.1047 -0.9356
 6733TIP3   OH244393   4.325   6.626   3.709  0.0145 -0.7840 -0.0760
 6733TIP3    H144394   4.343   6.708   3.755 -0.0496 -0.8440  0.0560
 6733TIP3    H244395   4.229   6.620   3.707 -0.0044 -1.8246  1.6598
 6734TIP3   OH244396   3.397   1.539   3.618 -0.3868 -0.3601  0.1514
 6734TIP3    H144397   3.418   1.547   3.525 -0.0603  0.0844  0.2566
 6734TIP3    H244398   3.307   1.505   3.620 -0.6052  0.1619 -0.3361
 6735TIP3   OH244399   0.825   1.087   4.485 -0.1155  0.2470  0.3646
 6735TIP3    H144400   0.746   1.050   4.444 -0.6710 -0.0772  1.6866
 6735TIP3    H244401   0.796   1.115   4.572  1.0709  0.7999  0.5994
 6736TIP3   OH244402   5.290   0.934   2.343 -0.0470  0.6854  1.0019
 6736TIP3    H144403   5.258   0.974   2.424 -1.4554  0.0556  0.7956
 6736TIP3    H244404   5.230   0.861   2.327  0.5906  0.4089 -0.2662
 6737TIP3   OH244405   7.254   6.237   2.730 -0.1476 -0.7195 -0.2577
 6737TIP3    H144406   7.242   6.305   2.665  1.0633 -0.3366 -0.1015
 6737TIP3    H244407   7.321   6.179   2.693 -0.4094 -1.2425  0.0689
 6738TIP3   OH244408   0.961   6.164   2.254  0.3172  0.3038  0.1285
 6738TIP3    H144409   1.000   6.226   2.192  1.9974 -0.3956  0.4272
 6738TIP3    H244410   1.022   6.091   2.257 -1.5033 -1.3026 -0.0193
 6739TIP3   OH244411   0.808   7.593   4.199  0.4866  0.0835  0.0216
 6739TIP3    H144412   0.899   7.580   4.225  0.4259 -1.5012 -0.4037
 6739TIP3    H244413   0.788   7.683   4.223  2.0228  0.3134  0.5451
 6740TIP3   OH244414   0.637   3.028   2.627  0.3109  0.0983 -0.7504
 6740TIP3    H144415   0.639   3.118   2.594  2.3710  0.1056 -0.7676
 6740TIP3    H244416   0.631   3.037   2.722  2.0373  0.3420 -0.6366
 6741TIP3   OH244417   3.388   7.101   2.178 -0.1781  0.3144  0.0952
 6741TIP3    H144418   3.458   7.056   2.131 -0.1411 -1.4032  1.7112
 6741TIP3    H244419   3.394   7.192   2.148  2.6832  0.2114  0.1386
 6742TIP3   OH244420   6.792   3.385   4.315 -0.0280  0.0399  0.2137
 6742TIP3    H144421   6.808   3.365   4.407  2.8953 -1.3802 -0.4940
 6742TIP3    H244422   6.706   3.346   4.297  0.6304 -2.2993  1.6602
 6743TIP3   OH244423   7.144   3.161   3.943  0.6125  0.2603  0.6412
 6743TIP3    H144424   7.101   3.121   3.867 -0.2699  0.1133  1.1963
 6743TIP3    H244425   7.228   3.116   3.949 -0.5384 -1.9517  1.5478
 6744TIP3   OH244426   6.291   7.321   3.909  0.2784 -0.8226  0.1273
 6744TIP3    H144427   6.359   7.268   3.950  0.8326 -0.0524  0.2277
 6744TIP3    H244428   6.222   7.259   3.888  0.6839 -1.4952  0.7270
 6745TIP3   OH244429   2.501   0.728   3.761 -0.0908  0.2710  0.1899
 6745TIP3    H144430   2.483   0.815   3.726  0.3768 -0.3254 -1.6326
 6745TIP3    H244431   2.594   0.728   3.780  0.2055 -0.2332 -1.1307
 6746TIP3   OH244432   2.189   1.489   3.931  0.4878  0.0142  0.1228
 6746TIP3    H144433   2.157   1.514   3.844  0.1067  0.0227  0.2676
 6746TIP3    H244434   2.283   1.474   3.918  0.1153 -1.9243 -0.7237
 6747TIP3   OH244435   7.386   0.454   2.466 -0.1530 -0.0489 -0.3313
 6747TIP3    H144436   7.468   0.500   2.446  0.3466 -0.7343  0.0935
 6747TIP3    H244437   7.354   0.423   2.382 -0.8435  1.6251 -0.7172
 6748TIP3   OH244438   4.360   5.502   3.871 -0.1528 -0.2449 -0.0223
 6748TIP3    H144439   4.419   5.485   3.797  0.0049 -0.7253  0.2105
 6748TIP3    H244440   4.415   5.540   3.938 -0.4529  0.9667 -0.4378
 6749TIP3   OH244441   0.168   0.142   4.098  0.1626  0.2852 -0.4204
 6749TIP3    H144442   0.113   0.155   4.175 -0.3232 -1.8096 -0.3489
 6749TIP3    H244443   0.256   0.131   4.132  0.1295  0.5261 -0.2600
 6750TIP3   OH244444   4.923   3.552   4.738 -0.5686 -0.1746  0.0493
 6750TIP3    H144445   4.932   3.568   4.644  0.3928 -0.7651  0.0344
 6750TIP3    H244446   4.939   3.637   4.779  1.3696 -0.3785 -0.2023
 6751TIP3   OH244447   0.946   7.260   4.985 -0.5931  0.0608 -0.0493
 6751TIP3    H144448   0.863   7.282   4.942 -1.1078  0.5360  1.1472
 6751TIP3    H244449   0.988   7.344   5.000 -0.8329 -0.0161  1.1543
 6752TIP3   OH244450   0.195   5.591   3.540  0.3550  0.2308 -0.2941
 6752TIP3    H144451   0.282   5.619   3.570 -0.2581  1.6871  0.2303
 6752TIP3    H244452   0.156   5.548   3.616  0.5603 -0.2809 -0.4794
 6753TIP3   OH244453   5.857   6.431   3.172 -0.0192 -0.6700 -0.1396
 6753TIP3    H144454   5.925   6.365   3.178  0.9637  0.1273 -1.7766
 6753TIP3    H244455   5.811   6.412   3.090  1.6904  1.8443 -1.8354
 6754TIP3   OH244456   3.492   4.677   4.523  0.0815 -0.1765 -0.1043
 6754TIP3    H144457   3.539   4.757   4.545 -0.3498 -0.3505  1.6398
 6754TIP3    H244458   3.562   4.613   4.506  0.4942 -0.1145  1.2191
 6755TIP3   OH244459   6.746   2.085   4.663  0.0043 -0.6471 -0.4512
 6755TIP3    H144460   6.658   2.052   4.682  0.0673  0.0490  1.2060
 6755TIP3    H244461   6.732   2.166   4.614 -0.2557 -0.7808 -0.5983
 6756TIP3   OH244462   3.694   1.265   3.123 -0.1938 -0.2264  0.0862
 6756TIP3    H144463   3.653   1.245   3.208 -0.4678 -0.4544 -0.0955
 6756TIP3    H244464   3.781   1.298   3.145  0.0366 -1.0297  0.4287
 6757TIP3   OH244465   5.147   3.624   3.551  0.3654  1.2290  0.3837
 6757TIP3    H144466   5.240   3.614   3.529  1.2456  0.8615  3.7401
 6757TIP3    H244467   5.105   3.546   3.515  2.4477 -1.5821  3.5688
 6758TIP3   OH244468   5.351   6.672   3.849  0.4843  0.3858  0.2015
 6758TIP3    H144469   5.368   6.651   3.757 -0.9397  0.0632 -0.0075
 6758TIP3    H244470   5.294   6.749   3.845  0.5432  0.4609  0.8226
 6759TIP3   OH244471   2.358   1.533   3.026 -0.3421  0.3511  0.3185
 6759TIP3    H144472   2.268   1.510   3.000 -1.1277  1.4069  1.9381
 6759TIP3    H244473   2.366   1.626   3.003  0.8366 -0.0598 -1.0465
 6760TIP3   OH244474   2.834   1.440   2.863  0.3113  0.0529  0.2043
 6760TIP3    H144475   2.795   1.436   2.951  1.6025 -0.0354  0.8023
 6760TIP3    H244476   2.928   1.437   2.879  0.8177  4.0287 -0.9025
 6761TIP3   OH244477   2.046   0.756   2.989 -0.2523  0.2653 -0.4309
 6761TIP3    H144478   2.086   0.843   2.996  0.1396  0.1947 -1.6011
 6761TIP3    H244479   1.986   0.764   2.915  0.0042 -0.5363 -0.7314
 6762TIP3   OH244480   2.726   2.300   4.213 -0.3055  0.5082  0.2005
 6762TIP3    H144481   2.810   2.329   4.177  0.4928 -1.6709  0.1454
 6762TIP3    H244482   2.660   2.346   4.161  0.8499  1.1241 -0.7753
 6763TIP3   OH244483   2.992   1.832   2.499  0.0154  0.5190  0.0407
 6763TIP3    H144484   3.059   1.801   2.437 -0.0871 -1.7718  0.9898
 6763TIP3    H244485   3.039   1.841   2.582 -0.3326  1.3889  0.1515
 6764TIP3   OH244486   2.022   4.790   4.233  0.2303  0.0027 -0.5018
 6764TIP3    H144487   2.085   4.834   4.290  1.6469  0.8512 -2.5568
 6764TIP3    H244488   2.068   4.711   4.203  0.0014  0.1906 -1.3709
 6765TIP3   OH244489   4.239   7.142   2.654  0.3687  0.0546 -0.3264
 6765TIP3    H144490   4.278   7.079   2.715 -1.9984 -0.3104  0.9189
 6765TIP3    H244491   4.314   7.184   2.613  2.0553 -1.2654  1.2088
 6766TIP3   OH244492   4.889   3.092   3.185  0.2717 -1.0862  0.2444
 6766TIP3    H144493   4.942   3.020   3.151  0.6742 -0.4730 -0.4416
 6766TIP3    H244494   4.917   3.102   3.276  1.3786 -0.7176 -0.1356
 6767TIP3   OH244495   4.513   7.578   4.342 -0.0682  0.3622  0.3950
 6767TIP3    H144496   4.439   7.622   4.301 -0.7675 -0.3179  0.8882
 6767TIP3    H244497   4.524   7.622   4.427  0.1000  0.4614  0.3233
 6768TIP3   OH244498   0.274   3.346   3.808 -0.0892 -0.5774  0.0994
 6768TIP3    H144499   0.291   3.440   3.819 -0.8651 -0.5680  1.3062
 6768TIP3    H244500   0.270   3.311   3.897 -1.7204 -1.4034 -0.2599
 6769TIP3   OH244501   6.159   2.255   2.519 -0.2069  0.3710  0.1134
 6769TIP3    H144502   6.200   2.325   2.570 -3.1752  1.3516  1.3847
 6769TIP3    H244503   6.094   2.300   2.465 -2.9344 -1.3547  1.7179
 6770TIP3   OH244504   6.311   1.627   2.642 -0.1064 -0.4844  0.3396
 6770TIP3    H144505   6.391   1.678   2.631  0.2176 -1.0695 -0.0891
 6770TIP3    H244506   6.255   1.654   2.569  1.1603 -2.7254 -1.6233
 6771TIP3   OH244507   6.667   1.229   3.473  0.2190 -0.1095  0.0798
 6771TIP3    H144508   6.589   1.217   3.527  0.3343 -0.4939  0.1641
 6771TIP3    H244509   6.740   1.219   3.533  0.3357  1.1566  0.1794
 6772TIP3   OH244510   5.727   5.792   2.341  0.6150  0.6220  0.2987
 6772TIP3    H144511   5.656   5.742   2.382  0.8628 -0.3853 -0.4567
 6772TIP3    H244512   5.694   5.882   2.338 -0.4597  0.2498  0.3614
 6773TIP3   OH244513   4.615   3.988   2.141  0.3566 -0.0059 -0.0753
 6773TIP3    H144514   4.530   4.026   2.163  0.8017  1.9582 -1.4555
 6773TIP3    H244515   4.594   3.913   2.085 -0.4732 -0.1951  0.4685
 6774TIP3   OH244516   6.146   1.363   2.148  0.5430 -0.1371  0.5078
 6774TIP3    H144517   6.170   1.353   2.056  2.7339  0.1271  0.9848
 6774TIP3    H244518   6.093   1.443   2.152  0.8609  0.1236 -0.4482
 6775TIP3   OH244519   6.207   1.402   3.437  0.0082 -0.1479  0.0732
 6775TIP3    H144520   6.197   1.459   3.361 -0.8268 -0.5409 -0.1217
 6775TIP3    H244521   6.213   1.462   3.511  0.1813  0.2233 -0.2423
 6776TIP3   OH244522   2.944   1.596   5.163 -0.3241 -0.3669 -0.3046
 6776TIP3    H144523   2.914   1.682   5.132 -0.0248 -0.5673 -1.1580
 6776TIP3    H244524   2.933   1.600   5.258 -1.1961  0.2771 -0.4234
 6777TIP3   OH244525   3.172   5.912   4.169 -0.5143  0.0775 -0.2620
 6777TIP3    H144526   3.248   5.970   4.168 -0.5333  0.0994 -0.9683
 6777TIP3    H244527   3.155   5.896   4.262 -0.4363  1.0973 -0.0672
 6778TIP3   OH244528   0.397   4.324   2.986 -0.2339 -0.3965  0.3375
 6778TIP3    H144529   0.376   4.407   3.029  1.0775  0.2510 -0.2132
 6778TIP3    H244530   0.342   4.321   2.908  0.0181  0.1542  0.1397
 6779TIP3   OH244531   2.401   0.851   2.377 -0.1564 -0.2827 -0.1790
 6779TIP3    H144532   2.475   0.790   2.375  0.1077 -0.0319  1.1068
 6779TIP3    H244533   2.410   0.902   2.297  0.1430 -1.3140 -0.8211
 6780TIP3   OH244534   2.811   7.311   4.995  0.2631  0.2765 -0.5077
 6780TIP3    H144535   2.758   7.231   4.999  0.3504  0.2708  1.2520
 6780TIP3    H244536   2.844   7.323   5.084  4.0055 -0.2013 -1.6801
 6781TIP3   OH244537   6.741   5.297   4.341  0.0856  0.2020  0.2561
 6781TIP3    H144538   6.807   5.255   4.286  0.4995 -0.6627  1.3685
 6781TIP3    H244539   6.789   5.362   4.391  0.1485 -0.4909  1.1351
 6782TIP3   OH244540   2.445   5.028   2.716  0.1742  0.3296  0.1153
 6782TIP3    H144541   2.371   5.014   2.774  0.7600 -0.7136  0.6438
 6782TIP3    H244542   2.479   4.940   2.698 -1.1634  0.3903 -3.4258
 6783TIP3   OH244543   2.402   6.273   4.136 -0.0482 -0.4319 -0.0187
 6783TIP3    H144544   2.332   6.335   4.158  0.1189 -0.9739  2.2666
 6783TIP3    H244545   2.481   6.312   4.174  0.2839 -1.4503  0.3514
 6784TIP3   OH244546   0.671   4.176   3.748 -0.0139  0.2574  0.3240
 6784TIP3    H144547   0.633   4.205   3.831  1.6855  0.9246  0.9039
 6784TIP3    H244548   0.666   4.253   3.691 -2.2768 -0.5321 -0.6590
 6785TIP3   OH244549   3.643   3.096   3.681  0.1663  0.4836  0.0340
 6785TIP3    H144550   3.716   3.099   3.742 -0.3286 -0.5018  0.7070
 6785TIP3    H244551   3.678   3.132   3.599  1.7905 -1.1475 -0.0429
 6786TIP3   OH244552   6.274   5.365   4.267 -0.1055  0.0697 -0.3908
 6786TIP3    H144553   6.233   5.304   4.329 -0.6282 -0.8851 -1.6207
 6786TIP3    H244554   6.203   5.423   4.240  0.1311  0.5142 -0.0679
 6787TIP3   OH244555   4.509   1.757   3.167  0.5972 -0.1230  0.5373
 6787TIP3    H144556   4.563   1.679   3.160  1.1067  0.2375  0.4450
 6787TIP3    H244557   4.569   1.826   3.196  0.3485  0.4452 -0.2666
 6788TIP3   OH244558   4.545   0.682   2.105  0.1033  0.5466 -0.4547
 6788TIP3    H144559   4.460   0.640   2.089  0.8154 -1.5358  0.8528
 6788TIP3    H244560   4.607   0.609   2.111  1.3013  1.6775  2.7598
 6789TIP3   OH244561   7.182   0.703   4.036 -0.1604 -0.1438 -0.0404
 6789TIP3    H144562   7.106   0.748   4.073 -0.7938 -1.3628  0.1785
 6789TIP3    H244563   7.148   0.657   3.960  0.2852 -0.9353  0.2278
 6790TIP3   OH244564   3.589   3.382   2.836  0.2659  0.1996 -0.9798
 6790TIP3    H144565   3.658   3.449   2.832  2.3296 -1.8244 -0.8519
 6790TIP3    H244566   3.519   3.417   2.780  1.4076  2.2827 -1.2042
 6791TIP3   OH244567   3.844   5.445   3.641  0.2164  0.0146  0.0390
 6791TIP3    H144568   3.895   5.371   3.609  0.0581  0.2431 -0.7570
 6791TIP3    H244569   3.862   5.515   3.578 -2.3642 -0.3725 -1.2595
 6792TIP3   OH244570   3.053   4.867   5.090 -0.7738  0.0160  0.2069
 6792TIP3    H144571   2.999   4.791   5.114 -2.2773  1.1360  0.4883
 6792TIP3    H244572   2.998   4.943   5.109  0.9352  1.2337  0.5797
 6793TIP3   OH244573   5.507   0.085   4.533 -0.1635 -0.2516 -0.0124
 6793TIP3    H144574   5.517  -0.001   4.573  0.8662  0.3351  1.0525
 6793TIP3    H244575   5.518   0.147   4.606 -1.6338  0.7779 -0.6099
 6794TIP3   OH244576   3.131   6.255   2.798  0.2435 -0.5944 -0.8211
 6794TIP3    H144577   3.205   6.316   2.805  1.4152 -2.1646  2.0692
 6794TIP3    H244578   3.171   6.171   2.776 -0.8675 -1.1568 -0.7701
 6795TIP3   OH244579   5.340   5.637   3.098 -0.4202 -0.2496  0.0458
 6795TIP3    H144580   5.311   5.723   3.127  1.6484  0.6660 -0.4495
 6795TIP3    H244581   5.381   5.598   3.175 -0.0921 -0.2049 -0.1052
 6796TIP3   OH244582   3.035   0.158   2.934  0.0689  0.0410  0.6104
 6796TIP3    H144583   3.107   0.193   2.986  0.8100 -0.0738 -0.3121
 6796TIP3    H244584   2.960   0.213   2.956  1.4189  3.1077 -1.6449
 6797TIP3   OH244585   6.956   0.034   2.637  0.0977  0.3903  0.6119
 6797TIP3    H144586   6.918  -0.052   2.621  1.0515  0.2022 -0.7944
 6797TIP3    H244587   6.881   0.092   2.647 -0.5761 -0.1864 -0.8860
 6798TIP3   OH244588   3.577   0.823   3.083  0.3071 -0.0356 -0.1331
 6798TIP3    H144589   3.492   0.866   3.070 -0.7800 -1.7691  0.7513
 6798TIP3    H244590   3.636   0.868   3.023 -0.8905  2.1365  0.2062
 6799TIP3   OH244591   7.578   1.729   3.210  0.2243 -0.0732  0.3215
 6799TIP3    H144592   7.638   1.736   3.284 -0.0967  0.3733  0.5500
 6799TIP3    H244593   7.520   1.656   3.232 -1.3142  1.4488  1.6096
 6800TIP3   OH244594   1.824   3.164   3.890  0.1864 -0.2651  0.1753
 6800TIP3    H144595   1.858   3.078   3.916  1.1929  0.1124  0.1583
 6800TIP3    H244596   1.875   3.227   3.942 -0.5641  0.3215  0.2184
 6801TIP3   OH244597   0.827   6.899   2.562  0.3978  0.0691  0.0249
 6801TIP3    H144598   0.857   6.916   2.473 -0.8197  1.1785 -0.2092
 6801TIP3    H244599   0.799   6.808   2.562 -1.9784  0.7086 -1.4939
 6802TIP3   OH244600   4.813   5.912   2.858 -0.2340  0.2015  0.0271
 6802TIP3    H144601   4.755   5.973   2.812 -0.4448  0.6198  0.8058
 6802TIP3    H244602   4.765   5.830   2.861 -0.8088  0.5447  0.6622
 6803TIP3   OH244603   4.649   3.029   3.637  0.4291  0.1469 -0.0988
 6803TIP3    H144604   4.662   2.978   3.557  2.9518 -1.6651  1.3266
 6803TIP3    H244605   4.579   2.983   3.683  0.0049  0.3124 -0.5677
 6804TIP3   OH244606   0.549   2.851   4.900  0.3862 -0.0099  0.1240
 6804TIP3    H144607   0.548   2.938   4.859  1.3363 -0.9624 -2.0789
 6804TIP3    H244608   0.462   2.842   4.939  0.2727  1.9143  0.3961
 6805TIP3   OH244609   4.205   5.595   2.668 -0.0816  0.7006 -0.2005
 6805TIP3    H144610   4.112   5.575   2.679 -0.0589 -0.6785 -1.9467
 6805TIP3    H244611   4.208   5.648   2.588  0.5914  1.4128  0.2821
 6806TIP3   OH244612   1.199   2.363   2.549  0.5410  0.2302 -0.2177
 6806TIP3    H144613   1.278   2.367   2.495  1.1035  0.1105  0.5742
 6806TIP3    H244614   1.186   2.269   2.564  0.2685  0.2527 -0.3136
 6807TIP3   OH244615   5.450   4.388   4.786 -0.3907  0.0147 -0.4394
 6807TIP3    H144616   5.453   4.297   4.815  0.7578  0.5065  1.0610
 6807TIP3    H244617   5.482   4.439   4.860  1.0836  1.4842 -1.9895
 6808TIP3   OH244618   1.615   6.448   2.962  0.0840 -0.2539  0.6424
 6808TIP3    H144619   1.569   6.501   3.027 -0.4893  0.2864 -0.1762
 6808TIP3    H244620   1.561   6.455   2.883  0.3948 -1.4622  0.3016
 6809TIP3   OH244621   3.532   6.586   2.435  0.0838  0.2007  0.4229
 6809TIP3    H144622   3.535   6.493   2.415  2.1303 -0.0872  1.7902
 6809TIP3    H244623   3.470   6.593   2.508 -0.0766 -0.0664  0.3147
 6810TIP3   OH244624   5.919   6.649   3.034 -0.4774 -0.4044  0.7312
 6810TIP3    H144625   5.836   6.684   3.003 -0.3940  0.0937  1.0674
 6810TIP3    H244626   5.894   6.575   3.090 -0.6677 -0.6154  0.3754
 6811TIP3   OH244627   4.152   3.400   2.778 -0.3957  0.0545 -0.4035
 6811TIP3    H144628   4.081   3.391   2.843 -0.9666  0.4840 -0.9565
 6811TIP3    H244629   4.192   3.313   2.774 -0.3594  0.0154  0.5124
 6812TIP3   OH244630   7.633   0.008   3.985  0.3967 -0.3560  0.1772
 6812TIP3    H144631   7.710   0.055   4.016  1.5053 -1.4487 -0.8303
 6812TIP3    H244632   7.620   0.040   3.895  0.1362 -0.7298  0.0797
 6813TIP3   OH244633   1.813   2.982   2.364  0.0667  0.0525  0.1720
 6813TIP3    H144634   1.736   2.953   2.413  0.1571 -0.4945 -0.0026
 6813TIP3    H244635   1.880   2.918   2.384 -0.4170 -1.2937 -2.0968
 6814TIP3   OH244636   3.802   4.260   4.411  0.2259  0.4235 -1.1848
 6814TIP3    H144637   3.898   4.256   4.413  0.2417  0.8031  1.2559
 6814TIP3    H244638   3.783   4.353   4.400  0.1654  0.5336 -0.2153
 6815TIP3   OH244639   3.563   1.678   2.741  0.7758 -0.0143  0.2878
 6815TIP3    H144640   3.554   1.616   2.669  0.9794  0.3781 -0.0741
 6815TIP3    H244641   3.651   1.664   2.774  1.2050  0.8168 -0.4775
 6816TIP3   OH244642   1.341   3.681   3.234  0.3583  0.5245  0.6701
 6816TIP3    H144643   1.306   3.739   3.301  0.8533  0.1956  1.2230
 6816TIP3    H244644   1.333   3.593   3.271 -1.3927  0.0944 -0.5849
 6817TIP3   OH244645   0.886   7.079   4.680 -0.3158  0.5073 -0.0577
 6817TIP3    H144646   0.975   7.079   4.716 -0.1605  1.2000 -0.4131
 6817TIP3    H244647   0.887   7.009   4.615 -0.1485  0.2539  0.2134
 6818TIP3   OH244648   6.565   3.176   4.422 -0.0012 -0.2296 -0.0863
 6818TIP3    H144649   6.646   3.140   4.384 -0.6831 -0.3179 -1.5155
 6818TIP3    H244650   6.573   3.157   4.516  1.4872 -0.5202 -0.2369
 6819TIP3   OH244651   6.664   4.211   3.618  0.1870  0.4178 -0.2745
 6819TIP3    H144652   6.703   4.230   3.534 -0.0441  0.4119 -0.3844
 6819TIP3    H244653   6.705   4.128   3.645 -0.2066  0.0842 -0.6793
 6820TIP3   OH244654   4.847   2.053   2.795  0.0833  0.6570 -0.0833
 6820TIP3    H144655   4.845   1.985   2.728 -1.4437  1.5241 -0.9623
 6820TIP3    H244656   4.909   2.020   2.861 -2.7537 -3.0459  1.0804
 6821TIP3   OH244657   0.202   2.100   3.272  0.1779 -0.3953 -0.2487
 6821TIP3    H144658   0.232   2.013   3.245  0.4737  0.1686 -1.8208
 6821TIP3    H244659   0.134   2.082   3.338  2.7093 -1.7192  2.1871
 6822TIP3   OH244660   5.345   3.083   4.110 -0.0672 -0.8304  0.1434
 6822TIP3    H144661   5.399   3.101   4.033  0.8345  1.5543  1.2266
 6822TIP3    H244662   5.285   3.157   4.115  1.0001 -0.0047  2.5685
 6823TIP3   OH244663   4.523   6.759   2.378  0.8344  0.1723  0.8262
 6823TIP3    H144664   4.555   6.796   2.295  2.2647 -1.9027  0.3971
 6823TIP3    H244665   4.435   6.727   2.357  1.6710 -1.5378 -0.3346
 6824TIP3   OH244666   3.387   0.348  11.045 -0.3458  0.4172 -0.0024
 6824TIP3    H144667   3.430   0.263  11.058  1.4309  1.3701  0.6942
 6824TIP3    H244668   3.428   0.405  11.110 -2.5198  1.4967  0.5114
 6825TIP3   OH244669   1.475   2.580   2.693 -0.2102 -0.2872 -0.3534
 6825TIP3    H144670   1.452   2.557   2.603 -3.1323 -0.8004  0.4384
 6825TIP3    H244671   1.452   2.673   2.700  0.0256 -0.2443 -0.1337
 6826TIP3   OH244672   4.959   1.152   3.606  0.3960 -0.4508 -0.0524
 6826TIP3    H144673   4.998   1.240   3.610  0.0352 -0.2492 -0.7075
 6826TIP3    H244674   5.032   1.093   3.625  0.7326 -0.0270  0.0026
 6827TIP3   OH244675   2.996   3.347   4.269 -0.6322  0.3687  0.2018
 6827TIP3    H144676   2.933   3.275   4.277  0.3792 -0.5914 -0.1609
 6827TIP3    H244677   3.045   3.344   4.351 -0.2632  0.3175 -0.0195
 6828TIP3   OH244678   4.733   6.397   3.932  0.1119 -0.6359  0.0041
 6828TIP3    H144679   4.714   6.487   3.908  0.0602 -0.2489  1.4090
 6828TIP3    H244680   4.703   6.389   4.023 -0.1344 -2.1436 -0.1752
 6829TIP3   OH244681   1.467   3.146   2.704 -0.2919  0.2628 -0.6738
 6829TIP3    H144682   1.509   3.062   2.691 -0.1577  0.4362 -1.4114
 6829TIP3    H244683   1.482   3.167   2.796 -0.1626 -0.4229 -0.5346
 6830TIP3   OH244684   1.662   2.271   2.221 -0.1087  0.3658  0.1940
 6830TIP3    H144685   1.685   2.363   2.210  2.3585 -0.4615 -2.8114
 6830TIP3    H244686   1.615   2.248   2.140  1.1635 -1.4716 -0.0738
 6831TIP3   OH244687   5.505   3.662   2.948 -0.4903  0.4163 -0.2698
 6831TIP3    H144688   5.600   3.662   2.956 -0.4052 -0.3676 -1.1177
 6831TIP3    H244689   5.489   3.678   2.855 -1.2704  3.4782  0.2691
 6832TIP3   OH244690   0.023   0.308   2.310 -0.1282 -0.8499  0.0042
 6832TIP3    H144691  -0.005   0.398   2.329 -0.8822 -0.9239 -0.7381
 6832TIP3    H244692   0.113   0.317   2.281 -0.8260 -0.0847 -2.0642
 6833TIP3   OH244693   1.671   4.063   4.564  0.1616  0.4643  0.1404
 6833TIP3    H144694   1.648   3.973   4.539  0.3467 -0.2193  2.2018
 6833TIP3    H244695   1.749   4.053   4.618 -0.0743  1.8198  0.7691
 6834TIP3   OH244696   4.413   0.951   1.912 -0.3177  0.2531  0.1591
 6834TIP3    H144697   4.395   0.978   1.822 -1.5435 -0.4246  0.1810
 6834TIP3    H244698   4.422   0.856   1.907  1.8724  0.3931  0.4132
 6835TIP3   OH244699   1.690   3.237   2.475  0.0774 -0.2638  0.3264
 6835TIP3    H144700   1.695   3.303   2.406 -1.4217 -1.7746 -1.3394
 6835TIP3    H244701   1.708   3.155   2.431 -0.5541 -1.2439  1.8060
 6836TIP3   OH244702   4.889   7.254   4.335  0.1296 -0.5483  0.4794
 6836TIP3    H144703   4.893   7.234   4.428  0.3382  0.0310  0.6056
 6836TIP3    H244704   4.799   7.284   4.320  0.4736  0.7110  0.8023
 6837TIP3   OH244705   4.987   5.656   3.826  0.1376  0.1345  0.2671
 6837TIP3    H144706   5.012   5.740   3.787 -1.7306  0.6451  0.0907
 6837TIP3    H244707   4.964   5.678   3.916 -2.0182  0.1688 -0.2414
 6838TIP3   OH244708   7.612   5.480   2.509  0.3909  0.0650 -0.2289
 6838TIP3    H144709   7.572   5.533   2.577 -0.7698 -0.2751 -0.6204
 6838TIP3    H244710   7.546   5.413   2.488  2.3607 -2.5565  1.3499
 6839TIP3   OH244711   1.456   3.363   1.969 -0.1668  0.0207  0.2405
 6839TIP3    H144712   1.466   3.427   2.040 -0.7606 -0.4339  0.7481
 6839TIP3    H244713   1.402   3.294   2.007 -1.7116  0.4324 -1.0732
 6840TIP3   OH244714   6.470   4.886   2.193  0.1438  0.3779 -0.5309
 6840TIP3    H144715   6.432   4.973   2.207 -3.1255 -0.6492 -2.0361
 6840TIP3    H244716   6.420   4.829   2.251  1.4092 -0.6931 -0.4603
 6841TIP3   OH244717   1.183   4.647   2.367 -0.0748  0.3960 -0.1809
 6841TIP3    H144718   1.268   4.612   2.396  0.5583  0.8778 -1.3603
 6841TIP3    H244719   1.131   4.655   2.447  0.8522 -0.3005  0.5086
 6842TIP3   OH244720   4.780   7.285   3.339 -0.0053 -0.3343  0.4838
 6842TIP3    H144721   4.857   7.228   3.333  1.2405  0.9625  2.6401
 6842TIP3    H244722   4.747   7.290   3.249  1.4718 -2.1873 -0.2441
 6843TIP3   OH244723   3.618   6.012   2.424  0.2339  0.1653 -0.2169
 6843TIP3    H144724   3.529   5.974   2.426 -0.5653  1.8614 -1.1861
 6843TIP3    H244725   3.643   6.007   2.332  0.7423  0.6185 -0.1028
 6844TIP3   OH244726   1.657   2.377   2.638 -0.1039 -0.2852 -0.0529
 6844TIP3    H144727   1.667   2.300   2.693  1.2858 -0.5384 -0.6126
 6844TIP3    H244728   1.614   2.442   2.694  1.3309 -0.5002  1.3669
 6845TIP3   OH244729   6.535   5.990   2.750 -0.3265  0.0418  0.1454
 6845TIP3    H144730   6.461   6.051   2.748 -0.4341 -0.1029 -1.2592
 6845TIP3    H244731   6.559   5.979   2.658  0.4272 -1.1566  0.4693
 6846TIP3   OH244732   3.306   0.321   2.440 -0.3783  0.3917 -0.0970
 6846TIP3    H144733   3.245   0.248   2.431  1.2847 -0.9406 -1.4513
 6846TIP3    H244734   3.265   0.394   2.394 -0.6359 -0.6979 -1.6469
 6847TIP3   OH244735   0.440   0.181   4.202 -0.5848  0.3193  0.2417
 6847TIP3    H144736   0.487   0.103   4.170  1.0643  0.5916  1.8898
 6847TIP3    H244737   0.508   0.247   4.214 -1.4563  0.9212  2.1504
 6848TIP3   OH244738   5.996   1.832   3.293  0.2304 -0.3477 -0.3682
 6848TIP3    H144739   6.022   1.857   3.382  0.3192 -0.4586 -0.3623
 6848TIP3    H244740   5.903   1.854   3.289 -0.0798 -1.4407  0.1679
 6849TIP3   OH244741   6.867   3.266   4.052 -0.3625 -0.3993 -0.4855
 6849TIP3    H144742   6.858   3.272   4.147  1.5510 -1.7221 -0.1698
 6849TIP3    H244743   6.899   3.177   4.037  1.0456  0.3635 -2.2124
 6850TIP3   OH244744   3.455   4.573   3.855  0.2177  0.1843 -0.3455
 6850TIP3    H144745   3.447   4.482   3.883  1.0374  0.3204  0.3827
 6850TIP3    H244746   3.389   4.619   3.906  0.1028  0.0691 -0.3879
 6851TIP3   OH244747   7.132   0.752   2.976 -0.4465 -0.0974 -0.0541
 6851TIP3    H144748   7.129   0.657   2.981 -1.5171 -0.3064 -2.7427
 6851TIP3    H244749   7.067   0.782   3.038  0.7497 -1.0070  1.7192
 6852TIP3   OH244750   4.220   5.953   4.794  0.0539  0.0674  0.0606
 6852TIP3    H144751   4.206   5.960   4.889  0.4868 -0.5061  0.1789
 6852TIP3    H244752   4.160   6.017   4.756 -0.3896  0.0535  0.7048
 6853TIP3   OH244753   6.577   2.815   3.652  0.0322 -0.1023  0.0031
 6853TIP3    H144754   6.513   2.752   3.686 -1.1037  0.4321 -1.0468
 6853TIP3    H244755   6.642   2.761   3.606  0.0076 -0.6137  0.5536
 6854TIP3   OH244756   1.579   3.581   1.824 -0.0436 -0.0131  0.2301
 6854TIP3    H144757   1.585   3.547   1.734 -0.5374  0.2182  0.1075
 6854TIP3    H244758   1.540   3.509   1.874 -1.3773  0.4664 -0.0915
 6855TIP3   OH244759   0.760   4.679   3.243 -0.5962 -0.5110 -0.0796
 6855TIP3    H144760   0.771   4.752   3.304 -0.1110  0.8129 -1.6745
 6855TIP3    H244761   0.759   4.720   3.156 -0.6640 -2.3782 -1.0144
 6856TIP3   OH244762   3.864   6.998   4.250  0.1797 -0.7133  0.2836
 6856TIP3    H144763   3.863   6.990   4.346  0.3432 -1.6215  0.2163
 6856TIP3    H244764   3.792   7.058   4.230 -1.9274 -2.9235  0.7803
 6857TIP3   OH244765   1.712   1.362   4.071  0.1917  0.4028 -0.3671
 6857TIP3    H144766   1.725   1.397   4.159 -0.2641  2.0526 -0.9182
 6857TIP3    H244767   1.776   1.292   4.063  0.3465  0.3394  1.2117
 6858TIP3   OH244768   1.677   5.591   3.287  0.0468 -0.6587  0.3070
 6858TIP3    H144769   1.686   5.685   3.277 -0.4148 -0.5641  0.7424
 6858TIP3    H244770   1.764   5.556   3.269 -0.0359 -0.2462 -0.9266
 6859TIP3   OH244771   2.017   1.863   2.450  0.1252 -0.2379  0.1460
 6859TIP3    H144772   2.111   1.853   2.469 -0.0298  1.0287  1.8735
 6859TIP3    H244773   2.003   1.811   2.371  1.9007 -2.0211  0.9024
 6860TIP3   OH244774   0.437   1.743   5.038  0.2378 -0.3442 -0.1940
 6860TIP3    H144775   0.501   1.714   4.974  0.0366 -1.7756  0.2092
 6860TIP3    H244776   0.405   1.827   5.005  0.9014 -0.5558 -1.4061
 6861TIP3   OH244777   6.072   6.885   3.955  0.3295 -0.1301 -0.0434
 6861TIP3    H144778   6.147   6.871   3.897 -0.1395 -0.3909 -0.5927
 6861TIP3    H244779   6.016   6.809   3.941 -1.6158  1.5439 -2.0726
 6862TIP3   OH244780   5.423   0.895   3.368  0.0676 -0.7430  0.7349
 6862TIP3    H144781   5.354   0.923   3.308 -1.2498  0.9758  2.8979
 6862TIP3    H244782   5.494   0.865   3.311 -2.0479 -1.6344 -1.5939
 6863TIP3   OH244783   3.947   0.869   3.062 -0.3818 -0.4604 -0.0226
 6863TIP3    H144784   3.900   0.838   3.139  1.0023 -4.8597 -0.6524
 6863TIP3    H244785   3.879   0.878   2.994 -1.0664 -0.7701  0.6106
 6864TIP3   OH244786   3.310   1.001   4.691  0.3798 -0.0791 -0.0283
 6864TIP3    H144787   3.285   0.965   4.606 -3.1191  2.2720 -0.2217
 6864TIP3    H244788   3.254   0.955   4.754 -0.2320  1.1918  0.3890
 6865TIP3   OH244789   1.144   7.139   4.820 -0.3719 -0.3427 -0.4346
 6865TIP3    H144790   1.213   7.205   4.823 -2.4567  2.0787 -1.6484
 6865TIP3    H244791   1.079   7.169   4.884 -1.3088 -1.2995 -0.9093
 6866TIP3   OH244792   5.843   4.495   3.302 -0.0224  0.4195 -0.6593
 6866TIP3    H144793   5.825   4.535   3.387 -2.1564  0.4875 -1.0868
 6866TIP3    H244794   5.904   4.555   3.259 -0.8489  1.6691 -0.1297
 6867TIP3   OH244795   1.696   6.509   2.525 -0.1089 -0.0375 -0.4046
 6867TIP3    H144796   1.678   6.590   2.477  1.1187  1.2083  1.1351
 6867TIP3    H244797   1.788   6.516   2.551  0.2332 -2.2521 -0.7663
 6868TIP3   OH244798   2.125   4.373   3.621 -0.4976  0.1829 -0.1266
 6868TIP3    H144799   2.135   4.450   3.566  0.1032  1.1155  1.2369
 6868TIP3    H244800   2.120   4.407   3.710 -1.4560 -1.2768  0.4198
 6869TIP3   OH244801   4.178   6.058   4.322  0.2150 -1.0751  0.1455
 6869TIP3    H144802   4.161   5.991   4.389 -2.1953 -0.2357  0.4411
 6869TIP3    H244803   4.197   6.007   4.243  1.5058 -2.0747  1.0396
 6870TIP3   OH244804   3.941   3.782   3.415  0.1202  0.5798  0.0406
 6870TIP3    H144805   3.866   3.775   3.355 -1.9266  1.1428  2.3530
 6870TIP3    H244806   3.920   3.857   3.470  2.5874  0.9363  0.5864
 6871TIP3   OH244807   6.387   2.403   4.281  0.0695  0.5323 -0.1673
 6871TIP3    H144808   6.313   2.358   4.241  0.5390  0.6441 -1.1973
 6871TIP3    H244809   6.377   2.495   4.256 -0.2747  0.8401  0.9971
 6872TIP3   OH244810   2.910   0.014   3.200  0.0638  0.3141 -0.0107
 6872TIP3    H144811   2.904  -0.078   3.174 -1.1392  0.8785 -1.9035
 6872TIP3    H244812   2.978   0.051   3.143  0.3579  0.6706  0.5602
 6873TIP3   OH244813   6.489   7.374   4.463  0.1311  0.0570  0.1844
 6873TIP3    H144814   6.519   7.434   4.395 -0.3067 -2.1473 -2.0882
 6873TIP3    H244815   6.540   7.295   4.449 -0.9567 -0.9312  1.5554
 6874TIP3   OH244816   7.399   2.883   4.243  0.1707 -0.6968 -0.0721
 6874TIP3    H144817   7.384   2.912   4.153 -0.9505  1.9468  0.8568
 6874TIP3    H244818   7.320   2.835   4.267  1.0397 -2.5959 -0.8776
 6875TIP3   OH244819   2.745   4.233   2.121 -0.1044  0.5399  0.4097
 6875TIP3    H144820   2.745   4.188   2.036  0.2851 -1.1730  1.2790
 6875TIP3    H244821   2.705   4.171   2.181 -1.7732  2.3195  1.2333
 6876TIP3   OH244822   1.467   6.801   2.883 -0.4329 -0.4381 -0.4587
 6876TIP3    H144823   1.522   6.800   2.961 -0.5898 -1.5264 -0.3443
 6876TIP3    H244824   1.528   6.820   2.811  0.4823 -3.2366 -0.5594
 6877TIP3   OH244825   2.719   0.877   5.051  0.1523  0.0006  0.0911
 6877TIP3    H144826   2.654   0.904   5.116 -0.0038  1.7002 -0.7215
 6877TIP3    H244827   2.780   0.951   5.045  0.8189 -0.6032 -0.8619
 6878TIP3   OH244828   2.537   5.840   4.037  0.3421  0.3280 -0.1383
 6878TIP3    H144829   2.622   5.845   4.081  0.6903  0.4953 -0.8162
 6878TIP3    H244830   2.485   5.910   4.076  0.6378  0.4551  0.0267
 6879TIP3   OH244831   5.351   3.955   3.560 -0.1712  0.2389 -0.5542
 6879TIP3    H144832   5.292   3.979   3.632  0.5095  1.4236 -0.3686
 6879TIP3    H244833   5.434   3.998   3.582  0.1481  0.3303 -1.8774
 6880TIP3   OH244834   4.260   3.061   3.163 -0.4621  0.1120  0.1483
 6880TIP3    H144835   4.167   3.045   3.150 -0.5571  0.8803 -0.1909
 6880TIP3    H244836   4.279   3.027   3.250 -0.8811 -0.7617 -0.0899
 6881TIP3   OH244837   3.582   5.891   3.685  0.3554 -0.2502 -0.2399
 6881TIP3    H144838   3.632   5.972   3.679 -0.3259  0.1657 -0.4527
 6881TIP3    H244839   3.549   5.877   3.597 -1.3022  0.4078  0.2430
 6882TIP3   OH244840   2.044   2.702   4.466  0.6595 -0.2209 -0.1952
 6882TIP3    H144841   2.074   2.620   4.426 -0.8085 -0.4970 -0.8082
 6882TIP3    H244842   1.997   2.674   4.544 -2.8552 -0.3749 -2.1476
 6883TIP3   OH244843   3.816   4.060   4.111  0.1619 -0.2273  0.2124
 6883TIP3    H144844   3.890   4.080   4.169 -0.7983  1.2683  0.9887
 6883TIP3    H244845   3.739   4.062   4.168 -0.8843  1.8377 -1.1501
 6884TIP3   OH244846   2.613   4.269   4.105  0.3618 -0.1445  0.3849
 6884TIP3    H144847   2.682   4.254   4.170 -0.0615  2.1455  1.4730
 6884TIP3    H244848   2.657   4.315   4.033  0.5039 -1.2282 -0.2388
 6885TIP3   OH244849   3.042   1.944   3.396  0.6925  0.1496 -0.4446
 6885TIP3    H144850   2.991   2.024   3.384 -0.7244 -0.5395  0.5305
 6885TIP3    H244851   3.103   1.942   3.323 -1.2966  0.6138 -2.2389
 6886TIP3   OH244852   3.184   4.734   3.312 -0.7217 -0.0947 -0.1829
 6886TIP3    H144853   3.239   4.695   3.379  1.7957  0.1287 -1.9770
 6886TIP3    H244854   3.201   4.828   3.319  0.1799 -0.1229 -1.5524
 6887TIP3   OH244855   1.577   0.698   5.081 -0.0076 -0.5244  0.6931
 6887TIP3    H144856   1.614   0.781   5.050 -1.9194  0.4056  0.7675
 6887TIP3    H244857   1.627   0.678   5.160  0.7070  0.3682  0.4847
 6888TIP3   OH244858   4.713   1.849   2.290 -0.4354 -0.5987  0.6032
 6888TIP3    H144859   4.688   1.887   2.206 -0.2761  1.2367  1.3302
 6888TIP3    H244860   4.700   1.755   2.279 -2.8440 -0.2090 -0.6650
 6889TIP3   OH244861   1.520   5.993   4.216  0.0058  0.2092  0.0464
 6889TIP3    H144862   1.512   6.035   4.302  0.0158 -0.6260  0.4730
 6889TIP3    H244863   1.443   6.023   4.168  0.6635  1.6901 -0.1167
 6890TIP3   OH244864   2.772   3.018   3.560  0.2704 -0.0701  0.1971
 6890TIP3    H144865   2.819   3.093   3.525 -1.5129  0.7506 -0.5478
 6890TIP3    H244866   2.786   3.022   3.655  0.2368  1.1788  0.1586
 6891TIP3   OH244867   5.465   2.400   3.613 -0.2387 -0.3470 -0.2725
 6891TIP3    H144868   5.556   2.391   3.641  0.1312  1.3412 -0.8641
 6891TIP3    H244869   5.417   2.337   3.667  1.3521 -1.7421 -0.4122
 6892TIP3   OH244870   2.750   2.329   3.174  0.5178 -0.2778 -0.1806
 6892TIP3    H144871   2.682   2.296   3.115  0.7697 -0.3536 -0.4328
 6892TIP3    H244872   2.728   2.421   3.188  0.7385 -0.1240 -0.8037
 6893TIP3   OH244873   0.524   2.582   2.698 -0.4193  0.3799 -0.1391
 6893TIP3    H144874   0.520   2.653   2.634 -1.9582 -0.0228 -0.5412
 6893TIP3    H244875   0.452   2.524   2.674  1.4070 -1.8946 -0.4555
 6894TIP3   OH244876   2.249   5.679   2.533  1.3178  0.0901  0.3262
 6894TIP3    H144877   2.197   5.731   2.594 -1.1882 -1.3612 -0.4305
 6894TIP3    H244878   2.266   5.597   2.578  1.6027 -0.0502 -0.0258
 6895TIP3   OH244879   4.351   2.649   3.822  0.0503  0.3329  0.4241
 6895TIP3    H144880   4.284   2.707   3.786  0.0037  0.2640  0.3994
 6895TIP3    H244881   4.302   2.578   3.863  0.0298  1.3952  2.3602
 6896TIP3   OH244882   5.083   1.329   3.882  0.1235 -0.1895 -0.6705
 6896TIP3    H144883   4.995   1.306   3.910 -0.2278  2.5757  0.9271
 6896TIP3    H244884   5.140   1.268   3.929 -0.8806 -1.4260 -1.0222
 6897TIP3   OH244885   5.509   5.622   4.269 -0.1557  0.4006  0.0172
 6897TIP3    H144886   5.427   5.618   4.220  0.0360 -0.7713 -0.2414
 6897TIP3    H244887   5.521   5.533   4.302  0.5669  0.7761  0.8010
 6898TIP3   OH244888   7.144   6.448   2.539  0.0326  0.0464 -0.3397
 6898TIP3    H144889   7.049   6.455   2.542  0.0245 -0.0795 -0.2652
 6898TIP3    H244890   7.176   6.533   2.568 -0.0571  0.1628 -0.5814
 6899TIP3   OH244891   1.654   4.664   3.941 -0.3254  0.7984 -0.1509
 6899TIP3    H144892   1.589   4.601   3.911  0.1982  0.8895 -1.5203
 6899TIP3    H244893   1.699   4.620   4.013 -0.4179 -0.1294 -0.6522
 6900TIP3   OH244894   0.489   1.485   3.703 -0.2434  0.1024 -0.1979
 6900TIP3    H144895   0.488   1.393   3.676  1.3318 -0.4030  1.2991
 6900TIP3    H244896   0.529   1.532   3.630  2.0748 -0.9415  0.3176
 6901TIP3   OH244897   1.108   5.819   2.555  0.3749  0.0540  0.9051
 6901TIP3    H144898   1.111   5.726   2.577  0.3656  0.0029  0.6908
 6901TIP3    H244899   1.015   5.842   2.558  0.3441 -0.0286  0.6076
 6902TIP3   OH244900   3.715   3.803   4.573 -0.3837 -0.3122 -0.3016
 6902TIP3    H144901   3.757   3.816   4.658 -0.4363  0.9033 -0.4431
 6902TIP3    H244902   3.689   3.711   4.573 -2.0283  0.0743  1.7552
 6903TIP3   OH244903   6.174   5.408   3.734 -0.2332 -0.1654  0.3853
 6903TIP3    H144904   6.116   5.351   3.785 -1.7261  1.0081  0.0651
 6903TIP3    H244905   6.177   5.368   3.648  0.7922 -1.1315  0.8494
 6904TIP3   OH244906   6.121   4.811   2.252 -0.1545  0.4425  0.2611
 6904TIP3    H144907   6.085   4.875   2.313 -1.7512 -0.5034  0.3655
 6904TIP3    H244908   6.177   4.862   2.194 -1.2149  1.9059  0.4805
 6905TIP3   OH244909   2.649   0.687   4.282  0.1937 -0.1080  0.1454
 6905TIP3    H144910   2.663   0.758   4.344  1.4938 -0.8056  0.6656
 6905TIP3    H244911   2.604   0.619   4.332 -1.0971  0.3351 -0.3648
 6906TIP3   OH244912   1.719   3.275   3.085 -0.6154  0.1355 -0.1069
 6906TIP3    H144913   1.639   3.305   3.127  0.3259  2.5000  0.1633
 6906TIP3    H244914   1.724   3.326   3.004 -0.3236 -1.3864 -1.0847
 6907TIP3   OH244915   2.671   3.706   3.390 -0.3484 -0.0599  0.8871
 6907TIP3    H144916   2.668   3.702   3.486 -1.3798 -1.7374  0.8403
 6907TIP3    H244917   2.730   3.635   3.365  1.4403  1.5607  0.2811
 6908TIP3   OH244918   3.737   0.928   2.891  0.1206 -0.2340 -1.0616
 6908TIP3    H144919   3.779   1.014   2.889 -0.2916 -0.0045 -0.4004
 6908TIP3    H244920   3.746   0.894   2.802  2.3225 -0.5034 -0.8122
 6909TIP3   OH244921   0.212   5.392   3.771  0.5617 -0.2461  0.0432
 6909TIP3    H144922   0.300   5.373   3.802  0.3329 -2.5176 -0.5239
 6909TIP3    H244923   0.161   5.314   3.793 -1.2020  0.7949 -0.1215
 6910TIP3   OH244924   0.408   3.196   4.215  0.3320  0.6060  0.7081
 6910TIP3    H144925   0.369   3.252   4.283 -0.6859  0.0704  0.5778
 6910TIP3    H244926   0.386   3.107   4.241 -0.3965  0.4039 -0.4930
 6911TIP3   OH244927   6.640   4.886   2.568 -0.2734 -0.3275  0.2337
 6911TIP3    H144928   6.570   4.951   2.575  0.0813  0.1464 -0.4980
 6911TIP3    H244929   6.594   4.806   2.542 -0.4878  0.1431 -0.9159
 6912TIP3   OH244930   4.594   6.755   3.367  0.0360 -0.4037  0.1705
 6912TIP3    H144931   4.638   6.704   3.299 -0.6956  1.1838 -1.5770
 6912TIP3    H244932   4.626   6.844   3.354  0.2469 -0.1262  2.2701
 6913TIP3   OH244933   3.985   6.828   3.393 -0.2903 -0.3968 -0.2417
 6913TIP3    H144934   3.985   6.865   3.482  0.8761 -1.3897  0.1954
 6913TIP3    H244935   3.984   6.905   3.336 -0.3478  0.2684  0.6241
 6914TIP3   OH244936   2.399   4.685   3.280  0.1727 -0.1584  0.0143
 6914TIP3    H144937   2.310   4.702   3.250  0.6455 -1.4476 -2.2691
 6914TIP3    H244938   2.455   4.716   3.209  1.5063 -0.5634  0.8516
 6915TIP3   OH244939   0.849   5.098   4.329  0.2877 -0.1989  0.0479
 6915TIP3    H144940   0.766   5.145   4.324  0.5081  0.1884 -0.0218
 6915TIP3    H244941   0.893   5.119   4.247  1.2955  1.2091  0.9075
 6916TIP3   OH244942   0.612   6.282   2.992 -0.4563 -0.1776 -0.0050
 6916TIP3    H144943   0.585   6.358   2.941  1.2665  0.3142 -0.2781
 6916TIP3    H244944   0.662   6.320   3.065 -1.0644 -0.9752  0.8406
 6917TIP3   OH244945   3.640   2.537   3.770 -0.0289  0.5062 -0.2451
 6917TIP3    H144946   3.628   2.590   3.691  0.0692 -0.5557 -0.9985
 6917TIP3    H244947   3.633   2.447   3.739 -0.7518  0.0769  1.0928
 6918TIP3   OH244948   1.960   5.550   3.120 -0.0336  0.1778  0.2465
 6918TIP3    H144949   1.970   5.482   3.053 -0.5941  1.1735 -0.8818
 6918TIP3    H244950   1.987   5.631   3.077  0.6611  0.6922  1.5823
 6919TIP3   OH244951   0.117   6.611   3.515  0.4798 -0.0026 -0.2076
 6919TIP3    H144952   0.062   6.595   3.438  1.6528 -0.3933 -0.9948
 6919TIP3    H244953   0.185   6.671   3.484  2.0122 -1.5386 -0.0037
 6920TIP3   OH244954   2.857   6.290   4.229 -0.0795  0.9318  0.2056
 6920TIP3    H144955   2.896   6.315   4.146  2.8545  1.4046  1.5723
 6920TIP3    H244956   2.870   6.195   4.234  2.1069  1.2236  1.1219
 6921TIP3   OH244957   3.693   5.767   2.897  0.0699  0.2462  0.3989
 6921TIP3    H144958   3.690   5.821   2.819 -0.1644  1.6557  1.3528
 6921TIP3    H244959   3.614   5.713   2.893  0.5957 -0.4668 -0.8446
 6922TIP3   OH244960   6.968   3.600   3.626 -0.7228 -0.2740 -0.5900
 6922TIP3    H144961   7.016   3.679   3.653 -0.5253 -0.7876  0.6594
 6922TIP3    H244962   6.977   3.541   3.701 -2.3540 -0.8216 -0.7939
 6923TIP3   OH244963   4.158   2.014   2.888 -0.1189  0.2517  0.1522
 6923TIP3    H144964   4.103   1.985   2.961 -0.9205  0.8272 -0.2123
 6923TIP3    H244965   4.133   2.106   2.874  1.9710  1.0061  0.9263
 6924TIP3   OH244966   1.050   4.284   3.945  0.1320  0.0942  0.0826
 6924TIP3    H144967   0.995   4.207   3.930 -0.9991  0.7418  0.7227
 6924TIP3    H244968   1.126   4.271   3.890 -0.0708 -1.4554  0.1347
 6925TIP3   OH244969   2.508   4.518   2.903 -0.0666  0.2532 -0.0967
 6925TIP3    H144970   2.477   4.595   2.950  0.4094  0.3168  0.1139
 6925TIP3    H244971   2.590   4.546   2.862  0.0421 -0.1023 -0.1234
 6926TIP3   OH244972   0.202   0.995   2.936  0.5510  0.0432 -0.9772
 6926TIP3    H144973   0.217   1.083   2.901  2.9716 -0.0425 -0.3837
 6926TIP3    H244974   0.254   0.993   3.016 -1.4881 -1.1398  0.4015
 6927TIP3   OH244975   3.096   1.338   4.330 -0.0445 -0.0661 -0.2583
 6927TIP3    H144976   3.099   1.243   4.325  0.4802 -0.0943  0.4615
 6927TIP3    H244977   3.104   1.358   4.423 -1.0749  0.6567 -0.3054
 6928TIP3   OH244978   4.958   6.760   3.519 -0.1099  0.2682  0.2449
 6928TIP3    H144979   4.955   6.752   3.424  2.1656  0.1887  0.1342
 6928TIP3    H244980   5.028   6.823   3.536  0.5395 -0.8305  1.8748
 6929TIP3   OH244981   3.749   2.479   4.182  0.3584 -0.3267  0.2473
 6929TIP3    H144982   3.777   2.388   4.176  0.7299 -0.2687  0.9609
 6929TIP3    H244983   3.689   2.491   4.108  2.4242 -0.3658 -1.5123
 6930TIP3   OH244984   2.845   3.188   4.603 -0.3481  0.2645 -0.6974
 6930TIP3    H144985   2.903   3.141   4.543 -0.2828  2.4175 -2.4444
 6930TIP3    H244986   2.887   3.179   4.689  1.5113  0.0966 -1.5771
 6931TIP3   OH244987   6.467   4.296   3.886 -0.1433 -0.7499  0.2024
 6931TIP3    H144988   6.423   4.355   3.947 -0.8636  1.7052 -2.4360
 6931TIP3    H244989   6.399   4.234   3.860 -0.6923  0.0386 -0.2737
 6932TIP3   OH244990   3.115   5.740   3.211  0.0776 -0.0451 -0.3673
 6932TIP3    H144991   3.091   5.753   3.303 -0.2403  0.2188 -0.4896
 6932TIP3    H244992   3.207   5.769   3.206 -0.3672  1.4055 -0.4615
 6933TIP3   OH244993   0.984   5.467   5.096  0.4863 -0.5384  0.4834
 6933TIP3    H144994   1.006   5.383   5.137 -0.4638 -0.9172  0.2355
 6933TIP3    H244995   1.035   5.531   5.145  2.8015 -1.4320 -0.5721
 6934TIP3   OH244996   7.346   1.856   2.953 -0.2196 -0.1655 -0.3007
 6934TIP3    H144997   7.302   1.892   3.030  0.1518 -2.3922  1.0374
 6934TIP3    H244998   7.385   1.932   2.910 -0.4292  1.1614  1.7142
 6935TIP3   OH244999   4.777   5.468   4.120  0.2441 -0.0215 -0.2160
 6935TIP3    H145000   4.821   5.455   4.036 -0.9116  0.4344 -0.9070
 6935TIP3    H245001   4.846   5.500   4.179  1.1289 -0.6330 -0.8895
 6936TIP3   OH245002   3.607   4.266   2.139 -0.4976 -0.1924  0.0146
 6936TIP3    H145003   3.699   4.247   2.158  0.2583  1.4352 -1.6373
 6936TIP3    H245004   3.583   4.203   2.071 -0.0698  0.3501 -0.6675
 6937TIP3   OH245005   1.251   5.470   4.303 -0.3472  0.1452  0.2291
 6937TIP3    H145006   1.292   5.420   4.374 -2.3165  0.3008  1.5638
 6937TIP3    H245007   1.282   5.559   4.314  0.6857 -0.1492 -0.1907
 6938TIP3   OH245008   0.768   7.049   3.677  0.5366 -0.0675  0.4700
 6938TIP3    H145009   0.777   7.143   3.694 -0.3581  0.3201 -1.0504
 6938TIP3    H245010   0.783   7.040   3.583 -1.7929 -1.0901  0.1304
 6939TIP3   OH245011   1.464   1.438   2.978  0.1055  0.0309  0.2321
 6939TIP3    H145012   1.531   1.400   2.921  0.7850  0.4431  0.7340
 6939TIP3    H245013   1.397   1.471   2.918  0.6709  0.2015 -0.3117
 6940TIP3   OH245014   6.898   4.790   5.180  0.3885  0.0112 -0.1696
 6940TIP3    H145015   6.966   4.723   5.185  1.5754  1.2536  1.2850
 6940TIP3    H245016   6.819   4.745   5.210  1.1491 -0.7719  0.7449
 6941TIP3   OH245017   6.154   3.237   3.434  0.3683 -0.4683  0.1741
 6941TIP3    H145018   6.117   3.301   3.374  0.0794 -1.3543 -0.6325
 6941TIP3    H245019   6.089   3.228   3.503 -0.6054 -1.4090 -0.8066
 6942TIP3   OH245020   5.113   0.796   4.457  0.0006 -0.2078  0.6395
 6942TIP3    H145021   5.069   0.711   4.459  1.1345 -0.8038  1.3137
 6942TIP3    H245022   5.082   0.841   4.536  0.8669 -0.7825  1.3246
 6943TIP3   OH245023   3.360   3.446   2.705  0.2033  0.0792  0.3130
 6943TIP3    H145024   3.303   3.383   2.662  0.6856 -0.6102  0.6777
 6943TIP3    H245025   3.310   3.475   2.782 -0.2194  0.5226 -0.1209
 6944TIP3   OH245026   5.252   0.263   3.864 -0.1016  0.6742 -0.9967
 6944TIP3    H145027   5.260   0.181   3.815  1.1122 -1.2364  2.0335
 6944TIP3    H245028   5.223   0.235   3.951  1.3592  3.3313  0.4736
 6945TIP3   OH245029   7.287   2.759   4.688  0.0011  0.1935 -0.0579
 6945TIP3    H145030   7.303   2.687   4.749  0.6509 -1.4354 -2.0161
 6945TIP3    H245031   7.375   2.790   4.665 -0.2174  0.6198 -0.3184
 6946TIP3   OH245032   0.844   5.340   4.499  0.3778 -0.6121  0.5295
 6946TIP3    H145033   0.756   5.303   4.490  0.5637 -0.9113 -0.1162
 6946TIP3    H245034   0.882   5.332   4.412  1.2102 -0.8978  0.9145
 6947TIP3   OH245035   0.108   1.494   3.946  0.6069  0.4953 -0.2780
 6947TIP3    H145036   0.112   1.399   3.934  1.1587  0.7185 -2.1154
 6947TIP3    H245037   0.016   1.517   3.931  0.1904  0.1314  1.4930
 6948TIP3   OH245038   2.733   0.231   4.656  0.1485  0.5272 -0.0181
 6948TIP3    H145039   2.741   0.240   4.751 -1.0742 -0.7621  0.2383
 6948TIP3    H245040   2.640   0.218   4.640  0.0421  2.6515 -1.6242
 6949TIP3   OH245041   1.991   6.300   2.451 -0.0976  0.3209  0.3404
 6949TIP3    H145042   1.984   6.380   2.503  1.4422 -0.5877  2.0711
 6949TIP3    H245043   2.068   6.314   2.396 -0.9263  0.7347 -0.7540
 6950TIP3   OH245044   1.456   3.915   4.084 -0.0709 -0.0138 -0.1767
 6950TIP3    H145045   1.441   3.828   4.048 -2.7610  0.3143 -0.0467
 6950TIP3    H245046   1.429   3.907   4.176 -0.5885  1.0280 -0.2352
 6951TIP3   OH245047   4.575   2.635   4.556 -0.1309  0.4443  0.0416
 6951TIP3    H145048   4.566   2.548   4.517 -0.3530  0.0513  0.9414
 6951TIP3    H245049   4.538   2.694   4.491 -0.3541 -0.1791 -0.4094
 6952TIP3   OH245050   0.746   0.812   3.683  0.7639  0.2263 -0.8570
 6952TIP3    H145051   0.722   0.825   3.591 -0.6565 -0.1795 -0.5685
 6952TIP3    H245052   0.748   0.716   3.693  0.5808  0.2710 -0.3916
 6953TIP3   OH245053   5.260   3.267   3.238 -0.8007  0.1672  0.4308
 6953TIP3    H145054   5.306   3.338   3.194 -0.6181 -0.5495 -0.5545
 6953TIP3    H245055   5.329   3.205   3.261 -1.1097 -0.2841  0.1548
 6954TIP3   OH245056   4.473   5.451   3.002  0.0573  0.3085  0.2002
 6954TIP3    H145057   4.466   5.444   2.907  0.0329  0.5108  0.1859
 6954TIP3    H245058   4.396   5.501   3.028 -0.9699 -1.3560  0.5327
 6955TIP3   OH245059   0.832   0.331   3.125  0.0761 -0.1048 -0.6855
 6955TIP3    H145060   0.821   0.425   3.109 -1.8741  0.2563  2.0518
 6955TIP3    H245061   0.776   0.289   3.059 -1.7907  0.8805  0.1820
 6956TIP3   OH245062   7.469   5.564   3.849 -0.4098 -0.1430 -0.0616
 6956TIP3    H145063   7.550   5.614   3.862 -0.4544  0.0220 -0.4012
 6956TIP3    H245064   7.399   5.628   3.861 -0.4614 -0.0768 -0.6847
 6957TIP3   OH245065   3.935   5.866   4.309  0.1196  0.2245  0.2206
 6957TIP3    H145066   3.845   5.858   4.277 -0.0008  2.8348 -0.2819
 6957TIP3    H245067   3.927   5.919   4.389  1.1068 -0.6159  0.9034
 6958TIP3   OH245068   3.218   7.398   4.288  0.1116  0.1281 -0.4606
 6958TIP3    H145069   3.274   7.351   4.349  0.1960 -0.7893 -1.2299
 6958TIP3    H245070   3.137   7.414   4.336  0.6938  0.7007  0.3652
 6959TIP3   OH245071   1.676   0.660   3.472 -0.5593  0.2453  0.4658
 6959TIP3    H145072   1.739   0.678   3.403  1.2979 -0.2580  1.9513
 6959TIP3    H245073   1.642   0.573   3.452 -0.0747  0.1233  0.1582
 6960TIP3   OH245074   3.168   7.467   4.656 -0.1103  0.3698 -0.4729
 6960TIP3    H145075   3.176   7.555   4.620 -1.3607  0.9087  0.5111
 6960TIP3    H245076   3.241   7.418   4.617  0.0945  1.6019 -1.6836
 6961TIP3   OH245077   4.310   4.084   3.199  0.1589 -0.3331  0.2349
 6961TIP3    H145078   4.313   4.007   3.142  1.7163  0.3795 -0.6798
 6961TIP3    H245079   4.399   4.118   3.200 -0.2911  0.9296  1.3957
 6962TIP3   OH245080   5.543   4.504   3.579  0.0640 -0.7102  0.0958
 6962TIP3    H145081   5.488   4.477   3.653 -0.8192 -1.4366 -0.7930
 6962TIP3    H245082   5.481   4.543   3.517  0.7567 -0.3453 -0.3686
 6963TIP3   OH245083   3.061   2.015   2.072 -0.0402 -0.1959  0.1739
 6963TIP3    H145084   2.965   2.021   2.067 -0.0898  0.0328  1.1166
 6963TIP3    H245085   3.092   2.102   2.048 -0.0306 -0.4697 -0.8230
 6964TIP3   OH245086   1.230   4.273   3.410 -0.2906 -0.2580  0.0919
 6964TIP3    H145087   1.237   4.368   3.416  1.7165 -0.3612  0.3325
 6964TIP3    H245088   1.296   4.241   3.472 -1.3530 -1.8252  0.4757
 6965TIP3   OH245089   5.997   0.144   3.845 -0.1829  0.0265 -0.0356
 6965TIP3    H145090   5.965   0.231   3.823 -1.0351 -0.4791 -0.8427
 6965TIP3    H245091   6.042   0.114   3.766  1.3430  0.2785  0.7050
 6966TIP3   OH245092   6.595   2.527   3.797 -0.2999 -0.1460 -0.3178
 6966TIP3    H145093   6.516   2.517   3.850 -0.1285 -2.1180 -0.3529
 6966TIP3    H245094   6.580   2.472   3.720  1.5872 -1.6279  0.2910
 6967TIP3   OH245095   5.769   5.832   4.163  0.0319  0.1866 -0.3275
 6967TIP3    H145096   5.696   5.891   4.180  0.9214  0.9299  1.0848
 6967TIP3    H245097   5.806   5.863   4.080 -1.6723 -0.6897 -1.4750
 6968TIP3   OH245098   4.519   3.391   2.526  0.1066  0.4716  0.0635
 6968TIP3    H145099   4.443   3.334   2.540  0.3563  0.7581  3.2852
 6968TIP3    H245100   4.562   3.395   2.611  1.7726  3.1683 -0.7886
 6969TIP3   OH245101   1.460   3.570   3.629 -0.4099  0.1117 -0.0825
 6969TIP3    H145102   1.403   3.531   3.695  1.0178 -2.5679 -0.2938
 6969TIP3    H245103   1.511   3.636   3.676 -0.9845 -0.1902  0.9775
 6970TIP3   OH245104   3.580   4.675   3.329  0.5612  0.5723 -0.4213
 6970TIP3    H145105   3.557   4.763   3.298  0.5914  0.4373 -0.8337
 6970TIP3    H245106   3.580   4.683   3.424  0.7973  1.0792 -0.4580
 6971TIP3   OH245107   0.127   2.728   4.461 -0.0736  0.0994  0.0570
 6971TIP3    H145108   0.089   2.670   4.527  0.6442  1.6766  1.9574
 6971TIP3    H245109   0.161   2.802   4.511  0.8436  1.2054 -2.0764
 6972TIP3   OH245110   5.166   0.704   2.445 -0.1622  0.4257  0.1491
 6972TIP3    H145111   5.111   0.675   2.519 -0.1699  0.9150  0.3390
 6972TIP3    H245112   5.256   0.687   2.474 -0.1323  1.1623  0.5229
 6973TIP3   OH245113   3.099   5.423   3.792  0.7471  0.0419  0.6218
 6973TIP3    H145114   3.175   5.366   3.781  0.4621  0.1035 -2.5672
 6973TIP3    H245115   3.026   5.374   3.753 -0.3823  0.9163  1.5650
 6974TIP3   OH245116   4.207   7.641   2.968 -0.5703  0.3007 -0.0192
 6974TIP3    H145117   4.148   7.695   3.021 -0.6641 -0.3082  0.5125
 6974TIP3    H245118   4.235   7.572   3.028 -0.0416  0.0619 -0.5412
 6975TIP3   OH245119   5.897   7.269   4.076 -1.0195  0.6589  0.0792
 6975TIP3    H145120   5.914   7.362   4.059 -0.0847  0.1492 -2.0747
 6975TIP3    H245121   5.911   7.259   4.170  2.6314  2.0001 -0.1629
 6976TIP3   OH245122   1.927   2.131   3.969  0.1682  0.3327 -0.3735
 6976TIP3    H145123   1.918   2.120   3.875  1.6662  0.0891 -0.5200
 6976TIP3    H245124   1.858   2.077   4.007 -0.5140  0.5210 -1.3216
 6977TIP3   OH245125   5.173   1.889   4.539 -0.1783  0.1147  0.0848
 6977TIP3    H145126   5.141   1.977   4.556 -1.7027 -0.0202 -1.7954
 6977TIP3    H245127   5.250   1.880   4.595 -0.8817  2.0640  1.4587
 6978TIP3   OH245128   3.385   2.424   2.352  0.1901  0.0860  0.5340
 6978TIP3    H145129   3.346   2.506   2.383  1.2601  0.4424  0.9859
 6978TIP3    H245130   3.464   2.451   2.305 -0.1019 -0.6163 -0.3887
 6979TIP3   OH245131   2.943   1.085   3.669 -0.1353 -0.3197 -0.1727
 6979TIP3    H145132   2.957   1.152   3.735  0.8213  0.7207 -1.3671
 6979TIP3    H245133   2.854   1.054   3.684 -0.1558  0.3292  1.1832
 6980TIP3   OH245134   2.884   0.689   4.489 -0.0154 -0.0874 -0.1325
 6980TIP3    H145135   2.827   0.758   4.525  0.4185  0.7147 -0.9307
 6980TIP3    H245136   2.825   0.616   4.472 -1.0023  1.0090 -1.6943
 6981TIP3   OH245137   0.810   6.125   2.898 -0.1762  0.3671  0.1176
 6981TIP3    H145138   0.876   6.189   2.872  0.1803 -0.6955 -1.6768
 6981TIP3    H245139   0.730   6.177   2.909 -0.1882  1.0008 -2.4880
 6982TIP3   OH245140   6.528   4.944   4.692  0.2779 -0.2734 -0.9021
 6982TIP3    H145141   6.603   4.975   4.744  0.7182 -0.7321 -1.2623
 6982TIP3    H245142   6.457   4.935   4.756 -0.1609  2.3271 -0.8842
 6983TIP3   OH245143   3.246   2.107   2.789 -0.2174  0.5696  0.0596
 6983TIP3    H145144   3.212   2.070   2.708  0.9726 -0.5294  0.0287
 6983TIP3    H245145   3.326   2.154   2.763  0.0753  0.3626  0.5616
 6984TIP3   OH245146   4.630   5.240   4.009 -0.3146 -0.1182 -1.3559
 6984TIP3    H145147   4.684   5.176   4.055  0.1568  0.9655 -0.3312
 6984TIP3    H245148   4.678   5.322   4.017 -2.3586  1.0246  0.1376
 6985TIP3   OH245149   5.539   7.204   2.681 -0.2029  0.0861  0.0047
 6985TIP3    H145150   5.612   7.229   2.738 -1.0872 -0.4616  1.4210
 6985TIP3    H245151   5.477   7.276   2.690 -0.8818 -0.5687  0.7332
 6986TIP3   OH245152   3.540   2.794   2.536 -0.2819  0.0142 -0.0815
 6986TIP3    H145153   3.554   2.809   2.630  0.3313  0.7201 -0.2705
 6986TIP3    H245154   3.614   2.739   2.510  0.0312  0.5516 -0.3263
 6987TIP3   OH245155   7.062   5.793   4.602  0.3090 -0.3816  0.5461
 6987TIP3    H145156   7.075   5.698   4.599  0.9975 -0.3008  0.9107
 6987TIP3    H245157   7.115   5.822   4.676  1.5374  0.5200 -0.6473
 6988TIP3   OH245158   2.162   4.910   3.556 -0.1964  0.5722 -0.5231
 6988TIP3    H145159   2.211   4.925   3.637  1.2037  1.2068 -1.4454
 6988TIP3    H245160   2.073   4.939   3.576 -0.0248  0.1137  0.9710
 6989TIP3   OH245161   0.238   3.746   4.905 -0.3084 -0.0855 -0.1561
 6989TIP3    H145162   0.243   3.681   4.836 -0.8354  0.3693 -0.6336
 6989TIP3    H245163   0.154   3.729   4.949  0.6352 -1.2573  1.2901
 6990TIP3   OH245164   3.097   1.401   2.975  0.5878  0.2043 -0.1367
 6990TIP3    H145165   3.158   1.341   3.018  0.0018 -1.7340 -1.8038
 6990TIP3    H245166   3.121   1.488   3.008  0.7748 -0.9820  3.2534
 6991TIP3   OH245167   1.132   3.390   4.017 -0.0260  0.4215  0.2139
 6991TIP3    H145168   1.159   3.298   4.009  1.7610  1.0193 -1.2674
 6991TIP3    H245169   1.180   3.423   4.092 -2.2037 -0.3043  2.0224
 6992TIP3   OH245170   4.191   5.395   2.004  0.1613 -0.1126 -0.2168
 6992TIP3    H145171   4.157   5.315   2.045 -1.3111  0.0629 -1.0187
 6992TIP3    H245172   4.189   5.376   1.910  2.6049 -0.1738 -0.3095
 6993TIP3   OH245173   1.697   6.145   4.019  0.0546 -0.2402 -0.0871
 6993TIP3    H145174   1.652   6.105   4.092  1.7910 -1.0777  0.5843
 6993TIP3    H245175   1.640   6.218   3.992 -1.0230 -0.4461  1.5221
 6994TIP3   OH245176   1.210   0.179   5.237 -0.3933  0.3312  0.0280
 6994TIP3    H145177   1.271   0.162   5.309 -1.5251  0.7060  1.1188
 6994TIP3    H245178   1.195   0.093   5.198 -0.0365  0.0570  0.4801
 6995TIP3   OH245179   2.143   1.297   4.546  0.0318 -0.3309 -0.2391
 6995TIP3    H145180   2.100   1.250   4.617 -2.1939 -0.1852 -1.4028
 6995TIP3    H245181   2.127   1.243   4.469  2.5144 -0.5600 -0.6932
 6996TIP3   OH245182   2.285   6.308   3.542 -0.1317  0.3129  0.0236
 6996TIP3    H145183   2.282   6.222   3.585  2.2604 -0.5985 -1.4008
 6996TIP3    H245184   2.280   6.371   3.614 -1.4094 -1.0000  1.1533
 6997TIP3   OH245185   2.986   1.868   2.921 -0.7677 -0.0153 -0.3583
 6997TIP3    H145186   3.037   1.805   2.872 -0.8576 -1.5065  1.3678
 6997TIP3    H245187   2.954   1.820   2.997  0.1065  2.3896  1.6615
 6998TIP3   OH245188   0.588   0.996   2.632 -0.0921  0.3924 -0.5948
 6998TIP3    H145189   0.556   1.083   2.657 -0.5730 -0.5912  2.6913
 6998TIP3    H245190   0.683   1.006   2.627  0.2159  0.5519  3.0177
 6999TIP3   OH245191   3.953   6.224   4.325  0.3938  0.6263 -0.0075
 6999TIP3    H145192   4.014   6.157   4.295  0.2904  0.6543 -0.2894
 6999TIP3    H245193   3.963   6.225   4.420  1.5677  1.3389 -0.1200
 7000TIP3   OH245194   1.925   6.818   4.595  0.2750 -0.1010 -0.1763
 7000TIP3    H145195   2.004   6.764   4.602 -0.0411 -0.5736 -0.2494
 7000TIP3    H245196   1.862   6.778   4.654 -0.3595 -0.5147 -1.1112
 7001TIP3   OH245197   7.200   4.750   5.012 -0.0424 -0.0051 -0.7312
 7001TIP3    H145198   7.186   4.839   5.041 -2.4906 -0.7143  0.4990
 7001TIP3    H245199   7.159   4.695   5.079 -1.0750 -1.9328 -2.7920
 7002TIP3   OH245200   4.068   0.229   2.319 -0.0972 -0.1301 -0.1210
 7002TIP3    H145201   3.991   0.218   2.264 -0.6276 -3.2384  1.0584
 7002TIP3    H245202   4.047   0.305   2.374 -2.2390 -0.7362 -0.0011
 7003TIP3   OH245203   3.522   4.364   4.394 -0.2134  0.4055 -0.0665
 7003TIP3    H145204   3.550   4.279   4.428 -1.8453 -0.5088 -0.9006
 7003TIP3    H245205   3.595   4.423   4.414  1.0812 -1.2385  0.2709
 7004TIP3   OH245206   3.680   2.178   2.564  0.0745 -0.2617  0.5037
 7004TIP3    H145207   3.723   2.159   2.648  1.7002  3.2012  0.6342
 7004TIP3    H245208   3.746   2.159   2.498 -0.5504 -1.1754  0.1237
 7005TIP3   OH245209   7.643   6.141   2.838  0.5187  0.3943 -0.6950
 7005TIP3    H145210   7.596   6.136   2.921  1.8491 -2.1495  0.0031
 7005TIP3    H245211   7.626   6.230   2.807 -2.6886  0.3988  0.6549
 7006TIP3   OH245212   0.509   2.359   4.105 -0.1554  0.3907  0.0127
 7006TIP3    H145213   0.447   2.288   4.120 -1.5917  1.6294  0.1872
 7006TIP3    H245214   0.573   2.323   4.043  1.0568 -2.0994  2.5004
 7007TIP3   OH245215   0.306   2.445   3.526  0.0109  0.2332 -0.2295
 7007TIP3    H145216   0.348   2.524   3.493  0.5460  0.0073 -0.0952
 7007TIP3    H245217   0.318   2.380   3.457  1.9623 -0.5180  0.7541
 7008TIP3   OH245218   5.503   6.924   3.651  0.1774  0.2558 -0.2599
 7008TIP3    H145219   5.448   6.937   3.728 -0.7354  0.2733 -0.9065
 7008TIP3    H245220   5.474   6.991   3.589  0.8236  0.1706 -0.6637
 7009TIP3   OH245221   6.076   6.196   4.340  0.3049 -0.6016 -0.1913
 7009TIP3    H145222   6.082   6.104   4.367 -1.1378 -0.7684 -0.3804
 7009TIP3    H245223   5.996   6.200   4.287  0.8523  0.5775 -0.9561
 7010TIP3   OH245224   4.556   1.624   5.039  0.4424  0.2521 -0.4626
 7010TIP3    H145225   4.522   1.713   5.027 -1.4402 -0.6318 -2.2577
 7010TIP3    H245226   4.486   1.578   5.085  0.5276 -0.7861 -1.3326
 7011TIP3   OH245227   4.630   1.944   3.350  0.1241  0.4084  0.3019
 7011TIP3    H145228   4.660   1.924   3.438 -0.9083  1.8754  1.0417
 7011TIP3    H245229   4.706   1.980   3.305  1.1726 -2.1040 -0.0770
 7012TIP3   OH245230   3.726   2.203   4.098  0.0080  0.0590 -0.2732
 7012TIP3    H145231   3.632   2.190   4.109 -0.4717  2.9217 -0.3092
 7012TIP3    H245232   3.766   2.126   4.138 -2.3200 -1.2332 -0.2653
 7013TIP3   OH245233   5.026   4.567   3.999 -0.2157 -0.2899  0.0063
 7013TIP3    H145234   4.951   4.512   4.018  0.4020 -1.6668 -1.4067
 7013TIP3    H245235   5.088   4.510   3.954  0.4447  1.5522 -1.5538
 7014TIP3   OH245236   2.345   5.753   2.954 -0.1092 -0.1850 -0.0068
 7014TIP3    H145237   2.346   5.702   3.035  0.0558 -0.1507  0.0133
 7014TIP3    H245238   2.259   5.796   2.954 -0.5006 -0.9496 -0.3318
 7015TIP3   OH245239   0.506   1.373   2.439 -0.0219  0.1859  0.0764
 7015TIP3    H145240   0.435   1.433   2.414  0.8409  0.5600 -1.6494
 7015TIP3    H245241   0.484   1.291   2.395 -0.2441 -0.2175  0.9286
 7016TIP3   OH245242   2.054   6.884   3.865 -0.2025  0.1015  0.2065
 7016TIP3    H145243   1.989   6.899   3.796 -1.7695 -1.4710  1.2419
 7016TIP3    H245244   2.107   6.811   3.832 -0.1940  0.1279  0.1616
 7017TIP3   OH245245   0.490   5.206   3.425 -0.5882 -0.0218 -0.1717
 7017TIP3    H145246   0.514   5.243   3.340 -0.2351 -1.5995 -0.7984
 7017TIP3    H245247   0.399   5.231   3.438 -1.6294 -2.1397 -2.4372
 7018TIP3   OH245248   5.159   1.227   4.305 -0.2583  0.1571  0.4129
 7018TIP3    H145249   5.199   1.281   4.374 -0.8711  1.0043  0.1245
 7018TIP3    H245250   5.187   1.138   4.325  0.0624  0.4679  1.4093
 7019TIP3   OH245251   2.556   0.461   4.676 -0.1877  0.2110 -0.6418
 7019TIP3    H145252   2.574   0.386   4.732 -0.2424  0.6604 -0.0044
 7019TIP3    H245253   2.564   0.537   4.734  0.3982  0.7404 -1.3811
 7020TIP3   OH245254   7.084   7.222   2.496  0.6915 -0.4905 -0.1998
 7020TIP3    H145255   7.016   7.213   2.562  1.7040  0.6051  1.0465
 7020TIP3    H245256   7.127   7.137   2.492  1.6328 -0.1582  1.7468
 7021TIP3   OH245257   0.250   5.169   3.128  0.1911  0.5332 -0.1194
 7021TIP3    H145258   0.163   5.138   3.156  0.3996 -0.8090 -0.8444
 7021TIP3    H245259   0.241   5.264   3.123 -0.8505  0.5378  1.0837
 7022TIP3   OH245260   3.801   6.104   3.934 -0.4272 -0.0838  0.1144
 7022TIP3    H145261   3.776   6.121   3.843 -0.1327 -1.3520 -0.2293
 7022TIP3    H245262   3.863   6.174   3.956  0.1671 -0.2509 -0.9615
 7023TIP3   OH245263   6.460   0.354   2.855 -0.4378  0.2911 -0.3831
 7023TIP3    H145264   6.546   0.328   2.821  0.2119 -0.4120  1.6271
 7023TIP3    H245265   6.400   0.285   2.826  0.0487 -0.1725 -0.3036
 7024TIP3   OH245266   7.223   5.077   3.603  0.4905  0.6618  0.5780
 7024TIP3    H145267   7.160   5.080   3.675 -0.7013 -0.4349 -0.3755
 7024TIP3    H245268   7.232   5.168   3.575 -1.4226  0.7277  0.1067
 7025TIP3   OH245269   1.453   1.298   2.535  0.5083 -0.1907  0.0151
 7025TIP3    H145270   1.427   1.390   2.530  2.7085  0.4271 -1.5494
 7025TIP3    H245271   1.483   1.287   2.626 -0.8250  0.2773  0.5405
 7026TIP3   OH245272   5.649   3.332   3.731  0.0776 -0.0580 -0.3143
 7026TIP3    H145273   5.716   3.397   3.751 -0.0131  0.0655 -0.4044
 7026TIP3    H245274   5.606   3.366   3.652 -1.0346  0.5935  0.5433
 7027TIP3   OH245275   3.179   6.533   2.908  0.5426  0.1047 -0.3731
 7027TIP3    H145276   3.128   6.559   2.832  1.5755  1.7758 -0.5566
 7027TIP3    H245277   3.123   6.553   2.983 -0.7132 -2.0918 -0.6550
 7028TIP3   OH245278   0.919   1.659   4.801  0.6097  0.6476 -0.0476
 7028TIP3    H145279   0.968   1.578   4.788  0.6335  0.7537 -0.6655
 7028TIP3    H245280   0.929   1.706   4.718 -1.7663 -0.0065 -0.8122
 7029TIP3   OH245281   2.861   5.667   2.898 -0.3053 -0.2239 -0.3077
 7029TIP3    H145282   2.798   5.622   2.955  0.5734 -0.9435  0.1377
 7029TIP3    H245283   2.827   5.655   2.810 -0.8999 -0.4197 -0.0591
 7030TIP3   OH245284   0.544   5.223   2.683 -0.4941 -0.1689 -0.0713
 7030TIP3    H145285   0.546   5.298   2.623 -0.5216  0.2554  0.4388
 7030TIP3    H245286   0.591   5.255   2.761 -0.9785 -0.4949  0.3598
 7031TIP3   OH245287   2.977   2.637   3.179 -0.0795 -0.1132  0.2759
 7031TIP3    H145288   2.982   2.688   3.098  1.8521 -0.1228  0.3490
 7031TIP3    H245289   2.951   2.701   3.245 -0.5873  0.1223 -0.1357
 7032TIP3   OH245290   5.492   2.449   2.472 -0.0991 -0.9995 -0.1368
 7032TIP3    H145291   5.485   2.464   2.378 -0.7284  0.8799  0.1730
 7032TIP3    H245292   5.439   2.370   2.488  1.0730 -2.1211 -1.4914
 7033TIP3   OH245293   5.211   2.797   3.325 -0.0716  0.0822  0.6806
 7033TIP3    H145294   5.195   2.725   3.386 -0.4889 -0.0905  0.3751
 7033TIP3    H245295   5.290   2.839   3.357 -0.8849  0.6740  1.9759
 7034TIP3   OH245296   2.227   0.035   4.479 -0.3920 -0.0038 -0.1920
 7034TIP3    H145297   2.282  -0.041   4.462 -0.3828  0.2893 -1.5281
 7034TIP3    H245298   2.139  -0.001   4.490 -0.6069 -0.1325 -2.0242
 7035TIP3   OH245299   4.758   2.735   3.634  0.0544 -0.0319  0.0555
 7035TIP3    H145300   4.791   2.710   3.720  1.6725  1.1810 -0.1648
 7035TIP3    H245301   4.836   2.738   3.579 -0.5007  2.1866 -0.7063
 7036TIP3   OH245302   1.789   0.997   3.842 -0.7468  0.2575 -0.3381
 7036TIP3    H145303   1.767   0.916   3.887  0.1591  0.0460 -0.2689
 7036TIP3    H245304   1.706   1.046   3.839 -1.2062 -0.4912 -0.0338
 7037TIP3   OH245305   5.389   5.798   3.777  0.0176 -0.1920  0.6394
 7037TIP3    H145306   5.455   5.764   3.716 -1.1848 -2.7224  0.6114
 7037TIP3    H245307   5.421   5.772   3.864 -0.3801 -0.4621  0.7100
 7038TIP3   OH245308   6.908   3.448  10.453 -0.0957 -0.6532  0.3012
 7038TIP3    H145309   6.826   3.422  10.411 -0.6011  1.7977 -0.3577
 7038TIP3    H245310   6.910   3.399  10.535 -2.7135 -0.0630  0.7838
 7039TIP3   OH245311   7.412   4.022   4.575 -0.4226 -0.2559 -0.5437
 7039TIP3    H145312   7.496   3.977   4.566 -0.1620 -0.1509  1.1266
 7039TIP3    H245313   7.433   4.115   4.568 -0.4044 -0.2353 -0.2415
 7040TIP3   OH245314   3.185   2.342   3.118  0.2255 -0.3122 -0.3826
 7040TIP3    H145315   3.204   2.409   3.051  0.4446  0.1179  0.1059
 7040TIP3    H245316   3.153   2.267   3.068  1.1317 -0.2734 -1.0408
 7041TIP3   OH245317   3.340   0.851   2.320  0.0370 -0.0036 -0.1309
 7041TIP3    H145318   3.265   0.903   2.291 -0.7878 -1.7058 -1.1808
 7041TIP3    H245319   3.414   0.912   2.316 -1.1467  1.5458  0.3154
 7042TIP3   OH245320   1.512   4.141   4.316 -0.3194 -0.2063 -0.3056
 7042TIP3    H145321   1.517   4.169   4.407  1.5813  0.4911 -0.5777
 7042TIP3    H245322   1.503   4.046   4.321  2.4842 -0.5033  0.6745
 7043TIP3   OH245323   0.652   2.327   2.475 -0.9843  0.4061 -0.2385
 7043TIP3    H145324   0.656   2.361   2.386 -0.0968 -0.0031 -0.3604
 7043TIP3    H245325   0.560   2.338   2.501 -1.2219  0.6324 -1.1575
 7044TIP3   OH245326   0.398   2.973   4.389 -0.6054  0.2062  0.2011
 7044TIP3    H145327   0.442   2.888   4.390 -0.6506  0.1688 -0.4052
 7044TIP3    H245328   0.330   2.966   4.456 -0.0009  0.1014  0.8125
 7045TIP3   OH245329   6.743   6.854   2.773  0.0249  0.0631  0.1832
 7045TIP3    H145330   6.771   6.790   2.707 -1.4668 -0.0536 -0.3643
 7045TIP3    H245331   6.650   6.866   2.757 -0.3015  0.3055  2.0553
 7046TIP3   OH245332   6.349   5.123   2.219  0.0067  0.0362 -0.2386
 7046TIP3    H145333   6.292   5.185   2.266 -1.3702  1.0623 -3.0011
 7046TIP3    H245334   6.420   5.177   2.185 -0.0959 -0.2652 -0.9549
 7047TIP3   OH245335   4.019   3.378   2.402 -0.1410  0.3905 -0.1163
 7047TIP3    H145336   3.925   3.372   2.419 -0.8746  0.2367 -3.5676
 7047TIP3    H245337   4.032   3.468   2.371  0.0817 -0.5464 -3.0157
 7048TIP3   OH245338   5.013   6.086   2.754 -0.1661  0.3977  0.5814
 7048TIP3    H145339   5.098   6.058   2.786 -0.4083  1.1311  1.9352
 7048TIP3    H245340   4.951   6.027   2.796 -0.4652  1.1635  1.2418
 7049TIP3   OH245341   1.362   1.049   2.402  0.1443  0.1734 -0.1021
 7049TIP3    H145342   1.278   1.067   2.359 -0.5790 -0.7989  0.8686
 7049TIP3    H245343   1.393   1.135   2.430 -1.2201  0.4195  0.7564
 7050TIP3   OH245344   0.721   7.310   4.869  0.1467 -0.2422  0.2048
 7050TIP3    H145345   0.675   7.282   4.790  0.1734 -1.1795  0.5178
 7050TIP3    H245346   0.652   7.347   4.924  0.3163  1.6589 -0.7733
 7051TIP3   OH245347   1.817   4.309   3.951  0.5055 -0.0967 -0.3554
 7051TIP3    H145348   1.780   4.307   4.040  0.8233 -0.2084 -0.2257
 7051TIP3    H245349   1.746   4.343   3.897 -0.0655 -1.0637 -0.2428
 7052TIP3   OH245350   2.218   0.441   3.242  0.2150 -0.0683 -0.0171
 7052TIP3    H145351   2.271   0.361   3.236  0.4217  0.1461 -1.6361
 7052TIP3    H245352   2.276   0.510   3.209 -0.8067  0.3014 -1.1088
 7053TIP3   OH245353   5.856   1.520   3.737  0.1293 -0.0888  0.0903
 7053TIP3    H145354   5.842   1.614   3.747 -0.6851 -0.2967  1.0766
 7053TIP3    H245355   5.825   1.483   3.820  0.5243 -1.2134 -0.2580
 7054TIP3   OH245356   3.881   3.935   2.036  0.4003 -0.4276 -0.3795
 7054TIP3    H145357   3.896   4.007   2.097  0.3435 -0.5179 -0.2583
 7054TIP3    H245358   3.880   3.857   2.091 -0.1114 -0.4645 -0.4342
 7055TIP3   OH245359   2.133   3.398   4.455  0.6927  0.4079  0.0211
 7055TIP3    H145360   2.157   3.483   4.419  0.1710  0.9595  0.9409
 7055TIP3    H245361   2.038   3.404   4.469  0.4288 -0.7713 -1.0474
 7056TIP3   OH245362   2.669   7.070   2.779  0.1945 -0.4852  0.1812
 7056TIP3    H145363   2.642   6.979   2.791 -0.0754 -0.6920 -1.6860
 7056TIP3    H245364   2.733   7.066   2.708 -0.5919  0.8803 -0.6482
 7057TIP3   OH245365   5.623   0.741   2.280 -0.1673 -0.2469 -0.4727
 7057TIP3    H145366   5.558   0.723   2.348 -0.2938 -2.0174 -1.0144
 7057TIP3    H245367   5.706   0.746   2.328 -0.4253 -0.1715 -0.0286
 7058TIP3   OH245368   1.169   1.801   5.308  0.4145  0.3131  0.0859
 7058TIP3    H145369   1.098   1.823   5.247 -0.7428  0.1435  1.3413
 7058TIP3    H245370   1.245   1.851   5.275 -0.6344  1.5983 -0.4774
 7059TIP3   OH245371   0.427   0.653   3.351 -0.0099 -0.2468 -0.0774
 7059TIP3    H145372   0.512   0.651   3.395 -0.2147  0.6729  0.3955
 7059TIP3    H245373   0.409   0.562   3.329  0.0189 -0.7667  1.9015
 7060TIP3   OH245374   6.923   1.901   2.957  0.3840 -0.1303  0.0051
 7060TIP3    H145375   6.880   1.987   2.959  0.1628 -0.2413  1.4479
 7060TIP3    H245376   6.901   1.863   3.042  2.4683 -0.6373  0.3489
 7061TIP3   OH245377   6.957   6.777   2.616  0.2016  0.4391 -0.2690
 7061TIP3    H145378   7.037   6.724   2.616 -0.0718  0.0066 -1.0959
 7061TIP3    H245379   6.980   6.854   2.563 -0.0749  0.0679 -0.9433
 7062TIP3   OH245380   1.320   6.057   4.059 -0.0245  0.6082  0.5469
 7062TIP3    H145381   1.345   6.143   4.024 -0.9225  0.0162 -1.6559
 7062TIP3    H245382   1.229   6.045   4.032  0.1409 -1.1359  0.6566
 7063TIP3   OH245383   5.736   1.267   3.577  0.0759 -0.1554  0.0328
 7063TIP3    H145384   5.718   1.325   3.651 -0.6566  0.5072 -0.6503
 7063TIP3    H245385   5.829   1.247   3.584  0.4529  1.4720  0.0410
 7064TIP3   OH245386   2.233   5.762   3.980  0.6052 -0.6994 -0.2101
 7064TIP3    H145387   2.204   5.809   4.058  0.4366 -0.9252 -0.1367
 7064TIP3    H245388   2.292   5.824   3.935 -0.0138 -0.2242 -0.3840
 7065TIP3   OH245389   5.710   5.092   2.645  0.3939 -0.1635 -0.4643
 7065TIP3    H145390   5.628   5.052   2.675  0.5570 -0.8297 -0.8914
 7065TIP3    H245391   5.716   5.173   2.695  1.0913 -1.6234  2.0158
 7066TIP3   OH245392   3.983   0.804   4.270  0.5468  0.6381 -0.3088
 7066TIP3    H145393   4.036   0.873   4.311  0.4428 -0.2487  1.4188
 7066TIP3    H245394   4.016   0.723   4.308 -0.0830 -0.1733 -1.4545
 7067TIP3   OH245395   7.550   1.495   2.593 -0.7945 -0.2225  0.0497
 7067TIP3    H145396   7.501   1.544   2.659  2.3880  3.6587 -0.0582
 7067TIP3    H245397   7.584   1.419   2.639 -0.7306  1.0563  2.2339
 7068TIP3   OH245398   0.497   6.095   3.589 -0.2957 -0.0863  0.1242
 7068TIP3    H145399   0.508   6.063   3.499 -0.5533 -0.1435  0.1109
 7068TIP3    H245400   0.581   6.135   3.611  0.0637 -0.8515  0.1775
 7069TIP3   OH245401   6.935   6.951   3.557  0.2892 -0.4614  0.6024
 7069TIP3    H145402   6.903   6.980   3.472  1.2904 -1.0899 -0.0162
 7069TIP3    H245403   7.030   6.964   3.553  0.3064 -0.1403  1.7696
 7070TIP3   OH245404   4.884   1.125   4.238 -0.2383 -0.2887 -0.2298
 7070TIP3    H145405   4.883   1.176   4.156 -0.3774 -0.9245 -0.6332
 7070TIP3    H245406   4.945   1.172   4.295 -1.8132  1.4657  0.1413
 7071TIP3   OH245407   2.755   5.577   3.788  0.1763 -0.0400  0.5876
 7071TIP3    H145408   2.812   5.645   3.825  1.7448 -1.7040  1.3410
 7071TIP3    H245409   2.786   5.565   3.699 -0.7250  0.8616  0.1333
 7072TIP3   OH245410   6.353   5.090   2.927  0.0582 -0.0440  0.5523
 7072TIP3    H145411   6.440   5.075   2.965 -0.8181  0.2419  2.8581
 7072TIP3    H245412   6.294   5.088   3.002 -2.2503 -2.3530 -1.1499
 7073TIP3   OH245413   4.008   7.155   4.730 -0.8565  0.6033 -1.0540
 7073TIP3    H145414   3.948   7.096   4.685 -0.0916 -0.4425 -0.7508
 7073TIP3    H245415   3.956   7.193   4.801 -1.1590 -0.3474 -0.7438
 7074TIP3   OH245416   0.605   0.402   4.183 -0.7070  0.2842 -0.0371
 7074TIP3    H145417   0.669   0.465   4.216  0.9751 -1.1986 -0.3554
 7074TIP3    H245418   0.652   0.353   4.115 -1.5148 -2.1985  1.0794
 7075TIP3   OH245419   4.243   2.178   3.154 -0.0353 -0.3032 -0.4318
 7075TIP3    H145420   4.221   2.237   3.082 -2.3754  0.2197  0.6445
 7075TIP3    H245421   4.263   2.236   3.227 -1.3911 -0.7927  0.3614
 7076TIP3   OH245422   3.018   2.330   4.205  0.3433 -0.6499  0.5197
 7076TIP3    H145423   3.025   2.423   4.227 -0.2742 -0.9394  2.0129
 7076TIP3    H245424   3.109   2.299   4.203  0.8468  0.5339 -2.8255
 7077TIP3   OH245425   5.747   2.857   3.467  0.4352  0.2860  0.1735
 7077TIP3    H145426   5.747   2.793   3.396 -2.6610  0.5941 -0.2285
 7077TIP3    H245427   5.762   2.941   3.425  0.7104  0.2481  0.1923
 7078TIP3   OH245428   4.941   1.353   2.953 -0.5433 -0.1255  0.0357
 7078TIP3    H145429   4.971   1.441   2.933  0.0157 -0.4595 -0.6262
 7078TIP3    H245430   4.846   1.357   2.942 -0.4704  0.2722 -0.4832
 7079TIP3   OH245431   6.236   1.072   3.805 -0.0115  0.5255  0.2187
 7079TIP3    H145432   6.238   1.157   3.761  0.2744 -0.1640 -1.1418
 7079TIP3    H245433   6.288   1.015   3.749  0.5868 -0.3413  1.5890
 7080TIP3   OH245434   5.563   5.880   4.462 -0.1861  0.0405 -0.1223
 7080TIP3    H145435   5.544   5.796   4.421 -0.5193  0.2433 -0.3931
 7080TIP3    H245436   5.627   5.860   4.529  0.1223 -0.3508 -0.5276
 7081TIP3   OH245437   7.307   5.677   3.035 -0.1835  0.4881  0.8141
 7081TIP3    H145438   7.298   5.651   2.944  1.3147  0.5874  0.6063
 7081TIP3    H245439   7.336   5.768   3.031 -2.2717  1.2445  1.4698
 7082TIP3   OH245440   3.640   2.493   2.199 -0.0617 -0.3289  0.2439
 7082TIP3    H145441   3.684   2.542   2.268 -0.5575  0.0750  0.2845
 7082TIP3    H245442   3.645   2.550   2.122 -2.4119  0.7698  0.7862
 7083TIP3   OH245443   5.335   0.072   4.301 -0.3362  0.1561 -0.1785
 7083TIP3    H145444   5.396   0.093   4.230 -0.7040  0.4919 -0.3986
 7083TIP3    H245445   5.380   0.100   4.381 -1.6826  4.0616 -0.5706
 7084TIP3   OH245446   5.152   1.566   3.996 -0.0849 -0.0384 -0.5571
 7084TIP3    H145447   5.217   1.542   4.061 -0.6313  0.2615  0.1150
 7084TIP3    H245448   5.130   1.484   3.952 -1.1606 -0.6281  0.9977
 7085TIP3   OH245449   7.555   7.402   3.029 -0.1338 -1.0643 -0.2034
 7085TIP3    H145450   7.517   7.480   3.070 -1.4008 -0.2077 -2.7773
 7085TIP3    H245451   7.562   7.338   3.099  0.5764  1.2045  1.9393
 7086TIP3   OH245452   0.205   2.429   4.207  0.4694 -0.1037 -0.2103
 7086TIP3    H145453   0.116   2.407   4.179 -0.6033  1.8867  1.3930
 7086TIP3    H245454   0.241   2.347   4.240  0.3701 -1.6397 -3.4921
 7087TIP3   OH245455   0.796   2.457   3.162  0.5582  0.0765  0.1953
 7087TIP3    H145456   0.835   2.497   3.239  2.0132 -2.4310  0.8899
 7087TIP3    H245457   0.869   2.449   3.100 -0.1648  0.4006 -0.7134
 7088TIP3   OH245458   3.551   7.547   2.911  0.3052  0.1735 -0.1151
 7088TIP3    H145459   3.493   7.622   2.905  0.3297  0.1399 -0.7531
 7088TIP3    H245460   3.545   7.504   2.826 -2.1449 -2.3774  1.1739
 7089TIP3   OH245461   0.068   5.142   3.807  0.0267  0.1496 -0.0654
 7089TIP3    H145462  -0.015   5.148   3.853 -1.0566  1.8107 -2.1109
 7089TIP3    H245463   0.072   5.051   3.776 -0.5842 -0.1730  0.7707
 7090TIP3   OH245464   1.257   2.535   4.171 -0.3804  0.2309  0.1346
 7090TIP3    H145465   1.209   2.549   4.253  1.2581  2.1056  0.8647
 7090TIP3    H245466   1.268   2.440   4.165 -1.0266  0.0167  1.7935
 7091TIP3   OH245467   6.357   7.247   2.894 -0.4577  0.0313  0.0970
 7091TIP3    H145468   6.414   7.171   2.905  0.8956  1.1460  1.3287
 7091TIP3    H245469   6.268   7.212   2.898  0.1268 -1.4815  0.5831
 7092TIP3   OH245470   0.734   2.429   3.920 -0.2468 -0.1205  0.0296
 7092TIP3    H145471   0.817   2.416   3.874 -0.1865 -2.3435  0.6522
 7092TIP3    H245472   0.678   2.473   3.856  0.4751 -1.2957 -1.4809
 7093TIP3   OH245473   0.018   1.469   3.000 -0.4081 -0.3951 -0.1855
 7093TIP3    H145474  -0.012   1.557   2.980  1.0870  0.5131  1.3100
 7093TIP3    H245475  -0.015   1.450   3.087  2.0377  0.1030  0.9381
 7094TIP3   OH245476   0.120   4.439   3.980  0.0160  0.2532  0.6954
 7094TIP3    H145477   0.117   4.381   4.056  1.2682  1.2363  1.5456
 7094TIP3    H245478   0.106   4.526   4.016  1.0983  0.7912 -0.1078
 7095TIP3   OH245479   4.459   4.157   3.520 -0.9707  0.5185  0.2976
 7095TIP3    H145480   4.480   4.249   3.538 -0.5901  1.0177 -2.2704
 7095TIP3    H245481   4.364   4.153   3.526 -1.0148  1.1701  0.1622
 7096TIP3   OH245482   2.051   6.562   2.934 -0.5972 -0.0541  0.0432
 7096TIP3    H145483   2.055   6.474   2.896  1.7367 -0.3823  0.9276
 7096TIP3    H245484   2.030   6.547   3.026  1.0110  0.1765  0.4767
 7097TIP3   OH245485   1.513   0.845   4.764  0.4513  0.1375  0.0873
 7097TIP3    H145486   1.490   0.791   4.840 -0.3787  0.5230  0.1259
 7097TIP3    H245487   1.480   0.932   4.785 -1.2987 -0.1021 -1.3864
 7098TIP3   OH245488   5.329   6.120   3.276 -1.0015 -0.0432 -0.8825
 7098TIP3    H145489   5.349   6.096   3.186  0.4354  0.6957 -0.8019
 7098TIP3    H245490   5.264   6.056   3.305 -1.3225 -0.4110 -2.3646
 7099TIP3   OH245491   6.847   5.097   3.026  0.1075  0.2831 -0.0036
 7099TIP3    H145492   6.844   5.028   2.960  0.2419  1.3057 -1.1299
 7099TIP3    H245493   6.758   5.104   3.059 -0.6060  1.4841 -1.9886
 7100TIP3   OH245494   0.916   5.112   3.125 -0.3990 -0.1769 -0.0211
 7100TIP3    H145495   0.953   5.169   3.058  1.2678  1.0003  1.7912
 7100TIP3    H245496   0.944   5.024   3.100  0.4213  0.2711 -0.7148
 7101TIP3   OH245497   7.632   6.443   2.907 -0.8275  0.4212 -0.0093
 7101TIP3    H145498   7.721   6.467   2.934 -0.7217 -0.2460  0.2682
 7101TIP3    H245499   7.575   6.485   2.972 -0.5860 -0.9712  1.1785
 7102TIP3   OH245500   6.845   7.617   4.070  0.0367  0.8987 -0.1085
 7102TIP3    H145501   6.855   7.695   4.014 -1.0724  0.9638 -0.2380
 7102TIP3    H245502   6.918   7.622   4.131  1.5100  0.6505 -1.7483
 7103TIP3   OH245503   6.398   2.094   2.543 -0.3456  0.2750 -0.4073
 7103TIP3    H145504   6.360   2.011   2.574 -0.2239  0.8497  1.3953
 7103TIP3    H245505   6.323   2.143   2.508 -0.6273 -0.0918 -0.3214
 7104TIP3   OH245506   5.125   7.197   2.016 -0.2463  0.6493 -0.2202
 7104TIP3    H145507   5.109   7.291   2.011 -0.9524  0.5858  0.6675
 7104TIP3    H245508   5.122   7.167   1.925 -1.8979  1.1949 -0.3690
 7105TIP3   OH245509   0.863   7.261   4.454  0.1462 -0.0241  0.3284
 7105TIP3    H145510   0.897   7.245   4.542  2.0667 -2.5153 -0.7247
 7105TIP3    H245511   0.891   7.351   4.434  2.6169 -0.5269  1.1177
 7106TIP3   OH245512   1.700   2.066   3.415 -0.1814  0.1584 -0.4843
 7106TIP3    H145513   1.721   2.141   3.470 -1.8958 -0.5889  1.2944
 7106TIP3    H245514   1.780   2.049   3.365  1.1404  1.4449  1.1071
 7107TIP3   OH245515   5.768   7.202   4.924 -0.2043 -0.0067  0.6282
 7107TIP3    H145516   5.733   7.289   4.905 -1.4590 -0.6056  0.0972
 7107TIP3    H245517   5.772   7.159   4.839 -3.1551 -1.7367  1.2536
 7108TIP3   OH245518   6.495   6.595   4.915 -0.0435  0.0002  0.0352
 7108TIP3    H145519   6.433   6.659   4.881 -0.2107  0.7589  1.6762
 7108TIP3    H245520   6.576   6.613   4.869 -0.3956  0.6242 -0.3494
 7109TIP3   OH245521   3.729   6.601   4.964 -0.7720 -0.4286 -0.9102
 7109TIP3    H145522   3.640   6.631   4.947 -0.8793  2.6501  3.5002
 7109TIP3    H245523   3.781   6.681   4.969  0.9013 -1.5275  2.3961
 7110TIP3   OH245524   3.079   1.066   2.912 -0.3816  0.4253  0.2029
 7110TIP3    H145525   3.023   1.037   2.840 -0.2467  0.0786  0.2339
 7110TIP3    H245526   3.033   1.038   2.991 -0.6089  0.9497  0.2569
 7111TIP3   OH245527   4.644   3.060   3.311 -0.2316  0.3800 -0.1494
 7111TIP3    H145528   4.590   3.046   3.234 -0.3945  0.4983 -0.0580
 7111TIP3    H245529   4.730   3.084   3.277 -0.1785 -0.0040 -0.2982
 7112TIP3   OH245530   3.811   6.548   2.207 -0.2809 -0.8192  0.2329
 7112TIP3    H145531   3.717   6.546   2.224 -0.1243 -3.2169  1.2530
 7112TIP3    H245532   3.848   6.584   2.288 -0.2708 -0.9189  0.2736
 7113TIP3   OH245533   6.043   6.337   3.638 -0.0998  0.1625  0.3585
 7113TIP3    H145534   6.041   6.315   3.545  0.4633  0.5637  0.2440
 7113TIP3    H245535   6.116   6.287   3.674  0.3780  0.8396  0.3546
 7114TIP3   OH245536   5.038   0.870   3.131  0.0214  0.0816 -0.0127
 7114TIP3    H145537   5.006   0.845   3.044 -0.4953  0.4752  0.0647
 7114TIP3    H245538   5.122   0.913   3.113 -0.1111  0.2192 -0.3249
 7115TIP3   OH245539   1.891   0.592   4.978  0.4297 -0.2265 -0.9015
 7115TIP3    H145540   1.844   0.670   4.949  0.8203 -0.2630 -1.6560
 7115TIP3    H245541   1.980   0.623   4.996  0.3991 -0.3607 -0.5024
 7116TIP3   OH245542   3.384   2.458   1.933  0.4412 -0.0300 -0.2890
 7116TIP3    H145543   3.410   2.519   2.003  0.5663 -1.7479  1.2268
 7116TIP3    H245544   3.317   2.506   1.884  1.4540  1.8204  0.0238
 7117TIP3   OH245545   4.892   1.914   3.714  0.0972 -0.3392 -0.0801
 7117TIP3    H145546   4.809   1.961   3.724  0.3534  0.3737 -1.1145
 7117TIP3    H245547   4.869   1.834   3.667  0.0591  0.0801 -0.7814
 7118TIP3   OH245548   0.855   7.115   3.384  0.2682  0.1204  0.1278
 7118TIP3    H145549   0.774   7.165   3.389 -0.6020 -1.1726 -0.5044
 7118TIP3    H245550   0.919   7.176   3.349 -0.1574  1.4584  1.5856
 7119TIP3   OH245551   4.968   0.776   3.613  0.1065  0.4520  0.1561
 7119TIP3    H145552   4.980   0.749   3.522 -1.0283  0.5154 -0.0304
 7119TIP3    H245553   5.056   0.790   3.646  0.5275  0.4858 -0.9503
 7120TIP3   OH245554   7.230   1.271   2.801  0.6780 -0.0889 -0.3784
 7120TIP3    H145555   7.283   1.246   2.725  1.1330 -0.0186 -0.0883
 7120TIP3    H245556   7.282   1.242   2.876  1.2247  1.7200 -0.0258
 7121TIP3   OH245557   3.728   3.280   3.463 -0.1165 -0.7481  0.2628
 7121TIP3    H145558   3.771   3.358   3.428  0.2342 -0.8248  0.5166
 7121TIP3    H245559   3.671   3.249   3.392  1.5121 -1.6241 -0.7066
 7122TIP3   OH245560   4.751   5.313   2.221  0.2915  0.1949  0.2868
 7122TIP3    H145561   4.704   5.364   2.287  1.4573  1.9231 -0.1538
 7122TIP3    H245562   4.732   5.356   2.138  0.3776 -0.7951 -0.2620
 7123TIP3   OH245563   2.296   3.495   4.143  0.4877  0.2282  0.4010
 7123TIP3    H145564   2.369   3.490   4.205 -0.1980 -0.5321  1.1801
 7123TIP3    H245565   2.281   3.404   4.117  0.9497  0.5702 -1.1226
 7124TIP3   OH245566   5.203   7.260   3.732  0.8897  0.0737 -0.1048
 7124TIP3    H145567   5.247   7.319   3.794 -1.2282 -0.0532  1.6262
 7124TIP3    H245568   5.132   7.220   3.783  1.8963 -3.6471 -1.3302
 7125TIP3   OH245569   1.633   6.837   3.080  0.1695  0.2578  0.2778
 7125TIP3    H145570   1.631   6.932   3.077 -0.0326  0.2512  0.1998
 7125TIP3    H245571   1.724   6.815   3.103  0.9385  0.4064 -2.2404
 7126TIP3   OH245572   4.428   1.045   3.420  0.0155  0.0934 -0.3049
 7126TIP3    H145573   4.473   1.077   3.341  0.3654 -0.5285 -0.3649
 7126TIP3    H245574   4.371   1.117   3.446  1.7105  1.2779  0.2840
 7127TIP3   OH245575   3.950   1.206   3.550 -0.1607  0.1009 -0.4407
 7127TIP3    H145576   3.931   1.129   3.497  1.1021 -0.1363 -0.5843
 7127TIP3    H245577   4.026   1.180   3.603 -0.0795  1.0452 -0.0840
 7128TIP3   OH245578   7.643   0.576   2.420  0.3142  0.3395 -0.2239
 7128TIP3    H145579   7.616   0.579   2.329 -0.6605  0.8522  0.0634
 7128TIP3    H245580   7.630   0.665   2.452 -1.8577 -0.3797  1.0849
 7129TIP3   OH245581   1.967   5.369   2.576 -0.1189  0.1736 -0.6989
 7129TIP3    H145582   2.027   5.323   2.517 -0.0305 -0.0313 -0.4491
 7129TIP3    H245583   1.896   5.308   2.591  0.5483 -0.3326  0.5367
 7130TIP3   OH245584   6.869   1.063   3.201 -0.2388 -0.3681 -0.0608
 7130TIP3    H145585   6.931   1.013   3.148  1.6468  1.8883 -0.1117
 7130TIP3    H245586   6.815   1.109   3.138  0.4047  0.4303 -0.0383
 7131TIP3   OH245587   5.697   6.983   3.427  0.1866  0.1910  0.0198
 7131TIP3    H145588   5.790   6.964   3.440 -0.3141 -0.9899  2.3430
 7131TIP3    H245589   5.654   6.897   3.433 -1.3354  1.0173  2.2838
 7132TIP3   OH245590   5.219   1.696   4.337 -0.1910  0.2577 -0.1952
 7132TIP3    H145591   5.213   1.782   4.378  0.7750  1.0692 -1.6350
 7132TIP3    H245592   5.130   1.662   4.338 -0.4642  0.9566  1.0246
 7133TIP3   OH245593   2.225   5.003   2.876  0.3065  0.0532  0.1665
 7133TIP3    H145594   2.211   5.058   2.953 -0.9298 -1.8983  1.4395
 7133TIP3    H245595   2.156   5.030   2.815 -1.0140 -0.7424  1.2274
 7134TIP3   OH245596   1.745   3.984   3.739 -0.3572 -0.1606  0.0282
 7134TIP3    H145597   1.749   3.962   3.646  2.0539  0.6612 -0.1245
 7134TIP3    H245598   1.800   4.062   3.748  0.0717 -0.6518  2.2625
 7135TIP3   OH245599   5.190   5.716   4.633 -0.1596  0.1051  0.1619
 7135TIP3    H145600   5.148   5.666   4.703 -1.5139  0.3498 -0.4577
 7135TIP3    H245601   5.152   5.682   4.552  0.2256  0.9073 -0.3706
 7136TIP3   OH245602   4.925   4.491   3.197 -0.2995 -0.5632  0.1561
 7136TIP3    H145603   4.944   4.452   3.111  0.7466 -0.8580  0.5032
 7136TIP3    H245604   4.999   4.464   3.252 -0.5252  0.3420  0.9199
 7137TIP3   OH245605   0.270   2.800   4.977 -0.1134 -0.7536  0.1052
 7137TIP3    H145606   0.206   2.742   5.019 -0.1959 -1.8122 -1.4257
 7137TIP3    H245607   0.220   2.879   4.957 -0.3709 -0.7050  0.8842
 7138TIP3   OH245608   3.185   2.603   3.369  0.1309 -0.2339  0.1317
 7138TIP3    H145609   3.162   2.611   3.461 -1.4713  0.0382 -0.2551
 7138TIP3    H245610   3.267   2.652   3.360 -0.8032  1.5891  1.0158
 7139TIP3   OH245611   7.670   5.222   3.525 -0.0548  0.3453 -0.1521
 7139TIP3    H145612   7.606   5.291   3.541 -0.0343  0.2817  0.2092
 7139TIP3    H245613   7.692   5.188   3.612  0.0430 -0.0183 -0.3148
 7140TIP3   OH245614   7.160   1.987   3.170 -0.1465 -0.5130  0.3235
 7140TIP3    H145615   7.171   2.081   3.154 -0.6319 -0.1626  1.8603
 7140TIP3    H245616   7.065   1.975   3.174 -0.0860 -1.0944  0.0319
 7141TIP3   OH245617   1.063   2.923   2.409  0.1494  0.3377 -0.1019
 7141TIP3    H145618   1.112   2.992   2.455  0.2101  0.4512 -0.3336
 7141TIP3    H245619   0.985   2.967   2.377  1.1210  0.8141 -1.9812
 7142TIP3   OH245620   3.549   4.462   2.424  0.0079 -0.5982 -0.2104
 7142TIP3    H145621   3.520   4.551   2.444  0.1587 -0.3114 -1.2371
 7142TIP3    H245622   3.495   4.435   2.350  0.1851 -1.2503 -0.1091
 7143TIP3   OH245623   7.477   6.638   2.511  0.1972 -0.4982  0.1575
 7143TIP3    H145624   7.535   6.576   2.557  0.0766 -0.1492  0.7855
 7143TIP3    H245625   7.515   6.724   2.529  0.4003 -0.3864 -0.7712
 7144TIP3   OH245626   4.800   2.845   2.578 -0.2441  0.1175  0.3482
 7144TIP3    H145627   4.746   2.769   2.553  0.4759 -0.4291  0.4110
 7144TIP3    H245628   4.748   2.921   2.552 -0.0851 -0.4060 -1.7056
 7145TIP3   OH245629   2.666   5.676   2.076 -0.1491  0.0689 -0.5345
 7145TIP3    H145630   2.690   5.593   2.117  0.1069 -0.0612 -0.9378
 7145TIP3    H245631   2.578   5.662   2.042 -1.1446  0.7796  1.5870
 7146TIP3   OH245632   2.931   2.071   4.132 -0.5253 -0.1909 -0.1284
 7146TIP3    H145633   2.927   2.164   4.155 -0.9016  0.0659 -1.1546
 7146TIP3    H245634   3.022   2.056   4.106 -0.0629 -0.5156  1.5592
 7147TIP3   OH245635   4.108   6.971   3.091  0.0282  0.1996 -0.2899
 7147TIP3    H145636   4.076   6.882   3.077  1.5545 -0.4842  0.3295
 7147TIP3    H245637   4.047   7.009   3.154  0.3325 -1.0285  0.7813
 7148TIP3   OH245638   5.783   1.462   4.240  0.0492  0.3340  0.1964
 7148TIP3    H145639   5.777   1.533   4.303 -1.1171  0.7908 -0.4151
 7148TIP3    H245640   5.827   1.391   4.289 -2.5604 -0.0546  2.1990
 7149TIP3   OH245641   5.374   2.210   2.523 -0.5256  0.2627 -0.0718
 7149TIP3    H145642   5.385   2.122   2.559  0.7027 -0.0252 -1.0722
 7149TIP3    H245643   5.281   2.216   2.501 -0.6408 -0.7372  0.1189
 7150TIP3   OH245644   5.508   0.511   2.141 -0.5804 -0.9690 -0.0547
 7150TIP3    H145645   5.546   0.511   2.053 -1.1405 -0.5039 -0.3040
 7150TIP3    H245646   5.548   0.586   2.185 -0.6427 -0.9259 -0.0704
 7151TIP3   OH245647   3.105   5.145   2.655  0.0203 -0.6960 -0.2486
 7151TIP3    H145648   3.111   5.190   2.571  0.9915 -0.9905 -0.3507
 7151TIP3    H245649   3.129   5.055   2.636  0.8493 -0.6407  0.4267
 7152TIP3   OH245650   7.675   2.239   3.917  0.1173 -0.5731  0.5306
 7152TIP3    H145651   7.741   2.172   3.937  0.8896  0.2506  0.8369
 7152TIP3    H245652   7.685   2.256   3.824  1.8987  1.1188  0.9762
 7153TIP3   OH245653   4.973   2.066   4.700 -0.0538  0.0151  0.8653
 7153TIP3    H145654   4.917   2.037   4.628 -0.5105  1.3186  0.6624
 7153TIP3    H245655   5.031   2.132   4.661  0.4541 -0.0838  1.4457
 7154TIP3   OH245656   1.347   6.309   3.956  0.0267 -0.0968  0.4756
 7154TIP3    H145657   1.424   6.297   3.900  1.1339  1.0653  1.6578
 7154TIP3    H245658   1.341   6.404   3.968 -1.6253 -0.1735  0.3944
 7155TIP3   OH245659   5.272   1.226   4.058  0.1940 -0.0502 -0.1657
 7155TIP3    H145660   5.222   1.210   4.138  1.1494 -1.5056  0.1835
 7155TIP3    H245661   5.325   1.147   4.047 -0.8002 -0.4457 -2.9200
 7156TIP3   OH245662   2.308   0.324   2.381  0.1599  0.0987  0.5732
 7156TIP3    H145663   2.367   0.393   2.350 -1.0931  0.3457 -1.4726
 7156TIP3    H245664   2.258   0.299   2.303 -0.3069 -2.2585  1.5401
 7157TIP3   OH245665   2.177   5.173   4.091  0.0841 -0.2653  0.1482
 7157TIP3    H145666   2.099   5.118   4.101 -0.2268  0.2927  0.8676
 7157TIP3    H245667   2.175   5.232   4.166  0.8401  0.2080 -0.1894
 7158TIP3   OH245668   7.110   5.114   3.132 -0.1885  0.7754 -0.4127
 7158TIP3    H145669   7.166   5.053   3.084 -1.6533 -2.0627  1.2580
 7158TIP3    H245670   7.028   5.115   3.083 -1.1429 -0.9232  1.0167
 7159TIP3   OH245671   5.287   5.454   2.238 -0.2426 -0.0359 -0.3285
 7159TIP3    H145672   5.200   5.414   2.230 -0.8987  1.1058  0.7499
 7159TIP3    H245673   5.272   5.534   2.288  1.6188 -0.4435  0.9810
 7160TIP3   OH245674   7.201   3.241   4.702  0.4470 -0.0190  0.0016
 7160TIP3    H145675   7.142   3.186   4.753  1.1785  0.4177  1.3720
 7160TIP3    H245676   7.245   3.180   4.643 -0.1385 -0.5968  0.1426
 7161TIP3   OH245677   6.098   0.839   2.834 -0.3013 -0.2777  0.0191
 7161TIP3    H145678   6.172   0.860   2.777  0.3570  0.1055  0.9982
 7161TIP3    H245679   6.042   0.916   2.830 -1.0432 -0.8569 -1.3043
 7162TIP3   OH245680   3.867   7.198   2.647  0.0690  0.2697 -0.0761
 7162TIP3    H145681   3.843   7.216   2.737 -0.3396 -0.8006  0.0487
 7162TIP3    H245682   3.899   7.281   2.613  1.5896  0.3553  1.4717
 7163TIP3   OH245683   0.546   6.489   2.642  0.2691  0.0077  0.6617
 7163TIP3    H145684   0.635   6.523   2.640 -0.3967  1.8422 -0.5203
 7163TIP3    H245685   0.511   6.519   2.726 -0.5450  3.1888 -0.6510
 7164TIP3   OH245686   5.976   2.519   2.397 -0.2439 -0.1138  0.0461
 7164TIP3    H145687   5.951   2.490   2.485 -1.8072 -1.9063 -0.9153
 7164TIP3    H245688   5.895   2.510   2.345  0.8917 -0.0969 -1.8097
 7165TIP3   OH245689   1.795   3.437   3.823 -0.2823  0.0323  0.2849
 7165TIP3    H145690   1.874   3.460   3.872 -1.2373  0.8158  1.4946
 7165TIP3    H245691   1.796   3.341   3.819 -0.1103 -0.0463  1.7318
 7166TIP3   OH245692   4.603   5.619   4.695 -0.0061  0.7349 -0.4295
 7166TIP3    H145693   4.685   5.651   4.731 -1.0914  3.0454  0.1415
 7166TIP3    H245694   4.628   5.541   4.645  2.1708  0.0144  1.6030
 7167TIP3   OH245695   7.555   2.944   3.479  0.6875 -0.7741  0.3482
 7167TIP3    H145696   7.476   2.997   3.483  2.0867  1.5983 -1.0032
 7167TIP3    H245697   7.586   2.939   3.569  0.3557  0.5272  0.5454
 7168TIP3   OH245698   6.372   0.743   2.355  0.0329  0.5389  0.3869
 7168TIP3    H145699   6.348   0.688   2.281 -0.1802  1.2322 -0.0644
 7168TIP3    H245700   6.397   0.681   2.424  2.1016 -0.0859 -0.8591
 7169TIP3   OH245701   3.776   0.301   4.308  0.2207  0.0922 -0.0021
 7169TIP3    H145702   3.835   0.308   4.233  0.4794 -1.4993  0.0217
 7169TIP3    H245703   3.821   0.348   4.379  1.2997 -0.7630 -0.0946
 7170TIP3   OH245704   2.976   4.083   3.094  0.4642  0.3840 -0.0379
 7170TIP3    H145705   2.900   4.076   3.036 -0.2524 -1.1859  1.0139
 7170TIP3    H245706   2.949   4.036   3.173  2.3138  0.3546  0.6054
 7171TIP3   OH245707   0.948   7.537   3.525  0.0503 -0.8304 -0.5506
 7171TIP3    H145708   0.910   7.605   3.581 -1.0145 -2.0221  0.2608
 7171TIP3    H245709   1.027   7.577   3.488 -1.2600  1.3100 -1.2407
 7172TIP3   OH245710   1.799   1.460   3.482 -0.5146  0.1206 -0.6020
 7172TIP3    H145711   1.888   1.426   3.492 -0.2718  0.5336 -1.3197
 7172TIP3    H245712   1.810   1.542   3.434 -1.0999  1.1641  0.9611
 7173TIP3   OH245713   3.833   5.082   4.165  0.0597  0.4245 -0.4786
 7173TIP3    H145714   3.919   5.122   4.173  0.3390 -0.3728  0.7484
 7173TIP3    H245715   3.835   5.038   4.079  0.6708  0.8563 -0.6887
 7174TIP3   OH245716   2.483   3.607   3.905  0.2164 -0.3973  0.3595
 7174TIP3    H145717   2.409   3.553   3.931  0.5083 -0.4167  1.1827
 7174TIP3    H245718   2.552   3.545   3.882 -0.4958 -0.4145 -1.9608
 7175TIP3   OH245719   1.044   3.075   2.754 -0.0806  0.0048  0.2094
 7175TIP3    H145720   1.006   2.996   2.716 -0.2337 -1.1315  2.5352
 7175TIP3    H245721   1.095   3.114   2.683  0.6119 -2.5814 -0.8074
 7176TIP3   OH245722   5.881   3.442   3.847 -0.3090  0.1284 -0.2573
 7176TIP3    H145723   5.880   3.378   3.918 -2.1546  0.0168 -0.3463
 7176TIP3    H245724   5.964   3.488   3.858 -0.9730  0.7940  2.5948
 7177TIP3   OH245725   2.352   7.558   3.138 -0.4623 -0.4051  0.3984
 7177TIP3    H145726   2.270   7.522   3.105 -0.4500 -0.3997  0.3621
 7177TIP3    H245727   2.420   7.510   3.090 -0.4494  0.8592 -0.9263
 7178TIP3   OH245728   0.368   1.011   3.400  0.2574  0.2544 -0.6065
 7178TIP3    H145729   0.424   1.050   3.468 -1.9842  0.8003  1.0268
 7178TIP3    H245730   0.382   0.917   3.409  0.1896  0.3308  0.4527
 7179TIP3   OH245731   4.580   0.307   3.200  0.0827  0.2988  0.3696
 7179TIP3    H145732   4.661   0.261   3.177 -0.8690 -0.9733 -0.6478
 7179TIP3    H245733   4.511   0.242   3.184 -1.0769  1.0197  2.1535
 7180TIP3   OH245734   6.874   4.528   2.927  0.0493  0.1147  0.5465
 7180TIP3    H145735   6.800   4.589   2.932  0.0799  0.3361 -1.0930
 7180TIP3    H245736   6.853   4.460   2.991 -0.5461  1.2288  1.6014
 7181TIP3   OH245737   3.110   3.561   2.480  0.0666 -0.3193  0.4026
 7181TIP3    H145738   3.119   3.603   2.565 -2.1081  0.1168  0.4579
 7181TIP3    H245739   3.171   3.487   2.484  3.7042  2.3965  0.4678
 7182TIP3   OH245740   5.569   5.481   2.172  0.1266 -0.2136 -0.1083
 7182TIP3    H145741   5.474   5.474   2.175  0.1123  0.3220  1.7198
 7182TIP3    H245742   5.586   5.572   2.149  0.1826  0.0241  0.8578
 7183TIP3   OH245743   7.625   2.983   3.748 -0.6075  0.5952 -0.3701
 7183TIP3    H145744   7.637   3.052   3.683  0.5005  2.2225  1.4653
 7183TIP3    H245745   7.710   2.974   3.790 -1.4893  0.2578  1.4537
 7184TIP3   OH245746   1.015   6.020   3.205  0.4861 -0.0128  0.3455
 7184TIP3    H145747   0.929   5.981   3.187  0.8173 -0.8019  0.4500
 7184TIP3    H245748   1.077   5.963   3.161  0.8923  1.2248 -0.7414
 7185TIP3   OH245749   4.883   7.043   4.160  0.1772 -0.3395 -0.7228
 7185TIP3    H145750   4.824   6.993   4.216 -1.0128  0.6008 -1.0981
 7185TIP3    H245751   4.926   7.104   4.220  0.0387 -0.3660 -0.5945
 7186TIP3   OH245752   6.601   6.731   2.970  0.2456 -0.3219  0.0020
 7186TIP3    H145753   6.655   6.751   2.894  1.2523 -0.9493  0.5338
 7186TIP3    H245754   6.516   6.707   2.933  0.7471 -0.6950 -0.9406
 7187TIP3   OH245755   5.202   0.455   4.703 -0.3003 -0.4213  0.3528
 7187TIP3    H145756   5.141   0.515   4.746  0.5733  0.7752 -0.0394
 7187TIP3    H245757   5.151   0.376   4.689 -1.5373  0.2804  0.7173
 7188TIP3   OH245758   2.353   2.352   4.379  0.5742  0.0684 -0.0606
 7188TIP3    H145759   2.421   2.396   4.430  0.5279  0.3571 -0.2451
 7188TIP3    H245760   2.367   2.258   4.396  1.2150  0.1053 -0.3408
 7189TIP3   OH245761   3.883   1.819   3.590 -0.2179  0.2628  0.0169
 7189TIP3    H145762   3.932   1.767   3.653  0.4827 -2.2932 -2.4148
 7189TIP3    H245763   3.948   1.846   3.525 -1.1720  1.3770 -0.5224
 7190TIP3   OH245764   6.551   6.693   4.194  0.0059 -0.1215  0.3211
 7190TIP3    H145765   6.594   6.716   4.277  0.3840  0.7587 -0.1035
 7190TIP3    H245766   6.618   6.643   4.146 -0.3140 -0.8848  0.6539
 7191TIP3   OH245767   5.758   1.393   3.956 -0.4666  0.1333  0.3146
 7191TIP3    H145768   5.778   1.434   4.040 -2.0990 -0.6210  1.1222
 7191TIP3    H245769   5.699   1.320   3.978 -0.6352 -0.3166 -1.4443
 7192TIP3   OH245770   6.882   2.682   3.634 -0.2810  0.0280  0.2796
 7192TIP3    H145771   6.914   2.770   3.615  1.3131 -0.4806  0.4517
 7192TIP3    H245772   6.901   2.669   3.727  0.1413 -0.7524  0.0916
 7193TIP3   OH245773   4.048   4.502   2.119 -0.3761  0.3668  0.0908
 7193TIP3    H145774   4.103   4.578   2.101  0.2450  0.6712  2.8317
 7193TIP3    H245775   3.971   4.538   2.164 -0.5859 -0.5079  0.4533
 7194TIP3   OH245776   0.598   3.331   2.977  0.6637  0.3529 -0.1538
 7194TIP3    H145777   0.540   3.354   3.050  1.3987  0.3979  0.4240
 7194TIP3    H245778   0.574   3.242   2.955 -0.0994  0.6059 -0.3784
 7195TIP3   OH245779   6.401   1.170   4.176 -0.4613  0.8249 -0.3287
 7195TIP3    H145780   6.323   1.176   4.230  0.2494 -0.4037  0.8820
 7195TIP3    H245781   6.426   1.078   4.178  0.7209  1.0923 -1.1204
 7196TIP3   OH245782   4.692   4.971   3.167 -0.0987  0.2258 -0.2528
 7196TIP3    H145783   4.733   4.885   3.174  0.8868  0.6409 -0.7639
 7196TIP3    H245784   4.676   4.997   3.257  1.7266  0.4897  0.0322
 7197TIP3   OH245785   1.484   0.627   3.113 -0.3406  0.6240  0.1982
 7197TIP3    H145786   1.453   0.715   3.136  0.2017  1.4080 -1.8519
 7197TIP3    H245787   1.473   0.622   3.018 -0.5746 -1.6347  0.2982
 7198TIP3   OH245788   2.584   3.242   4.727  0.0459  0.0942  0.3569
 7198TIP3    H145789   2.535   3.182   4.784  1.0271 -1.7295 -0.6223
 7198TIP3    H245790   2.617   3.186   4.657  1.2494  1.7727 -0.4750
 7199TIP3   OH245791   5.601   3.791   3.321 -0.4327 -0.1519 -0.1493
 7199TIP3    H145792   5.662   3.831   3.383 -2.8085 -0.1729  2.3743
 7199TIP3    H245793   5.585   3.859   3.256 -2.0115  2.0483  2.3420
 7200TIP3   OH245794   4.887   1.341   3.237  0.4495  1.1358 -0.0228
 7200TIP3    H145795   4.917   1.254   3.263  0.5813  1.3092  0.4068
 7200TIP3    H245796   4.915   1.350   3.146  0.4228  0.7260 -0.0747
 7201TIP3   OH245797   4.514   7.667   4.599 -0.7071  0.2714  0.1719
 7201TIP3    H145798   4.571   7.591   4.611 -0.8826  0.2607  0.9754
 7201TIP3    H245799   4.502   7.703   4.687  0.8441  2.3282 -0.3826
 7202TIP3   OH245800   2.497   3.146   2.543 -0.0260 -0.3385  0.3192
 7202TIP3    H145801   2.438   3.202   2.593  0.8270  0.0730  0.9049
 7202TIP3    H245802   2.584   3.165   2.579  0.5696 -0.3068 -1.0689
 7203TIP3   OH245803   4.362   1.235   2.914 -0.5457 -0.4232  0.3764
 7203TIP3    H145804   4.449   1.208   2.885 -0.3062  0.0980  0.5941
 7203TIP3    H245805   4.324   1.157   2.954  0.9887  0.0626  3.0195
 7204TIP3   OH245806   6.532   3.582   4.346 -0.3262  0.3727 -0.3537
 7204TIP3    H145807   6.566   3.571   4.256 -0.1398  1.4557 -0.4211
 7204TIP3    H245808   6.555   3.672   4.370  1.3832 -0.4691  1.5154
 7205TIP3   OH245809   4.910   2.771   3.984  0.0277 -0.0741 -0.2082
 7205TIP3    H145810   4.901   2.841   3.920  2.1791  1.2401  0.8170
 7205TIP3    H245811   4.964   2.809   4.054 -0.9393 -1.9321  1.6523
 7206TIP3   OH245812   0.135   1.210   3.382 -0.2073  0.4799  0.1332
 7206TIP3    H145813   0.192   1.134   3.390 -1.7713 -0.7288  0.2478
 7206TIP3    H245814   0.046   1.175   3.392 -0.9424  2.4361  1.0350
 7207TIP3   OH245815   2.130   6.651   4.631  0.0950 -0.1183  0.1883
 7207TIP3    H145816   2.192   6.622   4.699  1.7913  2.1055 -0.2768
 7207TIP3    H245817   2.186   6.677   4.558 -1.5072  0.6304 -0.8216
 7208TIP3   OH245818   3.629   4.137   2.888  0.3917  0.0280 -0.0472
 7208TIP3    H145819   3.604   4.158   2.798 -0.6652 -0.5557  0.0907
 7208TIP3    H245820   3.551   4.158   2.939  0.3814 -1.2825  0.5001
 7209TIP3   OH245821   2.991   4.817   2.958 -0.4799  0.3214 -0.2443
 7209TIP3    H145822   3.021   4.728   2.975  1.4117  0.7509 -1.0513
 7209TIP3    H245823   2.987   4.858   3.044 -0.3590 -0.2463  0.0352
 7210TIP3   OH245824   7.154   6.763   4.220 -0.4061 -0.6927 -0.3865
 7210TIP3    H145825   7.132   6.678   4.182 -0.8853 -0.6327 -0.2531
 7210TIP3    H245826   7.076   6.787   4.272 -0.3879 -0.0464 -0.6500
 7211TIP3   OH245827   1.333   5.334   4.059 -0.2028 -0.4405  0.1324
 7211TIP3    H145828   1.298   5.381   4.135  0.2645 -0.9154  0.6535
 7211TIP3    H245829   1.289   5.374   3.984 -1.1996 -0.4310  0.7014
 7212TIP3   OH245830   0.261   1.912   2.837  0.0200  0.0759 -0.5442
 7212TIP3    H145831   0.261   1.833   2.891  1.3970  1.3410  1.4687
 7212TIP3    H245832   0.340   1.959   2.863 -1.0385  2.4075 -1.2028
 7213TIP3   OH245833   3.126   2.508   1.861  0.3274  0.3941 -0.0659
 7213TIP3    H145834   3.058   2.441   1.867  1.2456 -0.4104  3.3817
 7213TIP3    H245835   3.095   2.579   1.918  2.4609 -0.1743  1.9246
 7214TIP3   OH245836   1.829   3.682   3.650  0.3417 -0.3137  0.0341
 7214TIP3    H145837   1.814   3.596   3.688  3.0442 -0.6065  0.6568
 7214TIP3    H245838   1.774   3.684   3.572  1.0435 -3.0647 -0.6364
 7215TIP3   OH245839   5.559   2.259   3.377  0.3112 -0.3940 -0.1636
 7215TIP3    H145840   5.503   2.307   3.316 -0.0958  0.3100  0.7251
 7215TIP3    H245841   5.562   2.315   3.455  0.5351 -1.4186  0.5849
 7216TIP3   OH245842   0.267   3.652   2.250 -0.3649  0.0732  0.1253
 7216TIP3    H145843   0.287   3.594   2.323  0.2080 -0.1559 -0.2098
 7216TIP3    H245844   0.327   3.626   2.180  0.2204  1.3503  0.1113
 7217TIP3   OH245845   6.143   3.157   4.068  0.2598  0.0997 -0.5435
 7217TIP3    H145846   6.078   3.159   3.998 -0.2218  0.4541 -0.0884
 7217TIP3    H245847   6.224   3.128   4.024 -0.5116 -1.7010 -0.8541
 7218TIP3   OH245848   5.460   6.237   4.446 -0.3483 -0.0393 -0.2002
 7218TIP3    H145849   5.532   6.191   4.488 -0.2136  0.6891  0.4001
 7218TIP3    H245850   5.394   6.245   4.515  0.0096  1.4715  0.0124
 7219TIP3   OH245851   3.952   3.101   3.483  0.3889 -0.7013  0.8384
 7219TIP3    H145852   4.027   3.159   3.468 -0.1253 -0.0860  0.6105
 7219TIP3    H245853   3.878   3.160   3.493  0.2322 -1.2180  3.0774
 7220TIP3   OH245854   6.318   0.708   3.336  0.1756  0.2631  0.6972
 7220TIP3    H145855   6.283   0.781   3.387 -1.4071 -0.1467  0.2379
 7220TIP3    H245856   6.303   0.631   3.392  1.4291  0.2023  0.9873
 7221TIP3   OH245857   0.734   4.463   2.427  0.1015  0.9129 -0.2986
 7221TIP3    H145858   0.725   4.527   2.357 -3.1349  0.5873 -0.3531
 7221TIP3    H245859   0.700   4.507   2.505  0.9071  0.3219  0.4084
 7222TIP3   OH245860   4.509   3.523   4.275 -0.0148 -0.3031 -0.2463
 7222TIP3    H145861   4.428   3.515   4.326 -0.0283  0.1263 -0.1944
 7222TIP3    H245862   4.574   3.474   4.325 -0.0457  0.0528  0.1457
 7223TIP3   OH245863   0.504   0.411   2.798 -0.0698 -0.1034  0.4574
 7223TIP3    H145864   0.497   0.429   2.705 -0.6968  1.6790  0.8051
 7223TIP3    H245865   0.537   0.492   2.836  1.4968 -1.2396  1.6476
 7224TIP3   OH245866   3.545   3.254   4.027  0.0802 -0.4277  0.0924
 7224TIP3    H145867   3.499   3.257   3.943  1.4089  0.4691 -0.6440
 7224TIP3    H245868   3.475   3.255   4.092 -0.9918  1.6492 -0.9583
 7225TIP3   OH245869   0.177   7.282   4.894 -0.5403 -0.0039 -0.4818
 7225TIP3    H145870   0.083   7.266   4.902 -0.5459 -0.3471 -1.1607
 7225TIP3    H245871   0.201   7.329   4.974 -1.2195 -0.2352 -0.1415
 7226TIP3   OH245872   2.213   6.024   2.779 -0.6616  0.1993 -0.2727
 7226TIP3    H145873   2.142   6.000   2.719  1.0158 -1.3959 -1.7354
 7226TIP3    H245874   2.187   5.984   2.862 -2.0012  0.6069 -0.4634
 7227TIP3   OH245875   3.160   4.394   2.675 -0.0615  0.4719  0.0276
 7227TIP3    H145876   3.227   4.434   2.730  0.4559 -0.8077  0.3386
 7227TIP3    H245877   3.207   4.335   2.617 -0.9600 -1.1364  0.8548
 7228TIP3   OH245878   6.243   1.499   2.882 -0.2237 -0.0104 -0.4343
 7228TIP3    H145879   6.322   1.507   2.935 -0.3508  0.0398 -0.2523
 7228TIP3    H245880   6.267   1.537   2.797 -0.6870  2.0064  0.2705
 7229TIP3   OH245881   1.569   1.345   5.001  0.1580  0.3502 -0.1084
 7229TIP3    H145882   1.633   1.274   4.999  0.6233  0.7839 -0.6759
 7229TIP3    H245883   1.615   1.421   4.966  0.2865  1.4630  2.2295
 7230TIP3   OH245884   5.242   5.555   4.169 -0.0942 -0.5350  0.0488
 7230TIP3    H145885   5.163   5.606   4.151 -0.6395 -1.6289 -0.7815
 7230TIP3    H245886   5.226   5.470   4.129  1.8109 -0.5585 -0.8052
 7231TIP3   OH245887   2.859   0.614   4.092 -0.1158  0.0723 -0.1135
 7231TIP3    H145888   2.953   0.604   4.111 -0.2226 -2.2793 -0.5444
 7231TIP3    H245889   2.819   0.627   4.178  0.6083  1.7250  0.0279
 7232TIP3   OH245890   0.551   3.229   3.371  0.2625 -0.0490 -0.1562
 7232TIP3    H145891   0.603   3.309   3.385 -0.5846  0.6751 -1.0773
 7232TIP3    H245892   0.503   3.218   3.453  0.5979  0.2131  0.0816
 7233TIP3   OH245893   0.619   3.622   2.483  0.5535 -0.1017 -0.0171
 7233TIP3    H145894   0.630   3.535   2.522 -0.7475  0.1307  0.9551
 7233TIP3    H245895   0.661   3.616   2.397 -0.1417 -1.9283 -0.2682
 7234TIP3   OH245896   4.093   6.766   4.444  0.1131 -0.3351  0.3206
 7234TIP3    H145897   4.022   6.704   4.429  0.5044 -1.3197  2.1233
 7234TIP3    H245898   4.172   6.720   4.416  0.3013 -0.2910  0.7578
 7235TIP3   OH245899   5.795   1.843   3.020  0.2078 -0.1942  0.1973
 7235TIP3    H145900   5.811   1.868   3.111  0.8866 -1.0033  0.3116
 7235TIP3    H245901   5.868   1.785   2.998 -0.4206 -0.7064 -0.5819
 7236TIP3   OH245902   3.377   4.825   4.324  0.2979  0.2913 -0.0975
 7236TIP3    H145903   3.423   4.762   4.379 -1.0074 -0.1762  0.5088
 7236TIP3    H245904   3.445   4.884   4.293  1.2309 -0.1068  1.1148
 7237TIP3   OH245905   2.696   3.413   4.467  0.4172 -0.4803  0.1531
 7237TIP3    H145906   2.713   3.322   4.490  0.3706 -0.8139 -1.0601
 7237TIP3    H245907   2.776   3.460   4.494  0.0362 -0.6825  1.7083
 7238TIP3   OH245908   5.539   1.008   2.381 -0.0683 -0.2670  0.3207
 7238TIP3    H145909   5.445   1.023   2.386  0.1496  1.7047 -0.3993
 7238TIP3    H245910   5.549   0.940   2.314 -0.9438  0.0660 -0.1611
 7239TIP3   OH245911   6.341   0.886   2.688 -0.8364  0.1969  0.0157
 7239TIP3    H145912   6.325   0.915   2.598  0.6247  0.7672 -0.0948
 7239TIP3    H245913   6.395   0.807   2.679  1.2163  1.4649  0.3350
 7240TIP3   OH245914   4.999   3.208   2.331  0.3709  0.4202 -0.1154
 7240TIP3    H145915   4.914   3.208   2.287  0.7617  1.6289 -0.9097
 7240TIP3    H245916   4.997   3.130   2.387 -0.3751 -0.8294 -1.8010
 7241TIP3   OH245917   7.098   5.898   4.103 -0.3776  0.1905 -0.3327
 7241TIP3    H145918   7.113   5.849   4.184  0.3793  0.6963 -0.1574
 7241TIP3    H245919   7.011   5.871   4.075 -0.0927 -1.0221 -0.0885
 7242TIP3   OH245920   5.997   5.332   3.303 -0.6326 -0.1795 -0.5057
 7242TIP3    H145921   5.977   5.254   3.251  1.5689  0.2416 -2.1335
 7242TIP3    H245922   5.969   5.405   3.248 -0.2615  0.2344 -0.1471
 7243TIP3   OH245923   6.691   3.312   3.482  0.1098 -0.0907 -0.2447
 7243TIP3    H145924   6.700   3.347   3.393 -2.2208  0.8659 -0.1986
 7243TIP3    H245925   6.778   3.280   3.505  1.3437  1.7650 -1.9907
 7244TIP3   OH245926   5.652   0.529   2.680 -0.1769  0.4073 -0.1169
 7244TIP3    H145927   5.628   0.579   2.758 -0.8408  0.2516 -0.2190
 7244TIP3    H245928   5.681   0.444   2.714  0.1962  0.5789  0.0026
 7245TIP3   OH245929   2.979   5.533   2.253 -0.0176 -0.1300 -0.2488
 7245TIP3    H145930   2.900   5.494   2.216 -1.0239  1.8114 -0.2830
 7245TIP3    H245931   2.964   5.533   2.348  0.0139  0.0654 -0.2427
 7246TIP3   OH245932   1.356   4.877   2.947  0.3432 -0.8688  0.5821
 7246TIP3    H145933   1.273   4.831   2.957 -0.5699  0.5074 -0.2719
 7246TIP3    H245934   1.408   4.850   3.023 -0.7222 -2.0578  0.9207
 7247TIP3   OH245935   0.082   4.875   3.729  0.0486  0.5644  0.8637
 7247TIP3    H145936   0.160   4.823   3.708  0.7705  2.3710 -1.4191
 7247TIP3    H245937   0.026   4.816   3.778  2.2557 -1.2406  1.3820
 7248TIP3   OH245938   2.135   1.232   4.006 -0.2988  0.1230  0.2430
 7248TIP3    H145939   2.184   1.170   3.951  0.5357 -0.6981  1.8504
 7248TIP3    H245940   2.179   1.316   3.991 -0.2764 -0.0235 -0.5662
 7249TIP3   OH245941   1.323   1.658   3.538 -0.1496  0.0384  0.3018
 7249TIP3    H145942   1.405   1.707   3.538  0.1059 -0.3904  0.3997
 7249TIP3    H245943   1.320   1.615   3.623 -0.3530 -0.1570  0.1971
 7250TIP3   OH245944   7.586   0.164   3.176  0.2420  0.3242  0.6499
 7250TIP3    H145945   7.678   0.166   3.200  0.1612 -0.3603  1.0320
 7250TIP3    H245946   7.568   0.252   3.142  1.3264  0.1053 -0.5551
 7251TIP3   OH245947   0.448   0.107   3.073  0.3917  0.4520  0.2161
 7251TIP3    H145948   0.374   0.075   3.125  0.7218 -1.5762 -0.4863
 7251TIP3    H245949   0.496   0.029   3.048  1.1721  1.4905 -1.7778
 7252TIP3   OH245950   3.206   6.223   5.034  0.5210 -0.2942 -0.2875
 7252TIP3    H145951   3.262   6.146   5.043  2.4949  1.3351  3.4439
 7252TIP3    H245952   3.264   6.294   5.007 -0.3263  0.7989  0.6266
 7253TIP3   OH245953   6.953   1.290   3.909  0.1964  0.3314 -0.2845
 7253TIP3    H145954   6.994   1.239   3.979 -1.3824  0.5714  0.8790
 7253TIP3    H245955   6.976   1.381   3.930 -0.3955  0.4146  0.0096
 7254TIP3   OH245956   1.311   5.441   2.370  0.1692 -0.2247  0.0189
 7254TIP3    H145957   1.319   5.414   2.279  0.1757 -1.8344  0.4663
 7254TIP3    H245958   1.400   5.436   2.404  0.2532  0.8914 -0.0080
 7255TIP3   OH245959   3.248   4.018   2.845  0.0939  0.1625 -0.3097
 7255TIP3    H145960   3.291   4.102   2.860  0.6013 -0.1462 -0.0160
 7255TIP3    H245961   3.162   4.041   2.808  0.3854  0.7914 -0.6047
 7256TIP3   OH245962   0.480   4.431   4.832  0.0221 -0.0118  0.6003
 7256TIP3    H145963   0.548   4.489   4.796  0.2006 -1.4390 -1.5518
 7256TIP3    H245964   0.425   4.488   4.885  1.1750  1.7687 -0.0311
 7257TIP3   OH245965   3.918   0.511   5.080  0.1743  0.8986 -0.0979
 7257TIP3    H145966   3.905   0.427   5.035  1.6531  1.2359 -1.2337
 7257TIP3    H245967   3.880   0.576   5.020 -0.3800  1.1100  0.4735
 7258TIP3   OH245968   2.733   4.629   2.772 -0.3366  0.0662  0.0489
 7258TIP3    H145969   2.800   4.563   2.754  0.5230  0.7436  0.6816
 7258TIP3    H245970   2.778   4.696   2.824 -0.6999  2.0263 -1.9909
 7259TIP3   OH245971   0.979   5.115   2.661 -0.4851  0.0908 -0.3057
 7259TIP3    H145972   1.029   5.034   2.657  0.7502  0.7375  0.8491
 7259TIP3    H245973   0.946   5.129   2.573  2.9706  0.5586 -1.6695
 7260TIP3   OH245974   5.542   3.360   4.127  0.2753  0.4476  0.2943
 7260TIP3    H145975   5.531   3.294   4.058 -0.6457 -2.5208  3.0174
 7260TIP3    H245976   5.461   3.410   4.126  0.2048  0.3362 -0.6445
 7261TIP3   OH245977   4.044   4.433   2.701 -0.1616  0.1459  0.0358
 7261TIP3    H145978   4.057   4.379   2.779  1.6746 -2.7354 -2.0520
 7261TIP3    H245979   3.956   4.411   2.671  0.2200 -1.0343 -0.2715
 7262TIP3   OH245980   3.572   0.621   4.460 -0.3459  0.6138  0.9239
 7262TIP3    H145981   3.624   0.661   4.391 -1.2874 -0.1221 -0.2383
 7262TIP3    H245982   3.637   0.596   4.527  0.5550  1.4729  0.4065
 7263TIP3   OH245983   0.590   3.153   4.505  0.1356 -0.2827 -0.6361
 7263TIP3    H145984   0.533   3.226   4.528 -0.0579  0.0845 -2.1298
 7263TIP3    H245985   0.534   3.094   4.454  0.7192 -0.6283 -0.8898
 7264TIP3   OH245986   0.145   7.064   3.575  0.4002  0.4172  0.3940
 7264TIP3    H145987   0.078   7.029   3.634  0.1308  0.6111  0.2114
 7264TIP3    H245988   0.163   6.993   3.514  0.0356  0.5028  0.1760
 7265TIP3   OH245989   3.501   6.236   9.603 -0.3220 -0.1366 -0.0395
 7265TIP3    H145990   3.548   6.248   9.521 -0.1094  0.1910  0.1278
 7265TIP3    H245991   3.527   6.149   9.634 -0.4664 -0.2937 -0.3585
 7266TIP3   OH245992   1.035   3.432   2.883 -0.5296  0.9025 -0.1825
 7266TIP3    H145993   0.997   3.400   2.964 -2.3526  0.8683 -0.9996
 7266TIP3    H245994   1.118   3.384   2.874 -0.9500 -0.0770  0.9652
 7267TIP3   OH245995   4.028   2.876   4.806 -0.4126 -0.2052  0.1101
 7267TIP3    H145996   4.083   2.800   4.789 -0.8188 -0.2831 -0.9638
 7267TIP3    H245997   4.062   2.914   4.887 -0.0972 -1.4270  0.5659
 7268TIP3   OH245998   3.866   5.695   3.860 -0.3657  0.6710 -0.3642
 7268TIP3    H145999   3.893   5.618   3.810 -0.8468 -0.1276  0.5581
 7268TIP3    H246000   3.911   5.768   3.818 -0.0312 -0.0867 -1.3718
 7269TIP3   OH246001   3.525   6.224   3.211 -0.2564  0.4406 -0.1675
 7269TIP3    H146002   3.464   6.297   3.212  1.5063  2.1610  3.8062
 7269TIP3    H246003   3.612   6.265   3.219  1.2356 -2.0076 -2.2367
 7270TIP3   OH246004   2.272   3.565   3.357  0.4313 -0.4717 -0.3048
 7270TIP3    H146005   2.210   3.538   3.289 -1.6291 -0.9758  1.6416
 7270TIP3    H246006   2.218   3.609   3.423  2.1141 -1.0459  1.5642
 7271TIP3   OH246007   1.140   5.476   2.096  0.1321  0.2660  0.6313
 7271TIP3    H146008   1.230   5.446   2.113  0.0756 -0.0417  0.3913
 7271TIP3    H246009   1.150   5.567   2.069  0.2449  0.7085  2.0896
 7272TIP3   OH246010   5.658   7.240   3.729 -0.1175 -0.5288 -0.1428
 7272TIP3    H146011   5.588   7.219   3.668 -0.4918  0.6239 -0.1309
 7272TIP3    H246012   5.727   7.177   3.709 -0.5597 -0.7017 -1.1889
 7273TIP3   OH246013   0.733   4.560   3.615  0.0539  0.1643 -0.1762
 7273TIP3    H146014   0.797   4.612   3.566 -2.0059  2.5527 -0.5472
 7273TIP3    H246015   0.730   4.476   3.568  0.8165  1.0456 -1.9048
 7274TIP3   OH246016   2.803   3.153   4.260 -0.0130 -0.6341 -0.0116
 7274TIP3    H146017   2.845   3.092   4.200 -0.2443 -0.6170 -0.1916
 7274TIP3    H246018   2.715   3.166   4.224  0.3323  0.5071 -0.4904
 7275TIP3   OH246019   5.044   7.096   3.292  0.6570  0.5227 -0.7900
 7275TIP3    H146020   4.996   7.017   3.266  0.2163  1.0878 -1.7470
 7275TIP3    H246021   5.084   7.127   3.211  0.2601  1.6631 -0.5647
 7276TIP3   OH246022   3.549   1.481   2.522 -0.8651 -0.2456 -0.7194
 7276TIP3    H146023   3.544   1.390   2.553 -2.2801 -0.6398 -1.9616
 7276TIP3    H246024   3.583   1.474   2.433 -1.0717  0.4313 -0.8580
 7277TIP3   OH246025   5.045   3.661   2.558 -0.4383  0.3502 -1.0326
 7277TIP3    H146026   5.117   3.615   2.601  1.3472  2.7047 -1.2824
 7277TIP3    H246027   5.077   3.677   2.469 -1.2099  1.5635 -1.1096
 7278TIP3   OH246028   4.854   2.141   3.329  0.0967 -0.5199  0.7676
 7278TIP3    H146029   4.908   2.176   3.399 -0.3227  2.8378 -0.3878
 7278TIP3    H246030   4.908   2.151   3.250 -0.9908 -0.1457  0.0480
 7279TIP3   OH246031   2.941   4.298   3.963  0.3800  0.0579 -0.1243
 7279TIP3    H146032   2.964   4.211   3.996  1.6408 -0.3132 -1.8506
 7279TIP3    H246033   2.900   4.282   3.878  0.4054  1.1371 -0.3524
 7280TIP3   OH246034   5.103   0.777   3.885  0.1023 -0.0092 -0.0281
 7280TIP3    H146035   5.135   0.804   3.971  0.8962  1.0359 -0.6293
 7280TIP3    H246036   5.150   0.696   3.867  2.1446  1.2446 -0.6773
 7281TIP3   OH246037   2.216   7.534   2.269 -0.0934  0.0583  0.2888
 7281TIP3    H146038   2.192   7.443   2.289 -0.8238  0.2561  0.3361
 7281TIP3    H246039   2.312   7.533   2.266 -0.1180 -1.0435 -1.2999
 7282TIP3   OH246040   2.196   2.594   3.619  0.3232 -0.2107 -0.1739
 7282TIP3    H146041   2.220   2.573   3.709 -0.4595  2.1496  0.6505
 7282TIP3    H246042   2.273   2.636   3.582 -0.5039  2.1756  0.6446
 7283TIP3   OH246043   0.489   4.411   3.701  0.0110  0.3581  0.1190
 7283TIP3    H146044   0.546   4.487   3.688  1.6440 -0.8438 -0.0885
 7283TIP3    H246045   0.454   4.423   3.789  2.4193  0.0667  1.2113
 7284TIP3   OH246046   0.616   0.193   2.527  0.0132 -0.3840 -0.2123
 7284TIP3    H146047   0.520   0.196   2.529 -0.0373  1.1328 -2.3413
 7284TIP3    H246048   0.643   0.283   2.546  1.0886 -0.9565  1.1713
 7285TIP3   OH246049   1.987   2.115   3.500  0.5336 -0.5490  0.0699
 7285TIP3    H146050   2.054   2.065   3.546  1.5919  0.5939 -0.1626
 7285TIP3    H246051   2.009   2.206   3.518  0.0174 -0.1109 -1.3663
 7286TIP3   OH246052   5.052   4.611   2.906 -0.3431 -0.2239 -0.3589
 7286TIP3    H146053   5.095   4.611   2.821  0.6108  0.5577  0.1003
 7286TIP3    H246054   5.053   4.519   2.934 -1.0936 -0.5609 -1.3800
 7287TIP3   OH246055   6.374   4.059   3.165 -0.2085  0.3079  0.5229
 7287TIP3    H146056   6.407   4.129   3.109 -0.6275  0.7032  0.7630
 7287TIP3    H246057   6.344   4.104   3.244 -1.2392 -0.0299  0.3477
 7288TIP3   OH246058   4.840   1.266   3.991 -0.0735 -0.0355 -0.3860
 7288TIP3    H146059   4.774   1.201   3.966 -1.0694  0.9971 -0.5258
 7288TIP3    H246060   4.799   1.315   4.062  0.8739  0.1073  0.0786
 7289TIP3   OH246061   6.952   0.635   2.390  0.1661 -0.2364 -0.0103
 7289TIP3    H146062   6.948   0.565   2.455 -0.2939  0.0440  0.2641
 7289TIP3    H246063   7.014   0.698   2.426  0.8390 -0.6507 -0.4126
 7290TIP3   OH246064   6.439   5.527   3.757  0.2785 -0.6756 -0.2404
 7290TIP3    H146065   6.352   5.488   3.762 -1.2213  2.4769  1.7075
 7290TIP3    H246066   6.457   5.532   3.663 -1.8186 -1.0920 -0.7278
 7291TIP3   OH246067   4.172   0.709   3.746 -0.3873  0.0515  0.2633
 7291TIP3    H146068   4.255   0.690   3.790  0.2805  3.5956  0.8170
 7291TIP3    H246069   4.113   0.734   3.817 -1.0599  0.2725 -0.3713
 7292TIP3   OH246070   6.979   3.070   4.563  0.1859  0.1390 -0.4519
 7292TIP3    H146071   6.920   3.145   4.572  0.4622  0.2390  0.7701
 7292TIP3    H246072   6.927   2.995   4.590 -0.0567 -0.1078 -1.5686
 7293TIP3   OH246073   0.732   5.525   2.542 -0.6354  0.0455 -0.3858
 7293TIP3    H146074   0.656   5.518   2.484 -1.9075  0.1807  1.1999
 7293TIP3    H246075   0.806   5.539   2.482 -1.8277 -0.1444 -1.9835
 7294TIP3   OH246076   3.410   7.030   2.782 -0.2107  0.6466 -0.4506
 7294TIP3    H146077   3.461   7.110   2.777 -0.3569  0.8006  0.3766
 7294TIP3    H246078   3.475   6.960   2.778  0.3614  0.8473  2.7770
 7295TIP3   OH246079   3.562   3.172   2.212 -0.0295 -0.3959  0.4197
 7295TIP3    H146080   3.520   3.253   2.241 -1.0116  0.0099 -1.9115
 7295TIP3    H246081   3.652   3.198   2.192  0.3997 -0.4899  2.0554
 7296TIP3   OH246082   3.025   7.601   2.803  0.0232 -0.5742 -0.5800
 7296TIP3    H146083   3.085   7.534   2.833 -2.2438 -1.9405  1.2477
 7296TIP3    H246084   3.052   7.681   2.849  1.1037 -0.8694 -0.6963
 7297TIP3   OH246085   1.959   3.936   3.265 -0.4482  0.4843 -0.0496
 7297TIP3    H146086   1.907   3.856   3.254  0.8842 -0.5822  1.1163
 7297TIP3    H246087   1.947   3.960   3.357 -0.4537  1.3710 -0.2743
 7298TIP3   OH246088   0.839   0.966   2.719 -0.0321  0.5364 -0.0274
 7298TIP3    H146089   0.837   0.894   2.783  2.4988 -0.5241 -1.0050
 7298TIP3    H246090   0.799   1.040   2.765 -0.9600 -0.9599  1.7106
 7299TIP3   OH246091   3.660   4.485   2.836 -0.0198 -0.0491  0.2913
 7299TIP3    H146092   3.659   4.413   2.773  0.8956  0.4698 -0.3502
 7299TIP3    H246093   3.721   4.456   2.904 -0.8644 -0.5306  0.8586
 7300TIP3   OH246094   2.823   7.467   4.655 -0.1361  0.1014  0.5099
 7300TIP3    H146095   2.861   7.518   4.584 -1.3630  1.0544  0.5083
 7300TIP3    H246096   2.729   7.469   4.638 -0.4149  0.0241  1.9405
 7301TIP3   OH246097   6.095   0.569   2.930 -0.2692 -0.2520  0.3462
 7301TIP3    H146098   6.091   0.657   2.893  1.4910  0.5740  1.9555
 7301TIP3    H246099   6.137   0.516   2.863 -0.8589  0.2461 -0.4275
 7302TIP3   OH246100   7.256   1.560   3.658  0.4022  0.0997 -0.0428
 7302TIP3    H146101   7.270   1.564   3.752  2.2085  1.2840 -0.3073
 7302TIP3    H246102   7.187   1.624   3.640 -0.0215 -0.2090  0.4715
 7303TIP3   OH246103   0.243   1.289   4.407 -0.2775 -0.2754  0.5263
 7303TIP3    H146104   0.233   1.305   4.501  0.2438  1.0035  0.3935
 7303TIP3    H246105   0.337   1.281   4.394 -0.0424  2.6051 -0.2687
 7304TIP3   OH246106   5.462   6.297   3.673 -0.0172  0.2868 -0.1927
 7304TIP3    H146107   5.542   6.349   3.669  0.3885 -0.2682  0.5598
 7304TIP3    H246108   5.422   6.307   3.587  1.5744 -0.5689 -1.0622
 7305TIP3   OH246109   1.302   5.023   3.319  0.5046  0.2350  0.2981
 7305TIP3    H146110   1.332   5.085   3.254  0.4564  0.3652  0.4005
 7305TIP3    H246111   1.253   5.075   3.382  1.5404  0.2932  1.0769
 7306TIP3   OH246112   1.657   2.954   3.790  0.2857  0.0611 -0.5103
 7306TIP3    H146113   1.695   3.039   3.768  0.3591 -0.0304 -0.7408
 7306TIP3    H246114   1.714   2.918   3.857  1.4524 -0.7106 -1.8712
 7307TIP3   OH246115   3.176   5.012   4.056 -0.2021  0.0831 -0.1811
 7307TIP3    H146116   3.125   4.931   4.060 -0.8944  0.4329 -1.4579
 7307TIP3    H246117   3.114   5.081   4.080  0.0179  0.3773 -0.4460
 7308TIP3   OH246118   0.699   2.234   3.278 -0.1297  0.0589  0.1956
 7308TIP3    H146119   0.732   2.241   3.367  0.0942  1.9338  0.0024
 7308TIP3    H246120   0.742   2.305   3.230 -1.8839  0.4892 -0.8695
 7309TIP3   OH246121   3.387   4.223   2.972  0.4918  0.6845 -0.1809
 7309TIP3    H146122   3.383   4.316   2.991  1.6103  0.8026 -0.4627
 7309TIP3    H246123   3.344   4.181   3.046 -0.2092  1.4254 -0.1550
 7310TIP3   OH246124   5.335   4.976   4.930 -0.3118 -0.2904 -0.4909
 7310TIP3    H146125   5.348   4.900   4.873  1.3967 -1.1986  1.0127
 7310TIP3    H246126   5.423   5.014   4.939 -1.0011  1.3837 -0.5330
 7311TIP3   OH246127   4.784   0.071   2.065 -0.2702  0.5322 -0.3001
 7311TIP3    H146128   4.740   0.060   2.149  1.7707  0.3732  0.8292
 7311TIP3    H246129   4.741   0.146   2.024 -3.0751 -0.9743 -0.3720
 7312TIP3   OH246130   7.394   3.686   4.849  0.5517 -0.1566 -0.2298
 7312TIP3    H146131   7.440   3.726   4.922 -0.6319  0.7382  0.0451
 7312TIP3    H246132   7.326   3.749   4.825 -1.2714 -1.8782  0.1180
 7313TIP3   OH246133   5.923   4.343   2.362  0.1503 -0.2018  0.4599
 7313TIP3    H146134   5.934   4.262   2.411 -1.8184 -0.4488  0.5908
 7313TIP3    H246135   6.012   4.371   2.340  0.8509 -2.5016  0.1919
 7314TIP3   OH246136   2.351   5.308   3.122  0.2951 -0.8201  0.4972
 7314TIP3    H146137   2.321   5.295   3.212  1.4631 -4.0522  0.5726
 7314TIP3    H246138   2.276   5.284   3.068 -0.8702  2.4353  0.4533
 7315TIP3   OH246139   1.078   4.462   3.673 -0.1016 -0.1686 -0.0369
 7315TIP3    H146140   1.087   4.368   3.655 -0.7720 -0.5012  1.2527
 7315TIP3    H246141   1.005   4.489   3.618 -0.3795 -0.5703  0.1252
 7316TIP3   OH246142   0.984   6.832   3.462 -0.1680 -0.4433  0.4237
 7316TIP3    H146143   0.922   6.759   3.463 -1.2792  0.4637  1.2800
 7316TIP3    H246144   0.944   6.897   3.405 -1.8528  1.5657  3.5741
 7317TIP3   OH246145   5.454   4.855   4.261  0.1988 -0.2650  0.4703
 7317TIP3    H146146   5.513   4.922   4.294 -0.8155  0.2822  1.2189
 7317TIP3    H246147   5.512   4.785   4.230  1.2322  0.3445  0.9879
 7318TIP3   OH246148   3.439   0.083   2.364  0.5365 -0.5834  0.0421
 7318TIP3    H146149   3.430   0.171   2.328  1.3433 -1.0071 -1.2610
 7318TIP3    H246150   3.491   0.095   2.444  0.7963  0.0962 -0.2224
 7319TIP3   OH246151   1.785   3.537   2.947  0.7284 -0.0815  0.1520
 7319TIP3    H146152   1.857   3.597   2.966  0.2879  0.3909  0.3509
 7319TIP3    H246153   1.806   3.502   2.860 -0.0075  1.8926 -0.8845
 7320TIP3   OH246154   4.328   3.447   4.487  0.2835  0.2657  0.3246
 7320TIP3    H146155   4.257   3.408   4.537 -0.1792  0.1225 -0.4258
 7320TIP3    H246156   4.394   3.378   4.481 -1.0414 -0.9181 -2.0536
 7321TIP3   OH246157   4.731   3.143   4.646  0.1125 -0.1277 -0.1242
 7321TIP3    H146158   4.815   3.175   4.613 -0.2092 -1.0051 -1.9334
 7321TIP3    H246159   4.713   3.198   4.722  1.1228  1.7900 -1.1882
 7322TIP3   OH246160   7.536   3.312   3.812 -0.1102  0.4829 -0.3400
 7322TIP3    H146161   7.601   3.278   3.751 -0.0962  0.6933 -0.4430
 7322TIP3    H246162   7.470   3.354   3.756  0.2871  1.3483 -0.1825
 7323TIP3   OH246163   2.986   0.814   2.139  0.1358 -0.1983  0.0082
 7323TIP3    H146164   3.023   0.889   2.184 -1.0838  1.3161 -1.3719
 7323TIP3    H246165   2.891   0.823   2.151 -0.0966 -0.8369 -1.1624
 7324TIP3   OH246166   6.557   6.319   4.667  0.2115 -0.0087 -0.2613
 7324TIP3    H146167   6.590   6.409   4.661 -1.5887  0.8319  1.2701
 7324TIP3    H246168   6.563   6.297   4.759 -0.2706 -1.0972 -0.4767
 7325TIP3   OH246169   3.666   2.780   3.937 -0.3559 -0.2177 -0.8825
 7325TIP3    H146170   3.609   2.796   4.012 -0.7417  0.1865 -1.2594
 7325TIP3    H246171   3.669   2.684   3.929 -0.9483 -0.2407 -0.8357
 7326TIP3   OH246172   7.678   3.130   2.601  0.4176 -0.4062  0.7240
 7326TIP3    H146173   7.656   3.201   2.662  0.2940 -0.3829  0.6522
 7326TIP3    H246174   7.704   3.057   2.658 -0.0626 -0.5083  0.8173
 7327TIP3   OH246175   3.735   1.592   3.546  0.1211  0.0897 -0.1497
 7327TIP3    H146176   3.788   1.536   3.604 -0.3475  0.3213  0.5068
 7327TIP3    H246177   3.748   1.680   3.580  0.8126  0.3918 -1.1543
 7328TIP3   OH246178   2.225   4.107   2.214  0.3311  0.0660  0.4368
 7328TIP3    H146179   2.306   4.061   2.197  0.4941  0.9174 -1.2922
 7328TIP3    H246180   2.251   4.183   2.267  0.8484  0.8717 -0.9260
 7329TIP3   OH246181   1.605   5.309   4.040  0.1248 -0.1097  0.4877
 7329TIP3    H146182   1.613   5.394   3.997 -1.0837  0.2556  0.9398
 7329TIP3    H246183   1.511   5.296   4.051  0.3462  0.0915  3.5018
 7330TIP3   OH246184   2.517   6.404   3.296  0.3738  0.8428  0.0305
 7330TIP3    H146185   2.584   6.362   3.351  0.3798  0.5736 -0.1770
 7330TIP3    H246186   2.491   6.335   3.235 -0.6515  0.7088  0.6116
 7331TIP3   OH246187   4.920   6.787   2.487 -0.2027  0.4180  0.0282
 7331TIP3    H146188   5.008   6.777   2.521  0.2660  2.2499 -0.5620
 7331TIP3    H246189   4.887   6.697   2.480  1.4939 -0.2792  0.5164
 7332TIP3   OH246190   0.460   2.814   2.861  0.2662  0.1534  0.3323
 7332TIP3    H146191   0.392   2.861   2.813  1.8182  0.5495 -1.5803
 7332TIP3    H246192   0.481   2.738   2.806  2.2661  0.7490  0.2017
 7333TIP3   OH246193   3.167   0.655   3.713 -0.5238 -0.2884  0.0318
 7333TIP3    H146194   3.122   0.716   3.771 -0.9140 -1.2251  0.7384
 7333TIP3    H246195   3.260   0.670   3.730 -0.6270 -1.1168  1.5611
 7334TIP3   OH246196   3.470   4.142   2.374  0.5324 -0.3065  0.2663
 7334TIP3    H146197   3.478   4.181   2.287  0.1132 -0.1642  0.2900
 7334TIP3    H246198   3.560   4.120   2.399  0.5716 -1.0687 -0.5327
 7335TIP3   OH246199   0.461   5.953   2.529 -0.4939 -0.5128  0.3967
 7335TIP3    H146200   0.450   6.033   2.579  0.5626 -1.4772  2.2997
 7335TIP3    H246201   0.532   5.972   2.467  1.3530 -0.5812  2.3745
 7336TIP3   OH246202   5.110   1.385   3.620 -0.0313  0.6973  0.0080
 7336TIP3    H146203   5.110   1.382   3.716  0.3074 -0.5682 -0.0155
 7336TIP3    H246204   5.202   1.383   3.595 -0.1041  1.4266 -0.3481
 7337TIP3   OH246205   0.913   1.998   3.686  0.7521  0.0656  0.3563
 7337TIP3    H146206   0.877   1.988   3.598  1.0080  0.2646  0.2275
 7337TIP3    H246207   0.996   1.951   3.684 -0.0128 -1.3763  0.9882
 7338TIP3   OH246208   1.107   5.553   4.837 -0.1072  0.6760  0.3883
 7338TIP3    H146209   1.036   5.554   4.773  1.2523  0.1386 -1.1988
 7338TIP3    H246210   1.071   5.505   4.912 -1.6340  1.0453 -0.0727
 7339TIP3   OH246211   4.082   6.226   2.804  0.2852 -0.0645 -0.1613
 7339TIP3    H146212   4.146   6.248   2.871  0.9609  1.1524 -1.1671
 7339TIP3    H246213   4.075   6.131   2.808  1.4184 -0.1356  0.6183
 7340TIP3   OH246214   0.624   1.395   4.754 -0.0883  0.2175  0.3508
 7340TIP3    H146215   0.617   1.391   4.659 -1.5891  0.5452  0.4337
 7340TIP3    H246216   0.695   1.334   4.775 -0.3330 -0.5275 -0.9009
 7341TIP3   OH246217   0.033   0.630   4.118  0.2728 -0.1561 -0.1968
 7341TIP3    H146218   0.086   0.578   4.057 -0.1133  0.7962 -1.4012
 7341TIP3    H246219   0.067   0.719   4.110 -1.1398  0.3718 -0.6077
 7342TIP3   OH246220   3.318   4.151   3.632  0.1707  0.5276 -0.1070
 7342TIP3    H146221   3.410   4.145   3.607 -0.1179  0.6824 -1.2312
 7342TIP3    H246222   3.306   4.079   3.695  0.8417 -0.0492 -0.6237
 7343TIP3   OH246223   1.050   4.054   2.626  0.1203  0.3809  0.2545
 7343TIP3    H146224   1.005   4.111   2.564 -1.5589 -1.1388 -0.0160
 7343TIP3    H246225   1.040   3.966   2.589 -0.0698 -0.4465  2.1724
 7344TIP3   OH246226   1.294   1.492   3.789 -0.0579 -0.3825 -0.3116
 7344TIP3    H146227   1.377   1.470   3.831  0.3278  0.6394 -0.5159
 7344TIP3    H246228   1.255   1.557   3.846 -1.3662 -1.8048  0.4863
 7345TIP3   OH246229   1.940   5.050   4.148 -0.0356  0.1321 -0.3344
 7345TIP3    H146230   1.855   5.028   4.111 -0.6650  0.5167  0.8313
 7345TIP3    H246231   1.964   4.974   4.201 -0.1507  0.4466  0.1753
 7346TIP3   OH246232   3.262   6.139   2.090 -0.1294  0.3341 -0.1021
 7346TIP3    H146233   3.266   6.217   2.144 -0.6526  1.5483 -1.7389
 7346TIP3    H246234   3.168   6.124   2.076 -0.1208 -1.5412  1.4485
 7347TIP3   OH246235   1.188   2.931   4.163  0.5328  0.5857  0.1502
 7347TIP3    H146236   1.153   2.921   4.252  0.1294 -0.3124 -0.0947
 7347TIP3    H246237   1.186   2.842   4.127  0.6007  0.9562 -0.7888
 7348TIP3   OH246238   4.659   0.876   4.048 -0.0244  0.2790  0.2251
 7348TIP3    H146239   4.689   0.864   4.138 -0.2403  0.3089  0.3035
 7348TIP3    H246240   4.675   0.792   4.005  0.2721  0.3300  0.2330
 7349TIP3   OH246241   4.633   4.453   2.848  0.5524 -0.2557 -0.1691
 7349TIP3    H146242   4.723   4.476   2.822  0.8370 -0.5857  0.5081
 7349TIP3    H246243   4.641   4.424   2.939 -0.0482 -1.4616 -0.4819
 7350TIP3   OH246244   0.203   4.793   4.314 -0.4952  0.0461 -0.0177
 7350TIP3    H146245   0.192   4.874   4.265 -1.2752  0.6547  1.1220
 7350TIP3    H246246   0.251   4.818   4.393  1.0370 -0.9785 -0.5645
 7351TIP3   OH246247   4.635   7.345   4.256  0.9235 -0.3258 -0.1917
 7351TIP3    H146248   4.674   7.373   4.172 -0.6618 -1.7027 -1.4572
 7351TIP3    H246249   4.572   7.414   4.277 -1.1151 -1.4968 -1.9696
 7352TIP3   OH246250   2.988   2.169   2.513 -0.0972 -0.1609  0.0076
 7352TIP3    H146251   3.053   2.206   2.453 -0.3541  0.7538  0.2802
 7352TIP3    H246252   3.008   2.075   2.516 -1.0163 -0.5288 -2.6817
 7353TIP3   OH246253   7.470   7.596   4.349 -0.5947  0.3240  0.1891
 7353TIP3    H146254   7.464   7.539   4.425 -1.3164  1.7172  1.2254
 7353TIP3    H246255   7.380   7.620   4.330 -0.3577  0.5760 -0.6494
 7354TIP3   OH246256   2.563   1.668   3.407  0.0037  0.7457 -0.5012
 7354TIP3    H146257   2.557   1.758   3.438  1.3191  0.7808 -0.2707
 7354TIP3    H246258   2.657   1.654   3.392 -0.2256 -0.4308 -0.9947
 7355TIP3   OH246259   6.343   6.602   2.796  0.7512 -0.3469 -1.0203
 7355TIP3    H146260   6.328   6.670   2.731 -0.4167  0.2720 -0.1537
 7355TIP3    H246261   6.259   6.557   2.803  0.8876 -0.4832 -0.0692
 7356TIP3   OH246262   1.076   0.700   3.773  0.0702  0.3935 -0.0511
 7356TIP3    H146263   1.162   0.661   3.757  0.6734  1.7724 -0.3080
 7356TIP3    H246264   1.094   0.773   3.832 -0.7418  1.4667 -1.1031
 7357TIP3   OH246265   4.658   3.371   3.045  0.8963  0.4763 -0.5432
 7357TIP3    H146266   4.705   3.297   3.007  2.6817  0.9314  0.6324
 7357TIP3    H246267   4.692   3.378   3.134  0.5386  2.4688 -0.5027
 7358TIP3   OH246268   4.754   5.511   3.517 -0.2183  0.0155  0.2129
 7358TIP3    H146269   4.848   5.500   3.501 -0.1478 -0.3929  0.8694
 7358TIP3    H246270   4.734   5.599   3.484  0.1500 -0.3399 -1.0061
 7359TIP3   OH246271   4.591   1.991   4.669  0.2569  0.1287  0.1465
 7359TIP3    H146272   4.607   2.071   4.619  0.3769  0.3479  0.5338
 7359TIP3    H246273   4.581   2.021   4.760 -1.0005 -0.1387  0.1189
 7360TIP3   OH246274   1.716   5.325   2.945  0.2983 -0.0890 -0.5225
 7360TIP3    H146275   1.754   5.308   2.859 -0.9663 -1.4272 -0.8586
 7360TIP3    H246276   1.628   5.355   2.926  0.3428  0.5759  0.2924
 7361TIP3   OH246277   1.161   7.680   4.202  0.6546 -0.4251 -0.1782
 7361TIP3    H146278   1.098   7.698   4.272 -0.2127  0.2764 -1.1026
 7361TIP3    H246279   1.245   7.674   4.246  0.1805  0.3551  0.8790
 7362TIP3   OH246280   5.192   1.258   4.779 -0.1568  0.0392 -0.3565
 7362TIP3    H146281   5.140   1.223   4.851  0.9588 -1.5753 -0.3030
 7362TIP3    H246282   5.226   1.342   4.813 -0.6058 -0.1338  0.5522
 7363TIP3   OH246283   7.516   4.840   2.233 -0.0409  0.0680 -0.0846
 7363TIP3    H146284   7.542   4.794   2.313  0.4150  2.0981  1.0257
 7363TIP3    H246285   7.553   4.789   2.162  2.7938  0.1444  1.1977
 7364TIP3   OH246286   4.305   5.876   3.794  0.5762  0.2633 -0.1526
 7364TIP3    H146287   4.333   5.809   3.731  1.1306  1.4142 -1.1672
 7364TIP3    H246288   4.343   5.846   3.877  1.8417 -0.0755 -0.8170
 7365TIP3   OH246289   3.461   1.306   3.757  0.5736  0.3269  0.5906
 7365TIP3    H146290   3.430   1.391   3.725  0.9186  0.2773  0.1101
 7365TIP3    H246291   3.555   1.308   3.742  0.5434 -0.2530  0.3071
 7366TIP3   OH246292   5.216   4.613   2.671  0.3333 -0.4511 -0.8064
 7366TIP3    H146293   5.250   4.574   2.591  0.6967  1.0977 -1.4377
 7366TIP3    H246294   5.283   4.676   2.698 -1.1584  1.3060 -1.0374
 7367TIP3   OH246295   6.715   5.075   4.889 -0.4512  0.0037  0.3568
 7367TIP3    H146296   6.704   5.070   4.984 -0.0242  0.0047  0.4055
 7367TIP3    H246297   6.736   5.167   4.872  2.2020 -0.4894  0.5558
 7368TIP3   OH246298   5.157   6.855   2.912  0.2940  0.0712  0.0399
 7368TIP3    H146299   5.082   6.800   2.932 -0.5214  0.9426 -0.5328
 7368TIP3    H246300   5.230   6.794   2.905 -0.4475 -0.8472  0.1028
 7369TIP3   OH246301   2.280   5.453   2.039  0.0988 -0.7695  0.9378
 7369TIP3    H146302   2.325   5.383   1.992  0.2705  0.4470 -0.8268
 7369TIP3    H246303   2.327   5.533   2.014 -2.5382  0.4821 -0.4419
 7370TIP3   OH246304   1.550   6.780   3.855  0.3405 -0.0871 -0.3335
 7370TIP3    H146305   1.481   6.730   3.899 -0.2154  0.6948 -0.2892
 7370TIP3    H246306   1.504   6.829   3.787  0.7994  0.6936 -0.0909
 7371TIP3   OH246307   5.834   6.872   2.510 -0.1091  0.3155 -0.0899
 7371TIP3    H146308   5.891   6.889   2.435  0.1468  1.0707  0.2669
 7371TIP3    H246309   5.748   6.855   2.472  0.4907 -1.6606 -0.6961
 7372TIP3   OH246310   7.667   2.447   2.923  0.0545 -0.1373  0.0837
 7372TIP3    H146311   7.701   2.370   2.969  0.3889  0.0134  0.0915
 7372TIP3    H246312   7.727   2.518   2.947  0.1034 -0.0085 -0.4095
 7373TIP3   OH246313   7.632   3.323   3.399  0.4564  0.0545 -0.3262
 7373TIP3    H146314   7.692   3.313   3.326 -0.0987  2.9286 -1.3191
 7373TIP3    H246315   7.683   3.299   3.476  2.1812  0.3260 -1.3413
 7374TIP3   OH246316   1.761   1.684   4.649  0.1380  0.5207 -0.5484
 7374TIP3    H146317   1.836   1.628   4.629  0.0744  0.1410  0.2273
 7374TIP3    H246318   1.781   1.721   4.735 -0.9305 -0.2152  0.0292
 7375TIP3   OH246319   0.923   3.717   3.528  0.0451  0.4021  0.7846
 7375TIP3    H146320   0.852   3.768   3.567 -1.1717  0.2676 -1.1013
 7375TIP3    H246321   0.973   3.685   3.603 -2.6057 -0.5118  2.3211
 7376TIP3   OH246322   0.790   4.133   2.819 -0.3346  0.8842 -0.2169
 7376TIP3    H146323   0.795   4.061   2.756 -2.3853  1.6835 -1.4200
 7376TIP3    H246324   0.723   4.106   2.882 -0.5161  1.3627 -0.1933
 7377TIP3   OH246325   2.784   3.217   3.278 -0.1484  0.0677 -0.7834
 7377TIP3    H146326   2.797   3.302   3.235  0.9403 -0.3203 -1.2635
 7377TIP3    H246327   2.806   3.153   3.211  1.9914 -0.5496  0.4123
 7378TIP3   OH246328   3.265   0.830   3.177 -0.3629  0.4416  0.0913
 7378TIP3    H146329   3.242   0.740   3.154  0.4921  0.4051 -0.6308
 7378TIP3    H246330   3.273   0.828   3.273  0.0270 -0.3342  0.0495
 7379TIP3   OH246331   5.868   0.875   2.538 -0.1701  0.5257  0.7628
 7379TIP3    H146332   5.952   0.871   2.493 -0.8986  2.8806 -0.9672
 7379TIP3    H246333   5.822   0.795   2.510 -0.4005  1.6395 -2.4846
 7380TIP3   OH246334   2.769   0.236   2.580 -0.0252  0.0504  0.1560
 7380TIP3    H146335   2.744   0.257   2.490 -1.6850 -1.4815  0.2101
 7380TIP3    H246336   2.689   0.247   2.631  0.9466  1.1351  1.5224
 7381TIP3   OH246337   7.000   1.575   3.305 -0.3370  0.3491 -0.1708
 7381TIP3    H146338   7.000   1.481   3.285 -1.2569  0.0442  1.0854
 7381TIP3    H246339   7.092   1.600   3.306 -0.0485 -0.6732 -0.0176
 7382TIP3   OH246340   4.307   7.460   4.122 -0.2536 -0.2257  0.1401
 7382TIP3    H146341   4.360   7.471   4.201  0.2647 -0.4695 -0.1674
 7382TIP3    H246342   4.371   7.458   4.051 -0.6452 -0.9682 -0.2005
 7383TIP3   OH246343   7.296   2.484   2.656  0.4071 -0.3573  0.2304
 7383TIP3    H146344   7.232   2.426   2.615 -0.1542  1.0486 -0.9573
 7383TIP3    H246345   7.266   2.572   2.636  3.5218  0.4219 -1.7547
 7384TIP3   OH246346   3.631   2.062   4.354 -0.1949  0.0701 -0.7052
 7384TIP3    H146347   3.679   1.979   4.365 -1.3210 -0.3897  1.2169
 7384TIP3    H246348   3.676   2.124   4.411 -0.1271  0.4579 -1.1688
 7385TIP3   OH246349   0.359   3.207   2.205  0.5368  0.3735 -0.3863
 7385TIP3    H146350   0.354   3.201   2.300  1.4542 -2.1481 -0.4370
 7385TIP3    H246351   0.268   3.198   2.176  0.5013 -1.7955  0.2015
 7386TIP3   OH246352   5.746   6.592   4.074 -0.0339 -0.0688 -0.3736
 7386TIP3    H146353   5.733   6.522   4.011 -0.0892 -0.8625  0.5032
 7386TIP3    H246354   5.669   6.647   4.065  0.2429  0.1764 -1.4164
 7387TIP3   OH246355   1.352   1.675   4.708 -0.2853 -0.0355 -0.1119
 7387TIP3    H146356   1.358   1.711   4.796  1.3969 -0.0849 -0.1754
 7387TIP3    H246357   1.353   1.580   4.720 -2.1288 -0.0780 -0.0919
 7388TIP3   OH246358   3.073   0.818   3.923  0.2786  0.0913  0.0287
 7388TIP3    H146359   3.081   0.906   3.959  0.5426  0.1411 -0.1516
 7388TIP3    H246360   3.123   0.763   3.984 -1.1111 -0.1713  0.9781
 7389TIP3   OH246361   2.166   3.141   2.554 -0.2100 -0.2036  0.5616
 7389TIP3    H146362   2.209   3.202   2.614 -0.0315 -0.2687  0.5009
 7389TIP3    H246363   2.236   3.111   2.496 -0.2757 -0.5433  0.6546
 7390TIP3   OH246364   1.012   1.198   3.998  0.1110 -0.7820 -0.1056
 7390TIP3    H146365   1.085   1.255   3.972 -1.2791  1.1706  0.0473
 7390TIP3    H246366   1.007   1.207   4.093  0.1247 -1.5193 -0.0275
 7391TIP3   OH246367   4.119   4.260   2.930 -0.2040 -0.1043  0.0806
 7391TIP3    H146368   4.188   4.326   2.921 -0.5011  0.1455 -0.4803
 7391TIP3    H246369   4.157   4.181   2.890  0.9468 -0.9217  2.6215
 7392TIP3   OH246370   1.610   1.274   2.748 -0.1865 -0.4325 -1.3490
 7392TIP3    H146371   1.705   1.281   2.749  0.1189 -1.9493  3.4487
 7392TIP3    H246372   1.593   1.184   2.723 -0.3492 -0.3897 -1.3936
 7393TIP3   OH246373   1.300   7.127   3.801 -0.4448 -0.1982  0.3967
 7393TIP3    H146374   1.341   7.213   3.809 -0.4849 -0.2102  0.7325
 7393TIP3    H246375   1.233   7.139   3.734  0.4684 -0.3181 -0.5682
 7394TIP3   OH246376   1.895   2.548   4.964 -0.3003 -0.3642 -0.5300
 7394TIP3    H146377   1.895   2.453   4.958 -0.8869 -0.3506 -0.9044
 7394TIP3    H246378   1.923   2.567   5.053 -1.7312 -0.9352  0.0693
 7395TIP3   OH246379   2.873   2.066   3.701  0.0565 -0.2810 -0.2559
 7395TIP3    H146380   2.908   1.995   3.754 -0.2363  1.1322  1.9522
 7395TIP3    H246381   2.786   2.082   3.737 -0.6780 -0.0732 -2.0165
 7396TIP3   OH246382   4.790   7.508   3.939  0.6377 -0.8447  0.4772
 7396TIP3    H146383   4.873   7.524   3.985  1.1845 -0.2681 -0.6614
 7396TIP3    H246384   4.787   7.575   3.871 -0.3762 -1.3694 -0.0187
 7397TIP3   OH246385   4.816   2.702   4.310 -0.1649 -0.3701  0.0809
 7397TIP3    H146386   4.868   2.658   4.243 -0.3526  0.3164 -0.5358
 7397TIP3    H246387   4.845   2.664   4.392 -0.4077 -1.7105 -0.4354
 7398TIP3   OH246388   1.482   3.015   2.328  0.1223 -0.7441  0.1238
 7398TIP3    H146389   1.490   2.924   2.298  0.1169 -0.8649  0.4896
 7398TIP3    H246390   1.500   3.011   2.422  0.5403 -0.3065  0.0637
 7399TIP3   OH246391   2.066   3.518   2.714  0.1864 -0.5527  0.2072
 7399TIP3    H146392   2.125   3.522   2.639  0.6008 -0.2376  0.5423
 7399TIP3    H246393   1.986   3.476   2.680  0.4996 -0.7361 -0.3147
 7400TIP3   OH246394   4.214   4.986   3.062  0.1458  0.3268 -0.3431
 7400TIP3    H146395   4.224   4.893   3.085  0.3976  0.5676  0.5661
 7400TIP3    H246396   4.303   5.016   3.046 -0.0973 -0.0775 -2.7264
 7401TIP3   OH246397   3.066   4.948   2.228 -0.6792  0.2761  0.9053
 7401TIP3    H146398   3.115   4.982   2.153 -0.1645  0.5034  1.3361
 7401TIP3    H246399   3.049   4.856   2.206  1.3316 -0.2749  1.4157
 7402TIP3   OH246400   5.139   2.885   4.098 -0.4349  0.2539  0.1609
 7402TIP3    H146401   5.198   2.958   4.115  0.6798 -1.1884  3.2067
 7402TIP3    H246402   5.185   2.833   4.032 -0.9678  1.8751 -1.5854
 7403TIP3   OH246403   3.183   3.293   2.564 -0.3163 -0.2197  0.1506
 7403TIP3    H146404   3.104   3.302   2.510  0.6384 -0.0442 -1.2690
 7403TIP3    H246405   3.180   3.202   2.595 -0.5678 -0.5183 -0.7295
 7404TIP3   OH246406   2.533   5.257   2.069 -0.0192  0.0243 -0.6036
 7404TIP3    H146407   2.487   5.289   2.147  0.5174 -0.2636 -0.1638
 7404TIP3    H246408   2.540   5.163   2.082 -0.6887 -0.1438 -1.4140
 7405TIP3   OH246409   1.325   7.379   4.030 -0.1475 -0.0016  0.8395
 7405TIP3    H146410   1.230   7.380   4.021  0.0204  0.3659 -1.4308
 7405TIP3    H246411   1.355   7.454   3.978  1.2698  1.9121  4.1227
 7406TIP3   OH246412   4.170   4.502   3.523  0.0831  0.0310  0.5676
 7406TIP3    H146413   4.157   4.597   3.521  1.7952  0.2995  0.3809
 7406TIP3    H246414   4.104   4.467   3.464 -0.7863  1.0725  0.8935
 7407TIP3   OH246415   7.072   2.146   3.900 -0.1615  0.5543 -0.2364
 7407TIP3    H146416   7.004   2.079   3.897  0.7121 -0.3455 -0.5588
 7407TIP3    H246417   7.121   2.135   3.818  0.1474  1.4330 -0.1850
 7408TIP3   OH246418   6.753   4.422   3.868 -0.0857 -0.3627  0.1169
 7408TIP3    H146419   6.716   4.440   3.782  1.7224 -2.4342 -1.2276
 7408TIP3    H246420   6.705   4.346   3.899 -1.4636  1.0124  1.5041
 7409TIP3   OH246421   5.658   6.311   4.794 -0.1327 -0.2058  0.7769
 7409TIP3    H146422   5.695   6.395   4.769 -2.0094  0.2877 -0.6101
 7409TIP3    H246423   5.576   6.333   4.838 -0.1155 -1.2877  1.3765
 7410TIP3   OH246424   5.804   2.304   2.600  0.3089  0.7698 -0.1302
 7410TIP3    H146425   5.731   2.254   2.637  0.4151  0.6411 -0.0936
 7410TIP3    H246426   5.873   2.296   2.665  0.5405  0.4359 -0.4169
 7411TIP3   OH246427   5.843   0.201   2.503 -0.3879 -0.0402  0.0992
 7411TIP3    H146428   5.914   0.263   2.489  0.4043 -0.4646  1.9383
 7411TIP3    H246429   5.880   0.116   2.480 -0.8439 -0.0856 -0.5074
 7412TIP3   OH246430   5.056   1.386   2.663  0.4769 -0.1789  0.0282
 7412TIP3    H146431   4.974   1.386   2.713  0.2915 -2.5223 -0.1648
 7412TIP3    H246432   5.033   1.428   2.580 -0.2176  0.2168  0.4101
 7413TIP3   OH246433   2.729   0.194   3.068 -0.5467  0.4796 -0.2791
 7413TIP3    H146434   2.745   0.127   3.135  0.8787  2.0885  1.0774
 7413TIP3    H246435   2.675   0.149   3.002  1.8220 -2.5459 -0.3626
 7414TIP3   OH246436   1.075   7.281   3.206  0.5445  0.6470 -0.4659
 7414TIP3    H146437   1.135   7.318   3.141 -0.2027  0.1419 -1.4745
 7414TIP3    H246438   1.132   7.235   3.267  1.1939  0.1253 -1.4316
 7415TIP3   OH246439   0.499   2.375   5.063  0.5628 -0.2239  0.5845
 7415TIP3    H146440   0.421   2.416   5.102 -0.2077 -1.8113  0.7643
 7415TIP3    H246441   0.548   2.449   5.025 -1.0273  0.8041  0.4491
 7416TIP3   OH246442   7.655   0.841   2.941 -1.0128  0.2259 -0.6635
 7416TIP3    H146443   7.625   0.861   2.852  0.8605 -0.5013 -1.5118
 7416TIP3    H246444   7.735   0.893   2.951 -0.6099 -0.5354  0.1843
 7417TIP3   OH246445   3.802   3.363   4.005 -0.2062  0.6718 -0.1299
 7417TIP3    H146446   3.709   3.363   4.028 -0.0730 -0.2730  0.4535
 7417TIP3    H246447   3.821   3.454   3.984 -1.6183  0.6365 -1.7584
 7418TIP3   OH246448   0.335   4.759   3.988  0.5833 -0.4206  0.2641
 7418TIP3    H146449   0.240   4.763   4.001  0.6592  2.1909  0.4275
 7418TIP3    H246450   0.346   4.698   3.915 -1.3890  0.5185 -0.8997
 7419TIP3   OH246451   6.455   1.207   3.642 -0.1787 -0.1154  0.5099
 7419TIP3    H146452   6.389   1.205   3.573  0.7832  1.1815 -0.4981
 7419TIP3    H246453   6.449   1.295   3.679  1.3128  0.2235  0.0287
 7420TIP3   OH246454   5.413   2.833   2.395 -0.6151  0.1708 -0.2733
 7420TIP3    H146455   5.422   2.755   2.450 -1.8035 -0.0777 -0.4038
 7420TIP3    H246456   5.463   2.812   2.316  0.5137  0.2505  0.3942
 7421TIP3   OH246457   4.016   5.918   3.777 -0.6804  0.2418 -0.6772
 7421TIP3    H146458   3.981   5.963   3.854 -1.3090 -2.5013  0.7677
 7421TIP3    H246459   4.111   5.926   3.786 -0.6910 -1.0503  1.1169
 7422TIP3   OH246460   4.488   5.619   2.462  0.6102 -0.0526 -0.4913
 7422TIP3    H146461   4.394   5.610   2.447  0.2600  0.0205  1.4259
 7422TIP3    H246462   4.517   5.531   2.486  0.6210  0.2951  0.8580
 7423TIP3   OH246463   2.060   4.452   4.678  0.2044  0.1897 -0.3010
 7423TIP3    H146464   1.984   4.467   4.734  0.4874  2.4095 -0.4074
 7423TIP3    H246465   2.047   4.365   4.641 -2.0757  0.3526  0.0086
 7424TIP3   OH246466   0.061   4.747   4.026 -0.4060  0.3051  0.1982
 7424TIP3    H146467  -0.014   4.756   4.085  1.0064 -0.2528  2.1817
 7424TIP3    H246468   0.023   4.719   3.943 -2.3326 -0.7241  1.3631
 7425TIP3   OH246469   0.936   0.628   4.731 -0.0929 -0.8967  0.1471
 7425TIP3    H146470   0.962   0.537   4.744  1.4523 -0.4210  0.6089
 7425TIP3    H246471   0.856   0.637   4.782  1.9694 -0.9676  3.7851
 7426TIP3   OH246472   0.238   3.972   2.742  0.1770  0.5605 -0.2069
 7426TIP3    H146473   0.142   3.970   2.747  0.2095  1.8918  1.7078
 7426TIP3    H246474   0.257   4.030   2.668 -0.4682  0.5687 -0.3730
 7427TIP3   OH246475   3.378   1.259   4.364 -0.3628 -0.7590 -0.6826
 7427TIP3    H146476   3.330   1.178   4.345 -0.8155 -0.4955 -0.6757
 7427TIP3    H246477   3.364   1.273   4.458 -0.6099 -0.4690 -0.7592
 7428TIP3   OH246478   6.392   2.180   3.931 -0.3325  0.2094  0.4289
 7428TIP3    H146479   6.334   2.190   4.007 -0.2990 -0.5060  0.5567
 7428TIP3    H246480   6.333   2.187   3.855 -0.3111  1.2978  0.4989
 7429TIP3   OH246481   2.214   4.304   2.440  0.6057  0.0322  0.0004
 7429TIP3    H146482   2.244   4.341   2.523  0.5611 -0.4097  0.2185
 7429TIP3    H246483   2.214   4.378   2.379 -0.0824  0.5220  0.5826
 7430TIP3   OH246484   6.957   5.851   2.602  0.3263  0.0696 -0.3101
 7430TIP3    H146485   6.959   5.855   2.698 -0.5803  1.5285 -0.3063
 7430TIP3    H246486   6.956   5.943   2.575  0.5937 -0.3257 -1.7279
 7431TIP3   OH246487   6.083   3.941   3.100 -0.2449  0.0539  0.2771
 7431TIP3    H146488   6.122   3.976   3.020 -1.3170  2.7165  0.8026
 7431TIP3    H246489   6.133   3.982   3.171 -0.6000 -0.6685  0.9579
 7432TIP3   OH246490   4.717   5.979   3.193 -0.0773 -0.0212 -0.1363
 7432TIP3    H146491   4.671   6.048   3.242 -0.5823 -1.2698  1.2401
 7432TIP3    H246492   4.656   5.953   3.125 -1.1675 -1.1640  1.2271
 7433TIP3   OH246493   1.806   1.175   4.985  0.3195  0.5021  0.5331
 7433TIP3    H146494   1.895   1.160   5.018  0.2740  1.5389  1.1691
 7433TIP3    H246495   1.819   1.206   4.896  0.6004  0.6534  0.6238
 7434TIP3   OH246496   5.499   2.714   4.736  0.2938  0.5190  0.1418
 7434TIP3    H146497   5.504   2.700   4.831 -2.2853  1.3904  0.4947
 7434TIP3    H246498   5.479   2.627   4.701  0.3009  0.3620  0.5148
 7435TIP3   OH246499   7.613   4.651   3.798 -0.1330  0.7272 -0.3954
 7435TIP3    H146500   7.591   4.617   3.711 -0.6121  1.3045 -0.5092
 7435TIP3    H246501   7.560   4.600   3.858 -3.3353  3.2599 -0.7826
 7436TIP3   OH246502   5.206   0.533   3.826  0.1337 -0.6956 -0.0830
 7436TIP3    H146503   5.188   0.542   3.732 -0.7237 -1.6378 -0.0279
 7436TIP3    H246504   5.234   0.442   3.836  1.3088 -0.2961  0.4240
 7437TIP3   OH246505   7.145   3.405   2.674  0.1230 -0.2918  0.0575
 7437TIP3    H146506   7.192   3.342   2.620  0.2291 -0.7610  0.6917
 7437TIP3    H246507   7.127   3.359   2.756  0.3702  0.5621  0.6067
 7438TIP3   OH246508   3.841   4.039   3.098 -0.0596 -0.3191  0.2785
 7438TIP3    H146509   3.935   4.022   3.112 -0.5839 -1.7924  2.7944
 7438TIP3    H246510   3.798   3.966   3.143 -2.4404  1.3755  0.9140
 7439TIP3   OH246511   2.468   0.185   4.631 -0.4617 -0.1359 -0.2496
 7439TIP3    H146512   2.415   0.116   4.591  0.0103  0.1213 -1.3599
 7439TIP3    H246513   2.461   0.169   4.725 -1.2509 -1.0286 -0.4412
 7440TIP3   OH246514   2.159   1.951   3.632  0.0026  0.1638  0.0401
 7440TIP3    H146515   2.109   1.883   3.677 -1.4898  0.1258 -1.5655
 7440TIP3    H246516   2.228   1.904   3.585  0.7319  0.0755  1.1716
 7441TIP3   OH246517   7.607   4.099   4.327  0.3757 -0.1789 -0.4041
 7441TIP3    H146518   7.629   4.050   4.406  1.2391  1.9246  0.7553
 7441TIP3    H246519   7.520   4.135   4.345 -0.3407 -1.4026 -1.3268
 7442TIP3   OH246520   6.351   2.898   3.322  0.2222  0.1091 -0.1595
 7442TIP3    H146521   6.390   2.983   3.342 -0.9192  0.7041 -0.3402
 7442TIP3    H246522   6.425   2.842   3.299  1.1167  0.7144  1.0954
 7443TIP3   OH246523   1.344   4.135   2.870 -0.5595  0.4373 -0.1492
 7443TIP3    H146524   1.271   4.092   2.916  0.9761 -1.3788  0.7254
 7443TIP3    H246525   1.308   4.157   2.784 -2.6004  1.0836  0.8143
 7444TIP3   OH246526   2.369   1.849   3.881 -0.2128 -0.0079  0.4080
 7444TIP3    H146527   2.276   1.850   3.859 -0.0030 -0.4806 -0.5481
 7444TIP3    H246528   2.412   1.881   3.801  0.4818 -0.3406  0.6476
 7445TIP3   OH246529   5.385   4.811   2.799  0.1386  0.1013  0.0711
 7445TIP3    H146530   5.440   4.847   2.869  0.1393 -0.2837  0.2662
 7445TIP3    H246531   5.349   4.889   2.755 -0.4733  0.3325  0.9710
 7446TIP3   OH246532   1.670   2.822   5.222 -0.1919 -0.3975  0.2628
 7446TIP3    H146533   1.628   2.761   5.161 -1.7161  0.3768  0.4799
 7446TIP3    H246534   1.601   2.885   5.243  1.7351  2.4422 -1.2636
 7447TIP3   OH246535   1.164   2.341   4.436  0.1019 -0.2633 -0.0668
 7447TIP3    H146536   1.092   2.404   4.437 -0.0249 -0.4088 -0.0294
 7447TIP3    H246537   1.147   2.288   4.358  0.5593  0.1573 -0.4551
 7448TIP3   OH246538   3.933   1.449   3.747  0.6029 -0.3236  0.1449
 7448TIP3    H146539   3.936   1.378   3.684  0.6883 -0.6204  0.4780
 7448TIP3    H246540   4.025   1.475   3.757  0.5531 -0.0482 -0.1082
 7449TIP3   OH246541   3.527   1.684   4.003  0.1949  0.2281  0.0116
 7449TIP3    H146542   3.504   1.769   4.040 -1.7739  0.1746 -0.9508
 7449TIP3    H246543   3.483   1.620   4.059  1.5934 -0.2066  0.6794
 7450TIP3   OH246544   0.640   3.643   3.751 -0.0960  0.4426  0.3218
 7450TIP3    H146545   0.588   3.616   3.676 -0.2567  2.2075 -0.2323
 7450TIP3    H246546   0.671   3.731   3.729  1.4958  0.2179  1.4803
 7451TIP3   OH246547   3.097   6.424   4.342  0.0585 -0.1561 -0.1757
 7451TIP3    H146548   3.019   6.372   4.363 -0.5097  0.6606 -0.2385
 7451TIP3    H246549   3.170   6.365   4.363 -0.5634 -0.9116 -0.0538
 7452TIP3   OH246550   0.339   5.904   5.009  0.3045 -0.3909 -0.3471
 7452TIP3    H146551   0.388   5.833   5.049 -0.1639 -0.1092  0.7708
 7452TIP3    H246552   0.406   5.958   4.967  0.9561 -0.1567  0.9252
 7453TIP3   OH246553   0.112   6.849   4.025  0.5258 -0.0657  0.4174
 7453TIP3    H146554   0.032   6.885   4.064  1.0683  1.7180 -0.0414
 7453TIP3    H246555   0.178   6.857   4.095  0.7548  0.2668  0.1657
 7454TIP3   OH246556   6.271   3.096   2.738 -0.1818 -0.1571 -0.8492
 7454TIP3    H146557   6.191   3.145   2.719  0.7056  1.3070 -0.9313
 7454TIP3    H246558   6.263   3.072   2.830 -0.2112  0.9860 -0.5432
 7455TIP3   OH246559   6.407   4.397   2.693 -0.6926 -0.2701 -0.1706
 7455TIP3    H146560   6.460   4.459   2.644 -1.9046  1.2118  0.2986
 7455TIP3    H246561   6.468   4.328   2.720  0.9967  1.3734  0.4145
 7456TIP3   OH246562   6.256   1.902   3.907 -0.0997 -0.4276  0.0923
 7456TIP3    H146563   6.204   1.922   3.985 -1.9833  1.2853 -1.4754
 7456TIP3    H246564   6.234   1.972   3.845 -0.4393 -2.8412 -2.7625
 7457TIP3   OH246565   4.070   0.079   3.176  0.6357 -0.4002  0.1251
 7457TIP3    H146566   4.103   0.119   3.256  0.4030 -0.6111  0.3316
 7457TIP3    H246567   4.012   0.145   3.138 -1.5877 -1.3322  1.6650
 7458TIP3   OH246568   0.288   5.281   4.386 -0.2885  0.5306 -0.1995
 7458TIP3    H146569   0.338   5.355   4.420  0.5243  0.3834 -1.0437
 7458TIP3    H246570   0.254   5.237   4.465 -0.7448  1.7488  0.3066
 7459TIP3   OH246571   5.031   5.515   3.057 -0.1776  0.2209 -0.0152
 7459TIP3    H146572   4.983   5.558   3.128  0.6230  0.9106  0.1102
 7459TIP3    H246573   5.112   5.564   3.049  1.0363 -1.5949  0.5153
 7460TIP3   OH246574   6.047   4.276   3.359  0.1668 -0.1765  0.1351
 7460TIP3    H146575   6.004   4.351   3.401  0.9707  0.3867 -0.0262
 7460TIP3    H246576   6.021   4.281   3.267 -0.6287 -0.7176  0.3204
 7461TIP3   OH246577   5.890   6.721   3.782  0.3173 -0.3927 -0.4992
 7461TIP3    H146578   5.910   6.652   3.845  0.3614  1.3019  1.4463
 7461TIP3    H246579   5.969   6.730   3.729  1.2932 -0.0728  0.9688
 7462TIP3   OH246580   2.340   2.630   4.471  0.1014  0.1368 -0.4553
 7462TIP3    H146581   2.423   2.582   4.469 -0.4091 -0.7680 -0.8359
 7462TIP3    H246582   2.312   2.626   4.562 -0.5730 -1.4770 -0.6879
 7463TIP3   OH246583   2.768   2.893   3.093  0.5775  0.1987  0.0902
 7463TIP3    H146584   2.851   2.864   3.055  2.8795  2.7153  2.6454
 7463TIP3    H246585   2.740   2.965   3.037  0.3941 -0.3108 -0.4792
 7464TIP3   OH246586   1.132   1.854   4.241 -0.5312  0.1953  0.7006
 7464TIP3    H146587   1.139   1.821   4.151  1.4946  2.8404 -0.2677
 7464TIP3    H246588   1.221   1.849   4.275 -0.8370  1.2371  1.7465
 7465TIP3   OH246589   2.563   4.574   3.673  0.3388  0.1238  0.5783
 7465TIP3    H146590   2.554   4.500   3.733 -0.6155  1.2917  1.9469
 7465TIP3    H246591   2.621   4.635   3.719 -0.4079  1.0421  0.3251
 7466TIP3   OH246592   6.775   1.951   3.924  0.4393  0.0601  0.2736
 7466TIP3    H146593   6.740   2.038   3.948 -0.0862 -0.1385  0.2440
 7466TIP3    H246594   6.701   1.892   3.937  1.0854 -0.5481  1.2734
 7467TIP3   OH246595   7.596   4.722   4.304  0.6325  0.1209 -0.3162
 7467TIP3    H146596   7.691   4.726   4.318  0.4201  2.8772  1.2796
 7467TIP3    H246597   7.567   4.648   4.356  1.8070 -0.1336  0.0073
 7468TIP3   OH246598   1.055   3.593   3.775  0.0558 -0.2277 -0.2072
 7468TIP3    H146599   1.120   3.535   3.816  1.8927  1.6322 -0.3009
 7468TIP3    H246600   1.052   3.669   3.833 -0.8325  0.4116 -1.0701
 7469TIP3   OH246601   5.566   6.002   4.212  0.5331 -0.6359 -0.4465
 7469TIP3    H146602   5.562   5.983   4.306 -1.3551  1.3716 -0.0508
 7469TIP3    H246603   5.588   6.095   4.207 -0.8232 -0.3590 -1.9370
 7470TIP3   OH246604   4.836   1.698   3.577  0.5075 -0.5045  0.3805
 7470TIP3    H146605   4.888   1.663   3.505 -1.5664  0.1011 -1.5132
 7470TIP3    H246606   4.798   1.621   3.619  0.6734 -0.8000 -0.0072
 7471TIP3   OH246607   2.587   1.378   3.515  0.5480 -0.1263 -0.3498
 7471TIP3    H146608   2.574   1.472   3.499  1.3064  0.0981  0.3204
 7471TIP3    H246609   2.526   1.335   3.455 -0.4965  0.8141 -0.0081
 7472TIP3   OH246610   7.574   4.050   4.028  0.6455 -0.3409  0.0232
 7472TIP3    H146611   7.577   4.077   4.120  1.6805  0.6209 -0.2760
 7472TIP3    H246612   7.652   3.997   4.015  1.3724  0.8378 -0.6659
 7473TIP3   OH246613   7.624   4.321   3.378  0.6776  0.5396 -0.2015
 7473TIP3    H146614   7.634   4.412   3.349  1.9519 -0.0623 -1.8080
 7473TIP3    H246615   7.663   4.269   3.308 -0.5515 -1.3007  0.4179
 7474TIP3   OH246616   4.060   2.611   2.344  0.2965 -0.3761  0.3637
 7474TIP3    H146617   4.082   2.525   2.379 -0.4779 -0.4411  0.7220
 7474TIP3    H246618   4.113   2.620   2.265  1.6423 -0.4668  1.2287
 7475TIP3   OH246619   4.573   5.887   2.093 -0.1743 -0.2644  0.1927
 7475TIP3    H146620   4.489   5.885   2.047 -0.7590 -2.3356  1.2354
 7475TIP3    H246621   4.601   5.796   2.096  1.4340  0.2197  1.0965
 7476TIP3   OH246622   3.363   2.718   2.123 -0.6660 -0.0590  0.4977
 7476TIP3    H146623   3.339   2.707   2.215  0.2374  1.1749  0.9151
 7476TIP3    H246624   3.382   2.812   2.115 -0.7752 -0.1451 -0.9636
 7477TIP3   OH246625   7.153   3.346   3.494  0.4129  0.1028 -0.0172
 7477TIP3    H146626   7.135   3.397   3.415 -0.6750  0.9308  0.7351
 7477TIP3    H246627   7.066   3.319   3.525  0.8061  0.0038  1.0309
 7478TIP3   OH246628   6.880   5.702   5.020 -0.3761  0.5351 -0.2892
 7478TIP3    H146629   6.828   5.653   4.956  1.5815 -0.0915 -1.5148
 7478TIP3    H246630   6.918   5.635   5.076  0.5224  0.8079 -0.5543
 7479TIP3   OH246631   3.981   2.289   8.562 -0.0113  0.4590  0.1255
 7479TIP3    H146632   4.067   2.327   8.544  0.3718 -0.4556 -0.0536
 7479TIP3    H246633   3.960   2.239   8.483  0.0373 -0.6380  0.7828
 7480TIP3   OH246634   6.087   6.242   2.662 -0.2012  0.2403 -0.2374
 7480TIP3    H146635   6.060   6.195   2.583 -0.3841 -0.1918  0.0837
 7480TIP3    H246636   6.083   6.177   2.732 -0.2623  0.6811  0.1734
 7481TIP3   OH246637   5.912   6.125   3.128  0.4848  0.0315  0.4062
 7481TIP3    H146638   5.954   6.117   3.042  0.2605  2.2419  0.0315
 7481TIP3    H246639   5.877   6.038   3.145  1.0004 -0.6088 -1.4940
 7482TIP3   OH246640   7.497   1.980   3.295  0.1750 -0.1288 -0.0196
 7482TIP3    H146641   7.419   1.976   3.350  0.7427  0.3170  0.8482
 7482TIP3    H246642   7.509   1.891   3.264 -0.5464 -0.2496  0.0148
 7483TIP3   OH246643   5.262   5.979   2.402  0.0225  0.6000  0.4630
 7483TIP3    H146644   5.336   6.006   2.348  1.7389 -0.6781  2.0429
 7483TIP3    H246645   5.235   5.895   2.366 -1.3338  1.4711 -0.6752
 7484TIP3   OH246646   6.960   0.786   4.177  0.3075 -0.2817  0.2852
 7484TIP3    H146647   6.900   0.712   4.168 -0.3212  0.1599  0.6921
 7484TIP3    H246648   6.925   0.836   4.251  1.4050 -0.2157  0.7881
 7485TIP3   OH246649   2.638   7.411   2.951 -0.4177  0.0888  0.0968
 7485TIP3    H146650   2.604   7.382   2.866 -1.0167 -0.5827  0.5506
 7485TIP3    H246651   2.583   7.366   3.015  1.3453 -1.0682  0.8723
 7486TIP3   OH246652   4.971   5.075   4.344  0.4570  0.1650  0.4070
 7486TIP3    H146653   4.983   5.096   4.251 -1.7685 -0.9055 -0.1865
 7486TIP3    H246654   5.017   4.992   4.355  0.5541  0.1919  0.2217
 7487TIP3   OH246655   5.900   0.941   3.530  0.7049  0.0954  0.3685
 7487TIP3    H146656   5.902   1.037   3.534  0.0990  0.2866 -2.1077
 7487TIP3    H246657   5.937   0.920   3.445 -3.2260 -1.5618 -1.1728
 7488TIP3   OH246658   5.798   0.150   4.094  0.6351 -0.4680  0.2300
 7488TIP3    H146659   5.776   0.176   4.184  0.3288 -0.3842  0.1337
 7488TIP3    H246660   5.829   0.230   4.053 -0.2008 -0.2703 -0.0339
 7489TIP3   OH246661   7.199   0.946   2.280  0.4314  0.2242 -0.2239
 7489TIP3    H146662   7.189   0.851   2.272 -1.1690  0.4507 -1.5780
 7489TIP3    H246663   7.255   0.970   2.206  0.2384  0.3881 -0.3204
 7490TIP3   OH246664   1.169   4.549   3.947 -0.5405  0.5369  0.4683
 7490TIP3    H146665   1.114   4.509   3.880  1.2706  0.7174 -1.2065
 7490TIP3    H246666   1.233   4.481   3.969  0.0815  1.1423  0.5629
 7491TIP3   OH246667   3.936   0.429   4.500 -0.9300 -0.1676 -0.0218
 7491TIP3    H146668   3.887   0.510   4.517 -0.1003  0.8188 -2.0699
 7491TIP3    H246669   3.958   0.396   4.588 -0.0549  2.5885  0.8978
 7492TIP3   OH246670   2.478   2.408   4.108 -0.0764  0.1602 -0.0433
 7492TIP3    H146671   2.414   2.382   4.042  1.1986 -0.2578 -1.1469
 7492TIP3    H246672   2.438   2.383   4.191 -1.8406  0.9515 -0.6103
 7493TIP3   OH246673   2.708   6.062   2.892 -0.9200 -0.5174 -0.4160
 7493TIP3    H146674   2.748   6.132   2.840 -4.2337  0.6295 -1.6668
 7493TIP3    H246675   2.699   5.989   2.830 -3.0294  0.1628 -1.0090
 7494TIP3   OH246676   1.558   4.408   3.889  0.3006  0.2621  0.0101
 7494TIP3    H146677   1.471   4.440   3.865 -0.4638 -1.4717  0.3239
 7494TIP3    H246678   1.541   4.337   3.950  1.9831  0.3160  0.5907
 7495TIP3   OH246679   3.923   4.446   3.423 -0.2015  0.1943  0.5482
 7495TIP3    H146680   3.881   4.398   3.494  0.8439 -0.2752  0.8792
 7495TIP3    H246681   3.923   4.385   3.349 -1.7867  0.8812 -0.0539
 7496TIP3   OH246682   7.513   5.770   4.151  0.3679  0.1537 -0.5081
 7496TIP3    H146683   7.580   5.707   4.177  0.9687  0.8516 -0.3255
 7496TIP3    H246684   7.543   5.802   4.065  1.0548  1.5299  0.2161
 7497TIP3   OH246685   6.124   5.115   3.939 -0.4919 -0.4923  0.4941
 7497TIP3    H146686   6.060   5.121   4.010  0.3263 -1.3655  1.3253
 7497TIP3    H246687   6.209   5.121   3.982  0.0143 -0.0116 -0.5289
 7498TIP3   OH246688   1.926   4.881   3.147 -0.7609  0.3255 -0.0626
 7498TIP3    H146689   1.891   4.969   3.129  0.7752  1.6035  2.6319
 7498TIP3    H246690   1.873   4.849   3.220  0.4241  0.2184  0.7844
 7499TIP3   OH246691   3.958   5.693   2.591  0.0485 -0.5440 -0.1515
 7499TIP3    H146692   3.866   5.705   2.614  0.3606 -1.0960  1.5674
 7499TIP3    H246693   3.975   5.759   2.524 -1.6002 -0.4527 -0.5200
 7500TIP3   OH246694   3.915   6.604   2.449  0.3011 -0.2684 -0.2685
 7500TIP3    H146695   3.846   6.664   2.477 -0.0930 -0.1263 -1.4998
 7500TIP3    H246696   3.989   6.624   2.507 -0.2570  0.4873  0.2012
 7501TIP3   OH246697   6.221   2.038   3.402 -0.3815 -0.3247 -1.0249
 7501TIP3    H146698   6.201   2.039   3.496  3.4594  1.4406 -0.0108
 7501TIP3    H246699   6.261   1.953   3.387 -0.7111 -0.4833 -1.0228
 7502TIP3   OH246700   6.431   0.778   3.106 -0.0940 -0.4258 -0.0348
 7502TIP3    H146701   6.383   0.728   3.040 -0.5987  0.8061 -0.6356
 7502TIP3    H246702   6.401   0.742   3.190 -0.8525 -0.7602 -0.4373
 7503TIP3   OH246703   2.617   5.337   2.429 -0.0465  0.7155 -0.1113
 7503TIP3    H146704   2.590   5.317   2.519 -2.7994 -0.0954 -1.0102
 7503TIP3    H246705   2.535   5.342   2.380  1.3365  1.6616 -2.5089
 7504TIP3   OH246706   3.496   4.003   4.803  0.5540 -0.4457 -0.0114
 7504TIP3    H146707   3.424   4.062   4.826  0.6329 -0.8880  1.5139
 7504TIP3    H246708   3.572   4.061   4.794  0.2746 -0.1218 -0.3186
 7505TIP3   OH246709   3.162   0.394   3.343  0.6651  0.3410 -0.6955
 7505TIP3    H146710   3.197   0.346   3.418  0.6048 -0.0948 -0.9458
 7505TIP3    H246711   3.195   0.483   3.354  0.2709  0.3976  0.1081
 7506TIP3   OH246712   6.119   5.548   2.762  0.4719 -0.2815  0.0456
 7506TIP3    H146713   6.030   5.523   2.737  1.0193 -0.6643 -1.7129
 7506TIP3    H246714   6.150   5.477   2.818  0.0187 -0.6451 -0.1625
 7507TIP3   OH246715   7.652   6.439   2.639 -0.0557  0.6162 -0.6091
 7507TIP3    H146716   7.630   6.460   2.730  1.5040 -4.0103  1.0920
 7507TIP3    H246717   7.746   6.425   2.639 -0.3647 -2.2130 -2.1656
 7508TIP3   OH246718   3.328   5.204   2.343  0.0599  0.5440  0.0172
 7508TIP3    H146719   3.390   5.277   2.352 -0.7322  1.2148  0.1206
 7508TIP3    H246720   3.302   5.206   2.251 -0.8128  1.1100  0.2639
 7509TIP3   OH246721   4.309   4.367   2.186  0.4911  0.1427 -0.1635
 7509TIP3    H146722   4.300   4.397   2.276 -0.0947 -1.8081  0.4879
 7509TIP3    H246723   4.228   4.394   2.143  0.8713  1.2800 -0.1845
 7510TIP3   OH246724   1.518   4.880   3.879 -0.2961  0.0150  0.2963
 7510TIP3    H146725   1.544   4.971   3.891 -1.0491  0.2750  0.0196
 7510TIP3    H246726   1.595   4.829   3.905  0.1220  0.7259  0.4716
 7511TIP3   OH246727   2.743   6.816   3.031 -1.0190  0.2877 -0.2866
 7511TIP3    H146728   2.661   6.865   3.038 -0.0398  2.3111 -1.7377
 7511TIP3    H246729   2.790   6.834   3.112 -0.6998  1.8189 -0.7768
 7512TIP3   OH246730   5.178   6.340   2.982  0.0581 -0.9059  0.0144
 7512TIP3    H146731   5.190   6.368   3.072  0.1104  0.7641 -0.4776
 7512TIP3    H246732   5.084   6.348   2.967  0.3545  1.8084 -0.9353
 7513TIP3   OH246733   0.264   0.520   3.619 -0.1985  0.1218  0.3224
 7513TIP3    H146734   0.266   0.447   3.557 -0.7530 -0.7986  1.3611
 7513TIP3    H246735   0.193   0.576   3.587  1.8432  1.6138 -1.9622
 7514TIP3   OH246736   5.018   7.260   3.937  0.0836 -0.4558 -0.1857
 7514TIP3    H146737   5.039   7.308   4.017  1.4646 -2.2276  0.5756
 7514TIP3    H246738   4.996   7.172   3.966  1.9001 -1.5251 -1.7949
 7515TIP3   OH246739   5.642   1.652   3.281 -0.9554 -0.3284 -0.3362
 7515TIP3    H146740   5.587   1.688   3.212 -1.1898 -0.4063 -0.1899
 7515TIP3    H246741   5.695   1.585   3.236  0.8610  1.4739 -1.0175
 7516TIP3   OH246742   3.599   4.968   4.227  0.2396  0.0466 -0.5034
 7516TIP3    H146743   3.679   5.009   4.195  0.2441 -0.7899 -1.6253
 7516TIP3    H246744   3.620   4.875   4.233 -0.1762  0.0102  0.7308
 7517TIP3   OH246745   3.016   3.281   3.951  0.5993  0.3965  0.6663
 7517TIP3    H146746   2.932   3.315   3.918  0.3028 -0.9986 -0.1077
 7517TIP3    H246747   3.011   3.293   4.045 -0.5483  0.2156  0.6458
 7518TIP3   OH246748   3.567   4.946   3.248  0.3099 -0.0582 -0.0373
 7518TIP3    H146749   3.493   4.984   3.200  0.0805 -1.7809 -1.1496
 7518TIP3    H246750   3.573   4.997   3.328 -1.4567  0.7606 -0.3837
 7519TIP3   OH246751   2.298   7.364   3.793  0.0229  0.1699 -0.4552
 7519TIP3    H146752   2.251   7.433   3.745 -1.4007 -0.6671 -0.3348
 7519TIP3    H246753   2.377   7.348   3.740 -1.7068 -1.0423 -2.8840
 7520TIP3   OH246754   1.965   1.053   2.925 -0.3772  0.4213  0.0801
 7520TIP3    H146755   2.035   1.115   2.907 -0.2250  0.4478  0.7520
 7520TIP3    H246756   1.978   0.983   2.860  1.6012 -0.6604  1.5272
 7521TIP3   OH246757   2.590   6.934   3.520 -0.6082  0.1768 -0.4246
 7521TIP3    H146758   2.499   6.939   3.552 -0.5829 -0.3259 -0.2732
 7521TIP3    H246759   2.617   7.025   3.513 -0.5546  0.3098  1.1894
 7522TIP3   OH246760   1.493   4.713   3.153 -0.5729  0.3351 -0.6979
 7522TIP3    H146761   1.578   4.668   3.162 -0.3074  0.6602 -1.5106
 7522TIP3    H246762   1.433   4.660   3.205 -0.0544 -0.3913 -0.8204
 7523TIP3   OH246763   3.145   7.620   3.760  1.0592 -0.1150 -0.0085
 7523TIP3    H146764   3.130   7.610   3.666 -1.2435 -0.2332  0.3135
 7523TIP3    H246765   3.114   7.537   3.798 -0.1214  0.7761  1.0292
 7524TIP3   OH246766   1.196   1.998   3.327 -0.3648 -0.1938  0.2083
 7524TIP3    H146767   1.275   2.045   3.355 -0.9684  0.4606  0.8282
 7524TIP3    H246768   1.190   2.015   3.233  0.7827 -1.0819 -0.0522
 7525TIP3   OH246769   0.201   1.541   4.209  0.9309 -0.4850  0.1484
 7525TIP3    H146770   0.167   1.511   4.125  1.0983 -0.7294  0.1695
 7525TIP3    H246771   0.161   1.628   4.221  0.0052 -0.9293  0.3573
 7526TIP3   OH246772   3.139   3.691   4.106  0.7487 -0.3933  0.8647
 7526TIP3    H146773   3.231   3.716   4.109  0.8113 -0.3929 -0.6432
 7526TIP3    H246774   3.118   3.667   4.197  2.2646 -0.5725  1.1900
 7527TIP3   OH246775   2.358   4.424   2.671 -0.3290  0.4046 -0.6339
 7527TIP3    H146776   2.331   4.512   2.643  0.3398  0.3410 -1.4912
 7527TIP3    H246777   2.413   4.440   2.748 -0.6244  0.7031 -0.4807
 7528TIP3   OH246778   5.093   2.561   4.231  0.2754 -0.3356  0.4738
 7528TIP3    H146779   5.140   2.553   4.148  0.4019  3.7026 -0.0177
 7528TIP3    H246780   5.162   2.566   4.298  0.3391  0.1444  0.3751
 7529TIP3   OH246781   6.572   7.402   4.059  0.8097 -0.0050 -0.0190
 7529TIP3    H146782   6.552   7.446   4.142 -0.8998  0.5712 -0.6861
 7529TIP3    H246783   6.615   7.468   4.006  0.2124  0.2243 -0.2343
 7530TIP3   OH246784   4.214   0.356   4.015 -0.3929 -0.6009  0.1136
 7530TIP3    H146785   4.282   0.377   3.951 -0.8714  0.6655 -0.0047
 7530TIP3    H246786   4.253   0.375   4.100 -0.3768 -0.5059  0.0845
 7531TIP3   OH246787   1.671   2.621   3.926  0.4589 -0.3261  0.3357
 7531TIP3    H146788   1.597   2.665   3.884 -0.3245  0.5555  2.4711
 7531TIP3    H246789   1.742   2.686   3.923  0.8145 -0.7566 -0.7459
 7532TIP3   OH246790   1.936   5.801   2.928  0.0474 -0.3532 -0.5022
 7532TIP3    H146791   1.939   5.897   2.921 -0.1552 -0.3404 -0.4222
 7532TIP3    H246792   1.927   5.771   2.837  1.8296 -0.3748 -0.7106
 7533TIP3   OH246793   4.179   1.033   3.012  0.8733 -0.0597  0.5330
 7533TIP3    H146794   4.251   0.972   2.997  0.4185 -0.7122  0.9343
 7533TIP3    H246795   4.107   0.978   3.045  0.2002  0.5766  0.1708
 7534TIP3   OH246796   3.670   0.228   2.959  0.3422  0.2664 -0.3091
 7534TIP3    H146797   3.649   0.223   3.053 -1.4312 -1.1640 -0.7354
 7534TIP3    H246798   3.623   0.306   2.929 -0.4317 -0.2003 -0.3190
 7535TIP3   OH246799   2.552   3.501   2.332 -0.8199  0.5736  0.5757
 7535TIP3    H146800   2.582   3.512   2.242 -0.1248 -0.6913  0.6347
 7535TIP3    H246801   2.632   3.495   2.385 -1.1112 -1.6558  0.8805
 7536TIP3   OH246802   4.326   0.269   2.178 -0.0306 -0.1527 -0.4361
 7536TIP3    H146803   4.241   0.228   2.191 -0.5590  0.4322 -1.8718
 7536TIP3    H246804   4.331   0.337   2.246 -0.6676 -0.2406 -0.2989
 7537TIP3   OH246805   3.129   1.006   2.287  0.0770  0.0809 -0.2771
 7537TIP3    H146806   3.094   1.085   2.247 -1.4068  0.3395  1.4008
 7537TIP3    H246807   3.115   1.019   2.381  1.0905 -1.5692  0.1347
 7538TIP3   OH246808   5.024   5.633   4.431  0.5830 -0.2810  0.1017
 7538TIP3    H146809   5.022   5.544   4.395 -1.2417  0.1351 -0.9530
 7538TIP3    H246810   4.935   5.647   4.464  1.0363  0.9299  0.8747
 7539TIP3   OH246811   0.434   0.947   3.985 -0.5051  0.0750 -0.4887
 7539TIP3    H146812   0.495   0.890   3.938 -1.1340  1.5008 -3.2620
 7539TIP3    H246813   0.489   0.991   4.051  0.9139 -0.5679 -1.1900
 7540TIP3   OH246814   6.070   1.433   3.997  0.3225  0.0889  0.2729
 7540TIP3    H146815   6.046   1.524   4.014  0.5631 -0.2175  2.6991
 7540TIP3    H246816   6.160   1.426   4.031  0.6620 -0.8284 -0.7655
 7541TIP3   OH246817   7.455   5.723   4.446  0.5289  0.2379 -0.0538
 7541TIP3    H146818   7.384   5.661   4.454  0.7829  0.1648  3.1620
 7541TIP3    H246819   7.493   5.707   4.360 -0.2136 -3.1670  0.1387
 7542TIP3   OH246820   5.019   0.313   3.655 -0.0671  0.4944  0.1141
 7542TIP3    H146821   5.047   0.359   3.575 -1.1561 -0.0686 -0.6145
 7542TIP3    H246822   4.988   0.228   3.624  2.0712 -0.8775  1.4479
 7543TIP3   OH246823   1.073   1.682   4.560  0.3968  0.4538  0.6265
 7543TIP3    H146824   1.163   1.698   4.589  0.5606  0.0149  0.3712
 7543TIP3    H246825   1.033   1.769   4.559  0.9272  0.7015  0.3816
 7544TIP3   OH246826   3.927   6.359   3.872 -0.0550 -0.0032  0.4163
 7544TIP3    H146827   3.867   6.395   3.806 -0.8273 -1.2939  0.3677
 7544TIP3    H246828   3.892   6.390   3.955 -0.2808 -0.0262  0.3313
 7545TIP3   OH246829   5.031   4.814   2.489 -0.5378  0.0599 -0.2424
 7545TIP3    H146830   5.014   4.722   2.511  1.0633 -0.2716 -0.3162
 7545TIP3    H246831   5.115   4.833   2.530  0.1722  0.8685 -2.0155
 7546TIP3   OH246832   4.372   0.108   3.755 -0.5721 -0.8403 -0.1978
 7546TIP3    H146833   4.362   0.042   3.686  2.1206 -1.8961  0.2899
 7546TIP3    H246834   4.325   0.072   3.830 -3.2749  0.1827 -1.2785
 7547TIP3   OH246835   3.413   0.814   3.795 -0.0595  0.3383 -0.0973
 7547TIP3    H146836   3.469   0.750   3.750  0.0051  0.3335 -0.0096
 7547TIP3    H246837   3.417   0.892   3.740 -1.0650 -0.1015 -0.8344
 7548TIP3   OH246838   7.305   1.455   2.448 -0.1188 -0.5521 -0.0422
 7548TIP3    H146839   7.225   1.440   2.500  0.1101  0.3357  0.5874
 7548TIP3    H246840   7.350   1.526   2.493  0.3433 -0.0968 -1.1834
 7549TIP3   OH246841   5.513   4.048   4.397  0.1664  0.2635 -0.5074
 7549TIP3    H146842   5.566   4.074   4.322 -0.2043  1.7047 -0.3036
 7549TIP3    H246843   5.424   4.040   4.362  0.3168 -1.1874 -0.6422
 7550TIP3   OH246844   5.715   6.076   4.663  0.5279 -0.1122 -0.3000
 7550TIP3    H146845   5.695   6.022   4.741 -1.2892  2.0025  0.8323
 7550TIP3    H246846   5.695   6.165   4.691  0.4740  0.8045 -3.0302
 7551TIP3   OH246847   5.056   2.917   2.438 -0.6998  0.0029 -0.4296
 7551TIP3    H146848   5.018   2.972   2.507 -0.7928 -0.4335 -0.1319
 7551TIP3    H246849   5.022   2.830   2.455 -1.3769  0.0336 -1.5040
 7552TIP3   OH246850   4.548   4.601   4.657  0.6630 -0.2486  0.2319
 7552TIP3    H146851   4.616   4.535   4.642  0.8541  0.4132 -2.1431
 7552TIP3    H246852   4.468   4.560   4.623  0.5765  0.3174 -0.2514
 7553TIP3   OH246853   7.107   0.352   4.037  0.3792  0.1548  0.1891
 7553TIP3    H146854   7.060   0.391   3.963 -1.1345 -1.6182  0.1380
 7553TIP3    H246855   7.199   0.366   4.017 -0.0128  0.2246 -1.7799
 7554TIP3   OH246856   4.676   0.831   2.877 -0.0442 -0.2666  0.4743
 7554TIP3    H146857   4.769   0.852   2.867 -0.0235 -0.1445  0.8897
 7554TIP3    H246858   4.659   0.763   2.812 -0.3049  1.5868 -1.5356
 7555TIP3   OH246859   7.216   2.079   4.595 -0.1600 -0.3606 -0.0166
 7555TIP3    H146860   7.247   2.094   4.684 -2.6261  0.7081  0.7510
 7555TIP3    H246861   7.232   2.161   4.549 -0.8952 -0.1270  0.1208
 7556TIP3   OH246862   4.083   6.697   2.659 -0.5741 -0.3832  0.0288
 7556TIP3    H146863   4.057   6.674   2.748 -0.7094 -0.3080  0.0077
 7556TIP3    H246864   4.082   6.793   2.657 -0.6689 -0.3869 -0.0842
 7557TIP3   OH246865   5.271   5.022   2.276  0.2914 -1.2952 -0.2233
 7557TIP3    H146866   5.260   5.045   2.183  1.6292 -1.7760 -0.5339
 7557TIP3    H246867   5.339   5.082   2.307 -1.9506  0.6498  1.1917
 7558TIP3   OH246868   1.952   7.675   2.966  0.4408 -0.2707  0.1224
 7558TIP3    H146869   2.025   7.737   2.970  0.0819  0.2000 -0.4572
 7558TIP3    H246870   1.948   7.637   3.053 -0.0487  1.3635  0.8482
 7559TIP3   OH246871   1.646   7.175   2.467  0.6372 -0.3052 -0.0106
 7559TIP3    H146872   1.687   7.103   2.418  0.9132 -0.5904  0.6301
 7559TIP3    H246873   1.553   7.168   2.445  0.7756 -0.3312 -0.6152
 7560TIP3   OH246874   7.390   4.936   3.279 -0.4417  0.4178 -0.5836
 7560TIP3    H146875   7.364   5.010   3.333 -1.1404 -1.0645  1.2166
 7560TIP3    H246876   7.485   4.933   3.285 -0.4683  0.6812  0.0175
 7561TIP3   OH246877   4.439   7.193   3.586  0.0653  0.1841 -0.4962
 7561TIP3    H146878   4.427   7.175   3.493  1.1982 -1.4411 -0.3729
 7561TIP3    H246879   4.529   7.165   3.605 -0.3058 -0.0145  1.1887
 7562TIP3   OH246880   6.005   2.929   2.482 -0.2027  0.4119  0.0770
 7562TIP3    H146881   5.911   2.908   2.490 -0.0863  0.0868  0.6622
 7562TIP3    H246882   6.047   2.871   2.546  0.3372  0.9916  0.2458
 7563TIP3   OH246883   3.631   7.097   2.051 -0.1949  0.3072  0.4269
 7563TIP3    H146884   3.621   7.183   2.092  0.8444  1.3451 -1.3461
 7563TIP3    H246885   3.586   7.106   1.967  0.8160 -0.5249 -0.2267
 7564TIP3   OH246886   3.763   0.665   2.303  0.3432  0.6257  0.0217
 7564TIP3    H146887   3.759   0.635   2.394  1.1592 -3.5976 -1.1045
 7564TIP3    H246888   3.675   0.652   2.268  0.5778 -0.0454 -0.3472
 7565TIP3   OH246889   2.144   1.547   3.648  0.2483 -0.1915  0.2572
 7565TIP3    H146890   2.117   1.467   3.602  0.3057  0.0536 -0.2065
 7565TIP3    H246891   2.178   1.604   3.579  1.8454 -0.4403  0.7864
 7566TIP3   OH246892   4.441   2.930   2.478  0.2507  0.1848 -0.1675
 7566TIP3    H146893   4.502   2.864   2.445  1.3760  0.3480  1.4541
 7566TIP3    H246894   4.455   3.006   2.420  1.1674  0.0147 -0.1936
 7567TIP3   OH246895   6.842   6.196   2.567  0.1218  0.0744 -0.4096
 7567TIP3    H146896   6.835   6.291   2.578 -0.7106  0.0129 -0.3555
 7567TIP3    H246897   6.912   6.170   2.626  0.2182  0.6345 -0.2754
 7568TIP3   OH246898   5.256   5.851   2.897  0.0957 -0.0320  0.2723
 7568TIP3    H146899   5.202   5.826   2.972 -0.9507  0.8853 -0.1478
 7568TIP3    H246900   5.210   5.816   2.821 -0.8769  2.1970 -0.2410
 7569TIP3   OH246901   0.673   5.672   4.390  0.1972 -0.0672 -0.2109
 7569TIP3    H146902   0.603   5.710   4.337 -0.2714 -0.1013  0.3706
 7569TIP3    H246903   0.712   5.747   4.435  0.8079  0.0012 -0.8478
 7570TIP3   OH246904   0.488   2.621   3.438 -0.0698  0.2389  0.6733
 7570TIP3    H146905   0.539   2.637   3.359  0.1858 -0.2648  0.7320
 7570TIP3    H246906   0.545   2.650   3.510 -1.1050  2.7206  0.5998
 7571TIP3   OH246907   1.044   0.235   3.287  0.2078  0.0672 -0.4706
 7571TIP3    H146908   1.103   0.298   3.245 -0.8138  1.5031  0.1557
 7571TIP3    H246909   0.961   0.244   3.240 -0.5126  0.6147  0.8451
 7572TIP3   OH246910   0.080   6.203   4.744  0.3282 -0.4744 -0.6100
 7572TIP3    H146911   0.093   6.129   4.802  0.2279 -0.2712 -0.3242
 7572TIP3    H246912   0.115   6.175   4.660  1.6171 -0.3237 -0.1405
 7573TIP3   OH246913   1.024   3.846   3.981 -0.9193 -0.3981 -0.0298
 7573TIP3    H146914   1.037   3.794   4.060 -1.1144 -0.0247  0.2495
 7573TIP3    H246915   1.101   3.826   3.927 -0.4605 -0.1699  0.5222
 7574TIP3   OH246916   4.957   2.434   3.214 -0.3175  0.3213  0.8937
 7574TIP3    H146917   4.906   2.405   3.138 -0.8413 -1.9461  2.0119
 7574TIP3    H246918   5.047   2.439   3.183 -0.6080 -0.0248 -0.0158
 7575TIP3   OH246919   1.144   1.863   3.582  0.0964 -0.3186  0.4874
 7575TIP3    H146920   1.153   1.913   3.500  2.7227  2.3722  2.1965
 7575TIP3    H246921   1.203   1.788   3.570  3.5618  2.0845  1.1076
 7576TIP3   OH246922   7.253   5.716   3.925  0.4878 -0.3339 -0.6433
 7576TIP3    H146923   7.269   5.801   3.964 -1.4588 -0.6251  0.9672
 7576TIP3    H246924   7.213   5.735   3.840  1.4439  0.3193 -0.9627
 7577TIP3   OH246925   6.545   4.201   2.990  0.0044 -0.5466  0.5619
 7577TIP3    H146926   6.481   4.272   2.981  0.1093 -0.5328 -0.1375
 7577TIP3    H246927   6.566   4.176   2.900  1.2138 -0.3463  0.7688
 7578TIP3   OH246928   3.170   7.042   2.631 -0.3525  0.0326  0.4056
 7578TIP3    H146929   3.214   7.118   2.592  2.8952 -1.0408  1.6881
 7578TIP3    H246930   3.241   6.988   2.665 -2.6943 -2.2410  2.0282
 7579TIP3   OH246931   3.080   4.664   2.254 -0.4186 -0.3534 -0.5881
 7579TIP3    H146932   3.089   4.671   2.349 -0.6083 -1.6857 -0.4542
 7579TIP3    H246933   3.038   4.579   2.240  1.9621 -1.4038 -1.9546
 7580TIP3   OH246934   1.253   6.665   2.957 -0.6131  0.0294  0.3753
 7580TIP3    H146935   1.198   6.721   3.013  0.5662 -0.1318  1.7650
 7580TIP3    H246936   1.315   6.726   2.917 -2.1502  0.3189 -1.7580
 7581TIP3   OH246937   7.527   0.975   4.224 -0.5719  0.5995  0.0747
 7581TIP3    H146938   7.578   0.996   4.303 -1.9851  1.7085  0.7344
 7581TIP3    H246939   7.562   1.033   4.157 -1.5689  2.0845  0.7849
 7582TIP3   OH246940   0.039   6.326   3.584  0.1118 -0.6788  0.0478
 7582TIP3    H146941   0.001   6.306   3.669  0.7221 -0.8565  0.2860
 7582TIP3    H246942   0.056   6.420   3.586  0.4428 -0.7424  0.2541
 7583TIP3   OH246943   0.207   5.709   4.435 -0.2783  0.0209  0.2215
 7583TIP3    H146944   0.225   5.636   4.495 -0.5135  0.2241  0.5456
 7583TIP3    H246945   0.149   5.766   4.485 -0.6152  0.1090 -0.2659
 7584TIP3   OH246946   1.687   5.438   2.089 -0.0046  0.1754  0.1628
 7584TIP3    H146947   1.773   5.419   2.052  0.3178  0.7317  0.6249
 7584TIP3    H246948   1.701   5.511   2.149 -0.3729 -1.1819  2.0025
 7585TIP3   OH246949   5.540   4.114   4.713  0.2257  0.0812 -0.5634
 7585TIP3    H146950   5.521   4.107   4.620  1.2693  0.6581 -0.8289
 7585TIP3    H246951   5.555   4.023   4.741  0.7077 -0.0229 -1.1365
 7586TIP3   OH246952   5.570   4.354   4.069 -0.2771 -0.6844 -0.4810
 7586TIP3    H146953   5.523   4.312   4.142  0.3460  0.2109  0.4629
 7586TIP3    H246954   5.611   4.431   4.108  1.1107 -0.8673 -1.5072
 7587TIP3   OH246955   6.371   2.475   3.937  0.5418  0.6465 -0.0568
 7587TIP3    H146956   6.333   2.530   4.006 -0.2439  1.1210 -0.8538
 7587TIP3    H246957   6.350   2.386   3.964  1.8850  0.6806  1.2817
 7588TIP3   OH246958   7.049   4.172   4.160 -0.0226  0.1290 -0.3187
 7588TIP3    H146959   7.024   4.095   4.211 -0.2758 -0.7180 -1.6513
 7588TIP3    H246960   7.010   4.157   4.074  0.5974  1.3737 -0.8467
 7589TIP3   OH246961   4.143   2.293   2.916  0.1407 -0.1228  0.6157
 7589TIP3    H146962   4.121   2.378   2.954 -0.0087 -0.7039  1.8773
 7589TIP3    H246963   4.237   2.298   2.899  0.0858  0.3826  0.4469
 7590TIP3   OH246964   1.965   0.027   3.823 -0.5221  0.1808 -0.1545
 7590TIP3    H146965   1.878   0.057   3.848 -0.3741  0.5037 -0.0270
 7590TIP3    H246966   2.022   0.103   3.835 -0.1008 -0.2109  0.3914
 7591TIP3   OH246967   3.385   5.788   3.183  0.9591  0.4835 -0.3517
 7591TIP3    H146968   3.451   5.811   3.118  2.8064  2.0729  1.9151
 7591TIP3    H246969   3.435   5.768   3.262 -1.2171  3.5052  2.0463
 7592TIP3   OH246970   6.824   5.936   4.869  0.2912  0.3124 -0.7113
 7592TIP3    H146971   6.841   5.850   4.908 -1.6808 -0.3764 -1.2667
 7592TIP3    H246972   6.875   5.997   4.923  1.5165 -1.1510 -0.1414
 7593TIP3   OH246973   4.048   1.945   3.414 -0.3773  0.4151  0.2703
 7593TIP3    H146974   4.136   1.913   3.398 -1.2539 -1.3054 -1.5236
 7593TIP3    H246975   4.059   2.038   3.433  1.6471  0.9085 -2.6295
 7594TIP3   OH246976   0.835   2.612   2.299  0.3498  0.1993 -0.1635
 7594TIP3    H146977   0.788   2.557   2.236  0.1426  0.5294 -0.2979
 7594TIP3    H246978   0.902   2.554   2.335  0.6161  0.0671 -0.8481
 7595TIP3   OH246979   7.588   6.291   2.398 -0.4091 -0.3870 -0.1685
 7595TIP3    H146980   7.622   6.362   2.344 -2.1378 -0.0907 -0.9134
 7595TIP3    H246981   7.604   6.320   2.488  0.7472 -0.0077 -0.4726
 7596TIP3   OH246982   7.021   2.824   2.904  0.3925 -0.3522  0.0661
 7596TIP3    H146983   7.096   2.814   2.845 -0.1944 -1.0993 -0.5883
 7596TIP3    H246984   7.044   2.774   2.982  0.0346 -1.7866 -0.6963
 7597TIP3   OH246985   7.609   1.890   3.905 -0.3369 -0.1686  0.0987
 7597TIP3    H146986   7.637   1.819   3.846 -1.2823  0.6895 -1.4318
 7597TIP3    H246987   7.690   1.936   3.926 -0.0494 -0.0884 -1.1005
 7598TIP3   OH246988   2.482   7.134   2.301 -0.0883 -0.6900 -0.2904
 7598TIP3    H146989   2.508   7.115   2.391  0.0109 -0.2979 -0.2344
 7598TIP3    H246990   2.391   7.106   2.296  0.8046 -3.8826 -1.0203
 7599TIP3   OH246991   2.235   5.444   2.682 -0.2800  0.8686  0.1312
 7599TIP3    H146992   2.321   5.447   2.726 -0.1637  1.9918 -0.1433
 7599TIP3    H246993   2.226   5.353   2.655  1.8326  1.1205 -1.7656
 7600TIP3   OH246994   7.520   4.437   2.815 -0.1860  0.0069 -0.1660
 7600TIP3    H146995   7.593   4.497   2.831 -1.1581  1.4970 -1.0283
 7600TIP3    H246996   7.539   4.361   2.870  2.1681  0.1876 -0.6106
 7601TIP3   OH246997   3.425   3.287   3.046  0.4077  0.1687  0.1758
 7601TIP3    H146998   3.486   3.305   2.974 -0.1866 -1.5524 -0.8310
 7601TIP3    H246999   3.353   3.349   3.033  0.4763  0.1124 -0.4978
 7602TIP3   OH247000   7.048   4.441   5.425  0.2279  0.4746  0.3639
 7602TIP3    H147001   7.106   4.514   5.403  0.1854 -0.1714 -2.2268
 7602TIP3    H247002   6.998   4.425   5.345  0.3185 -2.4760  0.7903
 7603TIP3   OH247003   0.134   2.686   3.518 -0.5449  0.3362  0.0194
 7603TIP3    H147004   0.192   2.615   3.548  0.3518  0.8393 -0.4834
 7603TIP3    H247005   0.117   2.737   3.597 -1.8860 -0.8764  0.5734
 7604TIP3   OH247006   6.235   5.611   4.422 -0.3835 -0.6192 -0.4144
 7604TIP3    H147007   6.222   5.613   4.516  1.5623 -1.0000 -0.0997
 7604TIP3    H247008   6.211   5.700   4.392  1.9816  0.5529  0.9121
 7605TIP3   OH247009   2.306   0.934   3.219  0.1050  0.1556 -0.2643
 7605TIP3    H147010   2.374   0.997   3.198 -0.9140  0.5614 -2.6820
 7605TIP3    H247011   2.243   0.983   3.272  0.3045  0.5823 -0.4204
 7606TIP3   OH247012   4.330   3.859   3.588 -0.0106  0.1456 -0.0900
 7606TIP3    H147013   4.280   3.906   3.655  0.8825  1.1786 -0.1111
 7606TIP3    H247014   4.326   3.916   3.511 -0.8486 -0.9278 -0.8584
 7607TIP3   OH247015   3.375   3.706   3.801  0.3501  0.3769  0.0134
 7607TIP3    H147016   3.465   3.719   3.772  0.5646  1.3530  1.0482
 7607TIP3    H247017   3.343   3.633   3.748  1.4462  0.6110 -1.0169
 7608TIP3   OH247018   3.813   1.129   2.453 -0.2277 -0.3540  0.2623
 7608TIP3    H147019   3.876   1.126   2.525 -1.8913  0.6849  1.8475
 7608TIP3    H247020   3.840   1.058   2.394  1.5431 -0.8399  1.5757
 7609TIP3   OH247021   6.712   1.748   4.394 -0.0467  0.2797  0.0825
 7609TIP3    H147022   6.746   1.754   4.484 -0.2670  1.5910  0.1003
 7609TIP3    H247023   6.622   1.780   4.401 -1.2142 -2.6476 -0.0503
 7610TIP3   OH247024   1.376   1.126   4.877 -0.1745  0.0559  0.5328
 7610TIP3    H147025   1.283   1.102   4.871  0.1098 -0.7338 -1.7832
 7610TIP3    H247026   1.376   1.216   4.909 -1.7994  0.4128 -0.3868
 7611TIP3   OH247027   4.646   1.827   4.177 -0.7700  0.5882  0.1020
 7611TIP3    H147028   4.636   1.752   4.237 -0.0423  2.0321  2.1322
 7611TIP3    H247029   4.712   1.797   4.113  0.6059 -0.0528  1.7270
 7612TIP3   OH247030   6.351   0.351   3.127 -0.0639 -0.0232 -0.0577
 7612TIP3    H147031   6.260   0.352   3.097  0.2449  0.9767 -1.0504
 7612TIP3    H247032   6.402   0.365   3.047  0.8733  1.0669  0.6974
 7613TIP3   OH247033   0.071   2.700   2.654  0.0149  0.4352  0.0366
 7613TIP3    H147034  -0.007   2.664   2.611 -0.9931  0.6887  1.5497
 7613TIP3    H247035   0.107   2.762   2.591 -1.0847  0.4008 -0.6562
 7614TIP3   OH247036   0.100   7.655   2.777 -0.1902 -0.3670  0.5955
 7614TIP3    H147037   0.092   7.708   2.698  0.1662 -1.4736 -0.2065
 7614TIP3    H247038   0.193   7.635   2.783 -0.4354 -1.6661  0.3491
 7615TIP3   OH247039   2.808   1.736   4.742 -0.0128  0.0739  0.1396
 7615TIP3    H147040   2.734   1.797   4.740  0.2911  0.4397 -0.2438
 7615TIP3    H247041   2.882   1.789   4.712  0.7252  0.1436  1.9678
 7616TIP3   OH247042   0.997   0.172   2.967 -0.2173 -0.4219 -0.1567
 7616TIP3    H147043   0.977   0.213   2.882 -0.0698  1.2310  0.5699
 7616TIP3    H247044   0.963   0.234   3.032  0.0360 -1.4707  1.0088
 7617TIP3   OH247045   4.760   0.399   4.137  0.1642 -0.6112  0.0008
 7617TIP3    H147046   4.851   0.425   4.123  0.1688  0.8540  2.2430
 7617TIP3    H247047   4.766   0.324   4.196  0.0111  1.8985  3.5538
 7618TIP3   OH247048   3.506   2.788   3.084  0.2182 -0.3265  0.3041
 7618TIP3    H147049   3.441   2.834   3.138  2.1689  1.3411  1.3845
 7618TIP3    H247050   3.571   2.755   3.147  2.5502  1.6589 -0.8905
 7619TIP3   OH247051   0.717   2.020   2.719 -0.1035 -0.1162 -0.1801
 7619TIP3    H147052   0.669   1.954   2.769 -1.7742  2.8420  2.4938
 7619TIP3    H247053   0.657   2.046   2.649 -0.9839  1.0073  0.9514
 7620TIP3   OH247054   2.195   4.987   2.307 -0.3075  0.1330 -0.0955
 7620TIP3    H147055   2.261   4.962   2.243 -0.1711  1.6023 -0.5819
 7620TIP3    H247056   2.242   5.042   2.370 -0.5940 -0.6888  0.8565
 7621TIP3   OH247057   1.883   6.901   3.241  0.3320  0.1183  0.2816
 7621TIP3    H147058   1.891   6.867   3.330 -0.6727  0.4162  0.4970
 7621TIP3    H247059   1.867   6.995   3.252 -1.7262 -0.1311 -0.1043
 7622TIP3   OH247060   4.868   6.608   5.166 -0.8741 -0.8288 -0.1521
 7622TIP3    H147061   4.902   6.698   5.170 -0.0985 -1.1575  1.0435
 7622TIP3    H247062   4.899   6.567   5.246  1.7311 -3.2387 -2.2073
 7623TIP3   OH247063   1.627   2.920   2.549 -0.2966 -0.2291  0.4565
 7623TIP3    H147064   1.687   2.888   2.616  1.4385  1.6174 -0.1337
 7623TIP3    H247065   1.593   2.840   2.508  1.9799 -1.3677  0.6280
 7624TIP3   OH247066   5.282   3.036   3.701  0.6490 -0.3292  0.8327
 7624TIP3    H147067   5.222   2.968   3.732 -1.4289  1.2013  0.4616
 7624TIP3    H247068   5.332   2.995   3.631  0.0680 -1.7107  1.2051
 7625TIP3   OH247069   5.311   5.032   3.045  0.5569 -0.3441  0.1754
 7625TIP3    H147070   5.271   4.946   3.047  0.2077 -0.3497 -2.7912
 7625TIP3    H247071   5.240   5.093   3.064  0.2553 -0.5888 -0.1759
 7626TIP3   OH247072   2.807   5.029   2.580 -0.2524 -0.1294 -0.1012
 7626TIP3    H147073   2.867   4.984   2.639  0.1478 -0.1287 -0.5064
 7626TIP3    H247074   2.722   5.026   2.625 -0.4157 -1.9546 -0.4393
 7627TIP3   OH247075   4.849   6.146   4.098 -0.3767  0.3396  0.0664
 7627TIP3    H147076   4.883   6.219   4.150 -3.1116  1.7597  0.0196
 7627TIP3    H247077   4.860   6.174   4.007  1.5235 -0.7927 -0.1113
 7628TIP3   OH247078   4.564   6.426   4.169 -0.0683 -0.1672 -0.0258
 7628TIP3    H147079   4.564   6.508   4.219 -0.9139  0.3773 -0.8783
 7628TIP3    H247080   4.498   6.440   4.100  0.4191 -1.2286 -0.7338
 7629TIP3   OH247081   5.224   1.750   3.804  0.5749 -0.8766 -0.0996
 7629TIP3    H147082   5.223   1.834   3.850 -1.9055  0.3905 -2.2586
 7629TIP3    H247083   5.179   1.690   3.863 -0.3745  0.1103  0.2168
 7630TIP3   OH247084   0.223   6.389   3.202  0.3259  0.0125  0.3820
 7630TIP3    H147085   0.152   6.332   3.231  0.9753 -1.0816 -0.1363
 7630TIP3    H247086   0.303   6.344   3.229  1.0490 -1.5243 -3.6862
 7631TIP3   OH247087   6.610   2.520   4.487  0.1994  0.3065  0.4280
 7631TIP3    H147088   6.650   2.587   4.432  0.0123  0.8930  0.9972
 7631TIP3    H247089   6.516   2.534   4.479  0.1141 -0.6845 -0.4294
 7632TIP3   OH247090   5.946   6.008   4.509 -0.4330 -0.2572 -0.9540
 7632TIP3    H147091   5.858   6.010   4.472 -0.9314 -1.3987  0.0951
 7632TIP3    H247092   5.932   5.992   4.603  0.8684  0.1670 -0.6744
 7633TIP3   OH247093   3.567   6.240   2.892 -0.4801 -0.0951 -0.4907
 7633TIP3    H147094   3.532   6.322   2.927 -1.6938 -1.0046  0.5256
 7633TIP3    H247095   3.524   6.231   2.807 -0.1620  0.4263 -0.7151
 7634TIP3   OH247096   7.565   7.437   3.675  0.4845  0.0040 -0.1542
 7634TIP3    H147097   7.627   7.414   3.605 -0.3853 -0.1418 -0.8993
 7634TIP3    H247098   7.608   7.509   3.722  1.6665 -0.7676 -0.0002
 7635TIP3   OH247099   7.059   3.994   3.693  0.1704  0.6240  0.0457
 7635TIP3    H147100   7.103   3.915   3.661 -0.8108  0.2598 -0.4428
 7635TIP3    H247101   7.095   4.065   3.639  0.9141  0.4976  0.3591
 7636TIP3   OH247102   5.378   0.271   4.807  0.4921 -0.2392 -0.1172
 7636TIP3    H147103   5.460   0.314   4.786  1.3786 -0.5190  2.4382
 7636TIP3    H247104   5.310   0.336   4.787  1.4783  0.7355 -0.3693
 7637TIP3   OH247105   3.418   5.758   2.902  0.3288  0.0893  0.0147
 7637TIP3    H147106   3.441   5.846   2.931 -0.6026  1.1012 -2.1828
 7637TIP3    H247107   3.323   5.759   2.893  0.3947 -0.8278 -1.0006
 7638TIP3   OH247108   2.089   0.145   3.303  0.2552 -0.1936 -0.2609
 7638TIP3    H147109   2.034   0.221   3.323  1.3359  0.6762 -0.4401
 7638TIP3    H247110   2.150   0.177   3.237 -0.8244 -1.9283 -2.2146
 7639TIP3   OH247111   1.244   3.508   4.301 -0.1756  0.2252  0.1434
 7639TIP3    H147112   1.205   3.431   4.344  0.1696  0.3137  0.6239
 7639TIP3    H247113   1.279   3.560   4.373  0.8619  0.1339 -0.2789
 7640TIP3   OH247114   4.439   5.360   4.266 -0.3803  0.3114 -0.5441
 7640TIP3    H147115   4.433   5.433   4.203  1.2846  2.5360  1.6747
 7640TIP3    H247116   4.374   5.380   4.332 -1.9241 -1.8678 -1.2869
 7641TIP3   OH247117   7.237   4.864   3.004  0.0176 -0.2182 -0.7208
 7641TIP3    H147118   7.269   4.948   2.969 -1.0006  0.1665 -0.7769
 7641TIP3    H247119   7.287   4.851   3.084 -0.6415  1.0650 -0.0721
 7642TIP3   OH247120   1.425   3.936   3.558  0.4565 -0.4986 -0.1581
 7642TIP3    H147121   1.348   3.884   3.537  0.5715 -0.9631  0.5530
 7642TIP3    H247122   1.390   4.020   3.586  0.2313 -0.5514 -0.2756
 7643TIP3   OH247123   7.401   7.441   2.373  0.2694 -0.1033  0.2359
 7643TIP3    H147124   7.310   7.451   2.399  0.2343 -0.7907  0.3962
 7643TIP3    H247125   7.439   7.529   2.385  0.1276 -0.2481  2.1222
 7644TIP3   OH247126   5.375   1.995   2.689  0.0408 -0.1961  0.1453
 7644TIP3    H147127   5.365   1.929   2.620  0.1712 -0.3006  0.2259
 7644TIP3    H247128   5.323   1.962   2.762 -0.3222  0.0516  0.0012
 7645TIP3   OH247129   2.754   1.887   3.441 -0.1817  0.2066 -0.0033
 7645TIP3    H147130   2.707   1.884   3.524 -0.1593  1.6138  0.0882
 7645TIP3    H247131   2.772   1.980   3.427  1.1079 -0.1436 -0.8595
 7646TIP3   OH247132   6.686   6.489   2.797 -0.3350  0.3025  0.0473
 7646TIP3    H147133   6.676   6.394   2.788 -0.7162  0.2815  0.6243
 7646TIP3    H247134   6.724   6.500   2.885  1.1954  0.5979 -0.6168
 7647TIP3   OH247135   1.725   0.143   3.851 -0.2482  0.0028  0.8463
 7647TIP3    H147136   1.695   0.212   3.792 -0.5979 -0.8851 -0.0485
 7647TIP3    H247137   1.733   0.185   3.937  1.4512  1.6525 -0.0367
 7648TIP3   OH247138   2.160   7.308   3.238  0.4504 -0.0042 -0.1873
 7648TIP3    H147139   2.148   7.378   3.173 -0.2121  0.3690  0.3210
 7648TIP3    H247140   2.136   7.228   3.192  0.0214  0.2523 -0.4160
 7649TIP3   OH247141   7.130   7.469   2.404  0.1160 -0.1878  0.3944
 7649TIP3    H147142   7.095   7.381   2.418  1.8615 -0.6547  2.2466
 7649TIP3    H247143   7.077   7.525   2.460 -1.7175  0.2031 -1.6022
 7650TIP3   OH247144   6.610   1.387   4.185  0.4004 -0.5561 -0.0025
 7650TIP3    H147145   6.537   1.325   4.187  0.4967 -0.6629  0.9946
 7650TIP3    H247146   6.626   1.407   4.278  1.0816  0.1191 -0.2590
 7651TIP3   OH247147   0.432   5.212   3.844  0.3880 -0.6311 -0.4618
 7651TIP3    H147148   0.485   5.155   3.900  1.9404  0.8888 -0.2801
 7651TIP3    H247149   0.418   5.162   3.764 -0.3010 -2.1341  0.5545
 7652TIP3   OH247150   2.231   0.940   2.934 -0.7010  0.3910  0.3637
 7652TIP3    H147151   2.193   1.026   2.918 -1.1710  0.4879  1.8833
 7652TIP3    H247152   2.324   0.951   2.914 -0.9612  0.8901 -0.6782
 7653TIP3   OH247153   6.098   7.127   2.824  0.3954  0.1624 -0.0231
 7653TIP3    H147154   6.029   7.064   2.805  1.5084 -0.9180 -0.6451
 7653TIP3    H247155   6.065   7.211   2.792 -0.4113 -0.4228 -0.7514
 7654TIP3   OH247156   0.970   6.286   4.334 -0.4107 -0.6464  0.2629
 7654TIP3    H147157   1.006   6.317   4.417  0.3516 -0.6569 -0.0620
 7654TIP3    H247158   0.987   6.358   4.273 -1.8468 -0.2180  0.3263
 7655TIP3   OH247159   2.554   6.075   3.574 -0.2728 -0.2025  0.4058
 7655TIP3    H147160   2.491   6.127   3.624 -0.1583 -0.9154  1.3377
 7655TIP3    H247161   2.576   6.003   3.633 -0.0587 -1.0317 -0.6611
 7656TIP3   OH247162   5.994   2.496   4.208 -0.4045  0.7009 -0.5678
 7656TIP3    H147163   5.964   2.405   4.210  0.9122  0.2405 -0.7579
 7656TIP3    H247164   5.985   2.526   4.299 -0.9538  0.4259 -0.5261
 7657TIP3   OH247165   4.848   7.047   2.421  0.4726 -0.0607 -0.5996
 7657TIP3    H147166   4.880   6.960   2.442 -0.1807  0.1269  1.3168
 7657TIP3    H247167   4.758   7.049   2.452  0.6055  1.4313 -0.2111
 7658TIP3   OH247168   1.765   0.263   3.087  0.3041  0.1226  0.2342
 7658TIP3    H147169   1.784   0.235   3.176 -1.0119  3.1399  1.6276
 7658TIP3    H247170   1.827   0.334   3.071  0.3706 -0.2264 -1.1828
 7659TIP3   OH247171   2.597   1.539   2.789  0.3388  0.3222 -0.2118
 7659TIP3    H147172   2.524   1.489   2.825  0.1371 -0.4595 -1.6357
 7659TIP3    H247173   2.674   1.487   2.807  0.2294 -0.1046 -0.9179
 7660TIP3   OH247174   6.697   2.081   2.991 -0.4841 -0.1375  0.0645
 7660TIP3    H147175   6.636   2.139   2.946  0.9065  2.1691  0.9752
 7660TIP3    H247176   6.734   2.134   3.061  2.3926 -1.4575 -0.3002
 7661TIP3   OH247177   4.627   7.040   2.797 -0.4364 -0.2199  0.3804
 7661TIP3    H147178   4.722   7.041   2.791 -0.4709 -1.7558 -1.2828
 7661TIP3    H247179   4.597   7.098   2.727 -0.7519 -0.5093  0.2743
 7662TIP3   OH247180   1.775   4.468   4.775  0.1963 -0.8794 -0.1681
 7662TIP3    H147181   1.735   4.433   4.696  0.9870  1.9618 -1.9871
 7662TIP3    H247182   1.711   4.532   4.807  1.5837  1.0975 -1.0748
 7663TIP3   OH247183   0.206   6.064   3.587  0.1209  0.5947 -0.3629
 7663TIP3    H147184   0.296   6.078   3.618 -0.3039  1.1386  0.6891
 7663TIP3    H247185   0.167   6.152   3.587 -1.2336  0.0862  1.9167
 7664TIP3   OH247186   7.317   0.062   2.724 -0.1990  0.4212 -0.7358
 7664TIP3    H147187   7.249  -0.004   2.723 -0.8571  1.0680 -2.8934
 7664TIP3    H247188   7.369   0.042   2.803 -0.8524 -2.1156 -0.8816
 7665TIP3   OH247189   7.024   4.917   3.344 -0.7079  0.3173  0.0331
 7665TIP3    H147190   7.056   4.983   3.406  0.6096  0.1571 -0.4326
 7665TIP3    H247191   7.086   4.845   3.351 -0.7606  0.1220 -1.1612
 7666TIP3   OH247192   0.740   5.002   2.816  0.2585 -0.1152  0.3470
 7666TIP3    H147193   0.726   5.091   2.782 -3.8660 -0.6628  0.0556
 7666TIP3    H247194   0.770   4.952   2.741  0.2061  0.5679 -0.1379
 7667TIP3   OH247195   7.302   3.187   2.595  0.5161  0.4116 -0.6191
 7667TIP3    H147196   7.236   3.119   2.579  0.2995  0.2696  0.7666
 7667TIP3    H247197   7.370   3.170   2.530 -0.1589 -0.3020 -1.1594
 7668TIP3   OH247198   7.097   7.070   3.130  0.2465 -0.6130  0.0855
 7668TIP3    H147199   7.045   7.056   3.050 -0.1229 -0.0317  0.2153
 7668TIP3    H247200   7.106   6.983   3.169 -0.1317 -0.8044 -0.2488
 7669TIP3   OH247201   6.069   0.756   3.629 -0.1505 -0.1756 -0.1364
 7669TIP3    H147202   6.038   0.682   3.578 -2.6901 -0.4546  1.5905
 7669TIP3    H247203   6.015   0.829   3.600  0.2443  0.2834  0.2610
 7670TIP3   OH247204   1.325   4.755   4.061  0.2941 -0.0160 -0.2107
 7670TIP3    H147205   1.277   4.695   4.003 -0.0284  1.3194 -1.4013
 7670TIP3    H247206   1.374   4.811   4.001  0.8134  0.7210  0.8756
 7671TIP3   OH247207   1.531   2.161   4.057 -0.3257 -0.3717 -0.0142
 7671TIP3    H147208   1.526   2.065   4.054 -0.6418 -0.3719  0.3523
 7671TIP3    H247209   1.590   2.184   3.986 -0.6480 -0.8073 -0.4270
 7672TIP3   OH247210   7.547   5.683   2.710  0.3185 -0.4258  0.4458
 7672TIP3    H147211   7.502   5.766   2.722  2.7788  1.2148 -0.7009
 7672TIP3    H247212   7.591   5.666   2.793 -0.5385 -0.8671  0.8263
 7673TIP3   OH247213   4.386   2.905   3.498  0.4914  0.2763 -0.0675
 7673TIP3    H147214   4.308   2.852   3.479  1.0399 -1.1015  1.2812
 7673TIP3    H247215   4.452   2.871   3.438  0.6576 -0.1048  0.3292
 7674TIP3   OH247216   6.831   6.860   4.116 -0.5686 -0.5688 -0.3944
 7674TIP3    H147217   6.834   6.833   4.207 -0.2658 -0.5042 -0.3838
 7674TIP3    H247218   6.801   6.951   4.119  0.3945 -0.2465 -0.2878
 7675TIP3   OH247219   3.604   5.971   1.766  0.2546  0.1640  0.3986
 7675TIP3    H147220   3.524   5.949   1.815 -0.5530  0.3015 -0.8029
 7675TIP3    H247221   3.596   5.921   1.684  2.6206 -1.8018  1.2369
 7676TIP3   OH247222   2.011   4.229   3.212  0.0952  0.0413 -0.2803
 7676TIP3    H147223   2.011   4.137   3.239  1.8237  0.3044  0.8164
 7676TIP3    H247224   1.977   4.228   3.123  0.0183 -1.6612 -0.2652
 7677TIP3   OH247225   2.412   1.144   3.389 -0.0665  0.5609  0.0569
 7677TIP3    H147226   2.354   1.211   3.352 -0.0768  0.0480 -0.8787
 7677TIP3    H247227   2.454   1.103   3.313  0.3173 -0.1603  0.6400
 7678TIP3   OH247228   1.108   7.075   3.979  0.4333  0.4571  0.1425
 7678TIP3    H147229   1.185   7.059   3.924 -0.2261  1.2904 -1.0511
 7678TIP3    H247230   1.088   7.167   3.967 -0.1750  0.4841  1.2223
 7679TIP3   OH247231   3.947   0.468   3.285 -0.5705 -0.0468  0.1603
 7679TIP3    H147232   3.900   0.543   3.320  0.7266  1.3099 -0.8860
 7679TIP3    H247233   4.019   0.454   3.347 -0.9246 -0.5717  0.4606
 7680TIP3   OH247234   6.012   1.774   4.352  0.2958 -0.0225 -0.4419
 7680TIP3    H147235   6.081   1.724   4.396  0.8620  3.4526  3.2356
 7680TIP3    H247236   5.936   1.764   4.409 -1.0809 -0.5081 -2.2691
 7681TIP3   OH247237   1.693   1.815   2.391 -0.2473  0.0520 -0.1971
 7681TIP3    H147238   1.677   1.794   2.483  0.9810 -0.5193 -0.0936
 7681TIP3    H247239   1.706   1.910   2.390 -2.9032  0.4825 -0.2158
 7682TIP3   OH247240   7.228   4.809   2.222 -0.1418  0.0133 -0.0202
 7682TIP3    H147241   7.321   4.796   2.243 -0.3687 -0.0936  0.9486
 7682TIP3    H247242   7.199   4.724   2.190 -0.2009 -0.3088  0.8560
 7683TIP3   OH247243   6.568   4.626   2.113 -0.1080  0.0589  0.1829
 7683TIP3    H147244   6.547   4.717   2.134 -0.4876  0.0519 -0.1513
 7683TIP3    H247245   6.643   4.605   2.168 -0.3468  0.4103  0.6457
 7684TIP3   OH247246   2.813   3.195   2.055 -0.5429  0.4376 -0.1397
 7684TIP3    H147247   2.746   3.149   2.107  0.0293  0.7033  0.8623
 7684TIP3    H247248   2.893   3.144   2.068 -0.5368  0.1315 -1.3235
 7685TIP3   OH247249   2.236   6.915   4.263 -0.1438  0.4622 -0.3384
 7685TIP3    H147250   2.171   6.982   4.285 -0.6135  0.7750 -2.4348
 7685TIP3    H247251   2.196   6.865   4.192  1.4049 -0.1310 -0.8436
 7686TIP3   OH247252   6.443   3.286   3.820 -0.1140  0.2742  0.6718
 7686TIP3    H147253   6.497   3.253   3.892  2.2607  0.0674 -1.0963
 7686TIP3    H247254   6.504   3.334   3.764 -1.3167 -1.6339 -2.5144
 7687TIP3   OH247255   0.622   2.442   3.661  0.2531 -0.1272  0.2275
 7687TIP3    H147256   0.644   2.522   3.613  0.6989 -1.5717 -2.1553
 7687TIP3    H247257   0.688   2.378   3.632  0.2083 -1.2726  2.4277
 7688TIP3   OH247258   0.788   5.854   2.856  0.5162 -0.3511  0.0437
 7688TIP3    H147259   0.801   5.948   2.865  0.6075 -0.3735  0.1425
 7688TIP3    H247260   0.694   5.841   2.869  0.4480 -0.2345 -0.3110
 7689TIP3   OH247261   3.452   5.673   1.837  0.1812 -0.5534 -0.2780
 7689TIP3    H147262   3.391   5.746   1.843  1.1953  0.3413 -0.6060
 7689TIP3    H247263   3.415   5.616   1.769  0.2296  0.4923 -1.2043
 7690TIP3   OH247264   5.004   6.787   3.236 -0.6329  0.1136 -0.0477
 7690TIP3    H147265   5.080   6.737   3.266  0.4506  1.4421 -0.4495
 7690TIP3    H247266   4.994   6.762   3.144  0.1455  0.8494 -0.3576
 7691TIP3   OH247267   0.474   4.319   2.468 -0.1646 -0.6386  0.0479
 7691TIP3    H147268   0.480   4.255   2.539  2.2782 -1.2821 -0.6406
 7691TIP3    H247269   0.562   4.357   2.462 -0.5009 -0.0770 -2.1266
 7692TIP3   OH247270   2.731   4.084   1.874 -0.0171 -0.2123 -0.3341
 7692TIP3    H147271   2.641   4.059   1.897  0.0490  0.4920  0.7453
 7692TIP3    H247272   2.726   4.110   1.782 -0.9498 -0.0510 -0.2465
 7693TIP3   OH247273   3.237   3.556   8.852  0.0906  0.2664  0.0953
 7693TIP3    H147274   3.281   3.475   8.825  0.1334  0.7470 -1.3607
 7693TIP3    H247275   3.201   3.536   8.938  2.4593 -0.4187  1.0044
 7694TIP3   OH247276   3.280   0.633   3.424 -0.5447  0.1827  0.3135
 7694TIP3    H147277   3.352   0.598   3.372 -0.2487  2.2358 -0.7963
 7694TIP3    H247278   3.313   0.634   3.514  0.3352 -0.0719 -0.0007
 7695TIP3   OH247279   5.556   6.684   2.699 -0.3573 -0.1334 -0.0799
 7695TIP3    H147280   5.588   6.607   2.651  1.5064 -0.7634  1.9870
 7695TIP3    H247281   5.483   6.651   2.751 -1.8112  0.3542 -1.7138
 7696TIP3   OH247282   2.634   6.263   2.631 -0.1475  0.1004 -0.4682
 7696TIP3    H147283   2.565   6.257   2.697 -0.3692 -1.7860 -0.8046
 7696TIP3    H247284   2.712   6.290   2.679 -0.5402 -0.2824  0.4013
 7697TIP3   OH247285   2.331   0.978   4.249  0.0289  0.0585 -1.0959
 7697TIP3    H147286   2.363   0.998   4.161  0.2148  0.5683 -0.9150
 7697TIP3    H247287   2.401   1.008   4.307  0.0579 -0.5872 -0.7853
 7698TIP3   OH247288   7.170   2.116   3.652  0.1255  0.2104 -0.3855
 7698TIP3    H147289   7.080   2.094   3.627 -0.0861 -0.0868  0.6249
 7698TIP3    H247290   7.216   2.032   3.653  0.3150  0.3107 -0.4865
 7699TIP3   OH247291   2.596   3.478   4.862 -0.4033 -0.5647 -0.7833
 7699TIP3    H147292   2.508   3.490   4.897 -0.2721  1.2596 -0.9636
 7699TIP3    H247293   2.594   3.392   4.820 -1.9957 -0.6802 -0.5353
 7700TIP3   OH247294   5.670   0.293   4.657  0.3777  0.4569  0.1019
 7700TIP3    H147295   5.744   0.237   4.681  1.0923  2.0701  2.0006
 7700TIP3    H247296   5.699   0.340   4.579  0.3031 -0.7566 -0.6855
 7701TIP3   OH247297   4.075   1.707   3.764 -0.1913 -0.1461  0.1010
 7701TIP3    H147298   4.133   1.667   3.828 -0.1779 -1.3542 -0.6286
 7701TIP3    H247299   4.132   1.761   3.710 -0.0829  0.2719  0.6257
 7702TIP3   OH247300   1.343   5.725   4.338 -0.3383  0.5098 -0.6153
 7702TIP3    H147301   1.370   5.787   4.405  1.3063  1.7630 -2.3182
 7702TIP3    H247302   1.425   5.695   4.298 -1.1927 -1.2632 -1.1534
 7703TIP3   OH247303   4.889   5.402   3.875 -0.2844 -0.2107 -0.0823
 7703TIP3    H147304   4.852   5.394   3.786  1.1320  0.1839 -0.7359
 7703TIP3    H247305   4.958   5.467   3.866 -0.0089 -0.2867  1.3018
 7704TIP3   OH247306   7.152   2.252   3.102 -0.1818 -0.6415  0.2242
 7704TIP3    H147307   7.247   2.254   3.108 -0.1321 -0.2683 -0.5791
 7704TIP3    H247308   7.134   2.236   3.009 -0.8997 -0.7291  0.3725
 7705TIP3   OH247309   1.551   4.697   4.772  0.1989 -0.4107  0.0190
 7705TIP3    H147310   1.558   4.758   4.699 -0.7697  1.4410  1.3843
 7705TIP3    H247311   1.520   4.751   4.845  0.7846 -2.2529  1.7076
 7706TIP3   OH247312   7.321   0.438   3.210  0.5368  0.0624 -0.3064
 7706TIP3    H147313   7.375   0.413   3.135  0.3323  0.4066 -0.5697
 7706TIP3    H247314   7.348   0.528   3.229  0.8045 -0.1234  0.2263
 7707TIP3   OH247315   6.039   6.976   4.258  0.7311  0.3664 -0.6367
 7707TIP3    H147316   6.030   6.891   4.301  0.8191  0.9488  0.5859
 7707TIP3    H247317   6.134   6.987   4.245  0.7002  0.1631 -1.0412
 7708TIP3   OH247318   6.034   1.858   3.582  0.6872  0.2469  0.8060
 7708TIP3    H147319   6.048   1.945   3.620 -1.9924  1.8061 -1.4133
 7708TIP3    H247320   5.939   1.848   3.578  0.8837 -1.6002 -1.4755
 7709TIP3   OH247321   5.185   6.464   4.137  0.1941 -0.1661  0.0859
 7709TIP3    H147322   5.262   6.468   4.079 -0.8054 -1.3614 -1.4052
 7709TIP3    H247323   5.123   6.526   4.099 -0.2491 -0.5263  0.2107
 7710TIP3   OH247324   5.807   5.561   4.109  0.2883  0.0593  0.1337
 7710TIP3    H147325   5.793   5.652   4.136 -1.0304 -0.3415  0.8730
 7710TIP3    H247326   5.902   5.551   4.109  0.4275  0.6528  2.7748
 7711TIP3   OH247327   1.814   0.129   4.816 -0.2709 -0.0210  0.0568
 7711TIP3    H147328   1.820   0.210   4.867  1.3507  0.2439 -0.4973
 7711TIP3    H247329   1.745   0.146   4.751  0.3411  1.0851 -0.3283
 7712TIP3   OH247330   2.575   3.085   4.126  0.5508 -0.2619  0.0104
 7712TIP3    H147331   2.527   3.005   4.147  1.7517 -0.5761  1.7341
 7712TIP3    H247332   2.580   3.085   4.030 -1.5599 -0.9530 -0.1576
 7713TIP3   OH247333   4.006   2.379   2.476 -0.1271  0.2761  0.2838
 7713TIP3    H147334   4.065   2.303   2.483 -1.5348 -1.0636 -1.5095
 7713TIP3    H247335   3.972   2.391   2.565 -0.2209 -1.5000  0.5210
 7714TIP3   OH247336   2.738   6.624   2.024  0.1773  0.4682 -0.5508
 7714TIP3    H147337   2.733   6.717   2.044 -0.8605  0.4021 -0.4423
 7714TIP3    H247338   2.654   6.604   1.982 -0.2346 -0.7150  0.7608
 7715TIP3   OH247339   1.514   2.710   2.353  0.1149  0.4608  0.5094
 7715TIP3    H147340   1.468   2.719   2.269 -3.2547 -1.3441  1.9664
 7715TIP3    H247341   1.581   2.644   2.336 -0.6478 -0.0407 -0.7251
 7716TIP3   OH247342   0.968   2.998   2.094  0.3958  0.2014 -0.4204
 7716TIP3    H147343   0.917   2.927   2.133  1.1886  0.4083  1.0595
 7716TIP3    H247344   0.956   3.072   2.154  0.9744  0.8113 -1.0312
 7717TIP3   OH247345   6.417   3.043   4.165  0.0321  0.1887  0.1201
 7717TIP3    H147346   6.460   3.006   4.242 -0.0635  0.9503  0.5497
 7717TIP3    H247347   6.478   3.111   4.134  0.0396 -0.0651 -0.4410
 7718TIP3   OH247348   0.773   1.508   4.279 -0.4011 -0.4027 -0.2959
 7718TIP3    H147349   0.804   1.597   4.266  0.8509 -0.9168 -1.0380
 7718TIP3    H247350   0.825   1.474   4.351  0.1939 -1.0019 -0.9881
 7719TIP3   OH247351   4.726   4.397   4.683 -0.3331  0.1505  0.1531
 7719TIP3    H147352   4.782   4.352   4.620  1.4128  1.6425  0.5547
 7719TIP3    H247353   4.664   4.330   4.712 -0.1504 -1.0013 -1.8996
 7720TIP3   OH247354   6.760   3.122   3.739  0.3086  0.0454 -0.2926
 7720TIP3    H147355   6.756   3.214   3.764  0.4558  0.4025 -1.5416
 7720TIP3    H247356   6.673   3.103   3.703 -0.2674 -0.7594  1.3829
 7721TIP3   OH247357   2.755   6.804   4.897 -0.6757 -0.1258 -0.3670
 7721TIP3    H147358   2.736   6.780   4.807 -1.4777 -0.6863 -0.0691
 7721TIP3    H247359   2.799   6.727   4.934 -0.6744 -0.0409 -0.1878
 7722TIP3   OH247360   7.466   6.526   3.554 -0.1488  0.4116 -0.6128
 7722TIP3    H147361   7.502   6.577   3.627  1.3272 -2.1009  0.5570
 7722TIP3    H247362   7.519   6.552   3.479  2.4837 -1.2478  0.5313
 7723TIP3   OH247363   7.671   5.090   3.259 -0.1201 -1.1117  0.5453
 7723TIP3    H147364   7.684   5.102   3.353  2.8102  0.4225  0.0662
 7723TIP3    H247365   7.704   5.002   3.241  3.1148 -0.0388  0.5248
 7724TIP3   OH247366   7.386   6.087   3.701  0.5907 -0.0307 -0.2733
 7724TIP3    H147367   7.366   6.137   3.622 -0.4556  0.1700  0.0967
 7724TIP3    H247368   7.457   6.135   3.743 -0.7573  1.5057  0.3659
 7725TIP3   OH247369   0.322   0.169   2.552  0.0692  0.5838 -0.3049
 7725TIP3    H147370   0.227   0.170   2.548 -0.1017 -1.4736  1.5306
 7725TIP3    H247371   0.346   0.260   2.568 -1.5037  1.2268 -1.2946
 7726TIP3   OH247372   6.154   0.456   2.680  0.0271 -0.4301 -0.0153
 7726TIP3    H147373   6.120   0.369   2.659 -1.5544  0.1312  0.0710
 7726TIP3    H247374   6.207   0.480   2.605  1.1655 -1.7851  0.3161
 7727TIP3   OH247375   6.185   2.790   2.744 -0.0603  0.2339  0.4154
 7727TIP3    H147376   6.235   2.866   2.771 -0.1386  0.2089  0.6290
 7727TIP3    H247377   6.169   2.741   2.825  0.5606 -0.3550  0.1993
 7728TIP3   OH247378   3.148   2.348   4.553  0.3661  0.3591  0.3201
 7728TIP3    H147379   3.101   2.404   4.491 -0.4644 -0.0329  0.5903
 7728TIP3    H247380   3.207   2.296   4.498  0.0911  0.4622 -0.0808
 7729TIP3   OH247381   1.359   2.055   2.825 -0.5176 -0.0047  0.2812
 7729TIP3    H147382   1.338   2.070   2.733  0.5614  1.3858  0.2415
 7729TIP3    H247383   1.344   1.961   2.837 -0.8925 -0.1732 -1.2530
 7730TIP3   OH247384   3.920   7.003   2.079  0.0324 -0.7619 -0.1284
 7730TIP3    H147385   3.880   7.040   2.158  0.1795 -1.5552  0.3294
 7730TIP3    H247386   3.847   6.998   2.017 -0.4889 -1.6756  0.5172
 7731TIP3   OH247387   6.016   3.171   2.621  0.2358  0.1675  0.0125
 7731TIP3    H147388   6.037   3.100   2.560  0.6091 -1.1589  1.6213
 7731TIP3    H247389   5.960   3.130   2.687  1.2827  1.1092  1.5295
 7732TIP3   OH247390   2.945   7.363   4.387  0.0652  0.6184  0.7784
 7732TIP3    H147391   2.899   7.428   4.336  1.9273 -0.4353 -2.5578
 7732TIP3    H247392   2.877   7.303   4.417 -1.3095  2.3721  1.3259
 7733TIP3   OH247393   1.952   1.103   3.643  0.4674 -0.1196 -0.4918
 7733TIP3    H147394   1.909   1.050   3.710 -1.4056  1.2101 -0.5494
 7733TIP3    H247395   2.045   1.090   3.658  0.0778 -1.4223  1.0891
 7734TIP3   OH247396   3.893   5.131   2.458  0.4293  0.2070 -0.4409
 7734TIP3    H147397   3.808   5.154   2.497  0.1850 -2.1087  0.5533
 7734TIP3    H247398   3.943   5.212   2.461 -0.9391  1.0614  1.2035
 7735TIP3   OH247399   2.336   4.355   4.228  0.0104 -0.3261 -0.1229
 7735TIP3    H147400   2.277   4.304   4.174  0.2758 -1.2494  0.4371
 7735TIP3    H247401   2.418   4.357   4.179 -0.0553 -0.2836 -0.2307
 7736TIP3   OH247402   3.602   3.569   3.412  0.3782  0.3727  0.4890
 7736TIP3    H147403   3.691   3.550   3.442  0.7618  0.2959 -0.6471
 7736TIP3    H247404   3.613   3.638   3.347 -0.3754  0.2176  0.1870
 7737TIP3   OH247405   2.029   2.150   2.406 -0.4040  0.7956 -0.1386
 7737TIP3    H147406   2.119   2.181   2.414  0.1254 -0.9819  1.6256
 7737TIP3    H247407   2.036   2.055   2.413 -2.3937  0.5997 -0.3443
 7738TIP3   OH247408   1.081   6.544   3.907 -0.5511  0.3353 -0.1843
 7738TIP3    H147409   1.063   6.571   3.997 -1.0210  1.2352 -0.5331
 7738TIP3    H247410   0.996   6.554   3.862 -0.4939 -0.7789 -0.5659
 7739TIP3   OH247411   5.724   0.244   3.262  0.4292 -0.1756  0.4291
 7739TIP3    H147412   5.713   0.261   3.355 -0.6706 -0.3399  0.3500
 7739TIP3    H247413   5.679   0.160   3.248  1.4782 -0.6675 -0.0664
 7740TIP3   OH247414   6.995   5.527   3.586 -0.4240 -0.1242 -0.2742
 7740TIP3    H147415   6.935   5.599   3.567 -2.2346 -0.8259  2.2826
 7740TIP3    H247416   6.957   5.451   3.542 -1.2280 -0.4843  1.0092
 7741TIP3   OH247417   5.982   1.276   3.254 -0.1357  0.3611  0.0058
 7741TIP3    H147418   5.953   1.364   3.231 -0.0595  0.4162  0.1188
 7741TIP3    H247419   6.076   1.276   3.237 -0.1309  0.3106  0.0301
 7742TIP3   OH247420   5.502   6.109   2.254 -0.0038  0.0866  0.0747
 7742TIP3    H147421   5.440   6.179   2.236 -0.0494  0.0710  0.1674
 7742TIP3    H247422   5.576   6.152   2.298 -1.4366 -0.3471  3.1922
 7743TIP3   OH247423   3.469   2.318   2.635 -0.4143 -0.1311  0.1447
 7743TIP3    H147424   3.540   2.262   2.605 -0.3145 -0.3432  0.7646
 7743TIP3    H247425   3.442   2.367   2.557  0.4964  0.0532 -0.0632
 7744TIP3   OH247426   2.442   3.800   2.324 -0.5547  0.2765  0.2898
 7744TIP3    H147427   2.455   3.707   2.338 -0.7904  0.2084  0.0679
 7744TIP3    H247428   2.460   3.840   2.409  1.5191  0.2433 -0.0721
 7745TIP3   OH247429   1.784   0.258   4.097 -0.2954 -0.1927 -0.7285
 7745TIP3    H147430   1.871   0.293   4.079 -0.0112 -1.8481 -2.9909
 7745TIP3    H247431   1.745   0.320   4.159  2.3857  0.6942  0.2030
 7746TIP3   OH247432   1.618   3.831   1.948 -0.4602 -0.5541 -0.4501
 7746TIP3    H147433   1.612   3.755   1.891 -1.6565  0.2321 -1.4161
 7746TIP3    H247434   1.544   3.823   2.007 -0.2694 -0.4222 -0.1898
 7747TIP3   OH247435   5.836   5.069   4.633  0.0261  0.0902  0.0190
 7747TIP3    H147436   5.836   4.984   4.589 -0.6853  0.0191  0.1536
 7747TIP3    H247437   5.777   5.123   4.581 -0.5955  0.0916  0.7126
 7748TIP3   OH247438   1.407   7.593   3.441  0.4028  0.7141 -0.8969
 7748TIP3    H147439   1.442   7.624   3.524  0.2543 -0.6365 -0.3034
 7748TIP3    H247440   1.438   7.656   3.376  0.6630  1.6876  0.1529
 7749TIP3   OH247441   3.670   0.984   3.817  0.5470 -0.1075 -0.1952
 7749TIP3    H147442   3.611   0.912   3.839  0.7582  0.6044  3.2058
 7749TIP3    H247443   3.753   0.942   3.798  0.2033 -0.8498 -0.1026
 7750TIP3   OH247444   0.912   2.955   3.988 -0.1364 -0.0337 -0.4802
 7750TIP3    H147445   0.986   2.980   4.043  0.1856 -1.9353  0.0339
 7750TIP3    H247446   0.919   3.012   3.911  0.9745  0.8355  0.2229
 7751TIP3   OH247447   2.791   0.088   3.465 -0.1167  0.0339  0.0523
 7751TIP3    H147448   2.874   0.100   3.511  0.9417 -0.7852 -1.5614
 7751TIP3    H247449   2.812   0.101   3.373 -1.5560 -1.2233 -0.5043
 7752TIP3   OH247450   1.024   2.261   3.371  0.0495  0.4912 -0.1172
 7752TIP3    H147451   1.050   2.214   3.292  1.0435 -2.2072  1.6727
 7752TIP3    H247452   1.101   2.257   3.428 -0.9194  1.5696  1.3362
 7753TIP3   OH247453   2.693   7.469   1.953  0.3296 -0.0432 -0.1383
 7753TIP3    H147454   2.765   7.415   1.921 -2.0106 -2.9296 -0.9727
 7753TIP3    H247455   2.631   7.472   1.880 -2.1293 -1.0915  1.7657
 7754TIP3   OH247456   4.452   6.169   4.075  0.4848 -0.0171 -0.0046
 7754TIP3    H147457   4.537   6.182   4.032  0.5626 -0.1247  0.1137
 7754TIP3    H247458   4.430   6.255   4.111 -0.1684  0.3782 -1.3065
 7755TIP3   OH247459   0.177   4.300   2.773 -0.1233  0.1356  0.0210
 7755TIP3    H147460   0.140   4.386   2.750 -1.5898 -0.6503 -0.7439
 7755TIP3    H247461   0.213   4.267   2.691  1.6940  0.5788  0.6107
 7756TIP3   OH247462   4.290   2.861   2.958  0.0198  0.0924  0.0991
 7756TIP3    H147463   4.302   2.906   3.042 -0.8104 -0.6636  0.6364
 7756TIP3    H247464   4.201   2.883   2.931  1.3945  3.2749 -2.4107
 7757TIP3   OH247465   7.366   0.898   3.004 -0.4188  0.0544  0.1154
 7757TIP3    H147466   7.451   0.858   2.986 -0.2811 -0.2770  1.3797
 7757TIP3    H247467   7.302   0.828   2.986 -0.3900  0.1293 -0.2931
 7758TIP3   OH247468   3.284   3.346   2.136 -0.5763 -0.1462  0.0172
 7758TIP3    H147469   3.366   3.387   2.109  0.4015 -0.5098  2.2277
 7758TIP3    H247470   3.217   3.390   2.084  0.7001  2.3570  0.3474
 7759TIP3   OH247471   1.061   1.074   2.349  0.4235  0.0394 -0.3185
 7759TIP3    H147472   1.058   1.104   2.258  1.6320 -1.6836 -0.9589
 7759TIP3    H247473   1.024   1.147   2.398 -0.4406  0.9498 -2.1906
 7760TIP3   OH247474   5.024   6.900   3.978  0.0625 -0.1122  0.0675
 7760TIP3    H147475   4.965   6.935   4.045 -0.2115 -0.5551  0.0651
 7760TIP3    H247476   5.005   6.806   3.977 -0.1215 -0.0723 -0.8086
 7761TIP3   OH247477   6.712   7.246   3.740 -0.8355 -0.5846 -0.1000
 7761TIP3    H147478   6.734   7.160   3.778  0.7987 -0.2701 -0.2414
 7761TIP3    H247479   6.776   7.305   3.779 -1.5843  0.4710 -0.4517
 7762TIP3   OH247480   1.446   1.398   3.261 -0.1095  0.2953 -0.3285
 7762TIP3    H147481   1.381   1.348   3.311 -0.4615  1.1356  0.0583
 7762TIP3    H247482   1.412   1.397   3.172 -0.2771  0.1109 -0.2655
 7763TIP3   OH247483   4.279   1.961   2.165  0.2269  0.3155 -0.3263
 7763TIP3    H147484   4.283   2.037   2.224  0.9934  0.9930 -1.2167
 7763TIP3    H247485   4.246   1.998   2.082 -2.4174 -0.8961  0.0810
 7764TIP3   OH247486   2.609   4.801   3.491  0.5001 -0.4460  0.1714
 7764TIP3    H147487   2.600   4.760   3.405 -0.8855  1.0246 -0.4337
 7764TIP3    H247488   2.561   4.743   3.550 -0.3663 -0.3822 -0.4508
 7765TIP3   OH247489   5.114   7.310   4.196 -0.2578 -0.3066 -0.0376
 7765TIP3    H147490   5.027   7.297   4.235 -0.6166  0.8946 -0.4162
 7765TIP3    H247491   5.172   7.258   4.252 -1.1926 -1.0548  0.2795
 7766TIP3   OH247492   7.487   2.729   3.756 -0.5535  0.0092 -0.5412
 7766TIP3    H147493   7.535   2.808   3.782 -0.5009 -0.0716 -0.3939
 7766TIP3    H247494   7.504   2.666   3.825 -1.0484  0.0492 -0.3764
 7767TIP3   OH247495   4.093   2.143   1.979  0.0163 -0.1642 -0.3273
 7767TIP3    H147496   4.078   2.210   2.046  0.7998 -1.4417  1.1835
 7767TIP3    H247497   4.005   2.119   1.949 -0.4686 -0.5817  1.3128
 7768TIP3   OH247498   5.662   6.704   3.381 -0.2934  0.2272 -0.0580
 7768TIP3    H147499   5.602   6.665   3.317 -2.3391  1.3737  1.0565
 7768TIP3    H247500   5.737   6.645   3.382 -1.5786 -1.5395 -1.2074
 7769TIP3   OH247501   4.452   5.415   3.643  0.4587 -0.1425  0.2608
 7769TIP3    H147502   4.526   5.355   3.639  0.5536 -0.0229 -4.0268
 7769TIP3    H247503   4.395   5.387   3.571 -3.1651  0.5407  2.5877
 7770TIP3   OH247504   4.390   2.269   3.372  0.1487  0.0829  0.1838
 7770TIP3    H147505   4.444   2.246   3.447  0.7074 -0.1401 -0.2790
 7770TIP3    H247506   4.439   2.337   3.327 -0.9680  1.4368  0.9301
 7771TIP3   OH247507   3.682   3.106   2.844  0.4745  0.3687 -0.1502
 7771TIP3    H147508   3.775   3.085   2.858  0.3407 -0.8443 -0.9294
 7771TIP3    H247509   3.678   3.201   2.847  1.9649  0.5035 -1.3865
 7772TIP3   OH247510   1.775   7.371   3.979  0.2851 -0.9320 -0.0857
 7772TIP3    H147511   1.852   7.419   4.011  0.5490 -1.0630 -0.5152
 7772TIP3    H247512   1.715   7.440   3.951 -0.4222 -0.7766  1.7243
 7773TIP3   OH247513   1.979   4.026   4.299  0.3843 -0.0270  0.3456
 7773TIP3    H147514   2.005   4.097   4.241  0.5226 -1.2386 -1.1490
 7773TIP3    H247515   2.060   3.978   4.316  0.2104 -0.1185  0.9371
 7774TIP3   OH247516   0.513   3.024   4.006  0.9524 -0.0643 -0.2773
 7774TIP3    H147517   0.590   2.974   4.031  1.6364  1.5747  1.1328
 7774TIP3    H247518   0.545   3.113   3.992 -0.3341  0.1982 -1.9007
 7775TIP3   OH247519   7.253   3.490   4.557  0.0906  0.0147 -0.0960
 7775TIP3    H147520   7.171   3.538   4.565 -0.3340 -0.6845 -0.1490
 7775TIP3    H247521   7.261   3.443   4.640  1.2235  1.2597  0.5415
 7776TIP3   OH247522   5.114   7.503   2.315 -0.2027 -0.0212  0.1827
 7776TIP3    H147523   5.023   7.505   2.286 -0.0304 -0.8467 -0.4790
 7776TIP3    H247524   5.153   7.582   2.277 -0.8174  0.7606  1.1385
 7777TIP3   OH247525   1.215   4.891   2.197  0.1822 -0.1033  0.3185
 7777TIP3    H147526   1.252   4.818   2.246 -0.3405  0.0982  1.0347
 7777TIP3    H247527   1.153   4.851   2.137  1.6077 -0.4547 -0.9727
 7778TIP3   OH247528   1.179   2.111   4.577  0.1459 -0.2408  0.7620
 7778TIP3    H147529   1.150   2.189   4.530 -0.8684 -1.6573 -1.0451
 7778TIP3    H247530   1.221   2.056   4.511  2.2569 -0.6138  2.2907
 7779TIP3   OH247531   6.050   7.178   3.094 -0.7499 -0.0518 -0.2468
 7779TIP3    H147532   6.073   7.225   3.014 -0.4472  0.7182  0.2835
 7779TIP3    H247533   6.006   7.099   3.063 -0.2978  0.0473 -1.1840
 7780TIP3   OH247534   0.243   7.327   3.787  0.0348 -0.6901 -0.0387
 7780TIP3    H147535   0.235   7.240   3.827  2.8430 -0.4804  1.2062
 7780TIP3    H247536   0.249   7.310   3.693  1.3610 -1.9556  0.2472
 7781TIP3   OH247537   2.188   0.755   2.553 -0.7410 -0.0379 -0.0136
 7781TIP3    H147538   2.247   0.792   2.487  0.9298 -0.5644  1.1224
 7781TIP3    H247539   2.216   0.794   2.635  0.2194 -2.7047  1.0376
 7782TIP3   OH247540   7.129   0.740   3.462 -0.2804 -0.1221  0.0054
 7782TIP3    H147541   7.050   0.704   3.422 -1.2702  0.1924  1.5972
 7782TIP3    H247542   7.150   0.678   3.533  0.1491  0.4710  0.4041
 7783TIP3   OH247543   7.026   4.622   4.018 -0.5029 -0.1439  0.2576
 7783TIP3    H147544   7.084   4.574   4.077  0.9159 -1.8114 -2.3189
 7783TIP3    H247545   7.082   4.689   3.979 -0.6962 -0.7242 -1.0587
 7784TIP3   OH247546   3.197   1.914   3.177 -0.2250 -0.4031 -0.4764
 7784TIP3    H147547   3.188   1.821   3.158  2.3535 -1.1828  1.3875
 7784TIP3    H247548   3.270   1.943   3.122  0.4226 -0.0775  0.5231
 7785TIP3   OH247549   1.046   3.393   3.540 -0.2075 -0.5568 -0.4191
 7785TIP3    H147550   0.965   3.411   3.588 -0.3896 -2.5812  0.1236
 7785TIP3    H247551   1.018   3.349   3.460  0.3232 -0.9339 -0.4062
 7786TIP3   OH247552   2.778   3.116   2.946 -0.1102 -0.3308 -0.0278
 7786TIP3    H147553   2.720   3.190   2.964 -0.3622 -0.8609  1.4530
 7786TIP3    H247554   2.778   3.108   2.850 -0.0166  1.6080 -0.2224
 7787TIP3   OH247555   4.670   1.069   3.870  0.5604  0.4061 -0.9357
 7787TIP3    H147556   4.663   1.036   3.781  1.5486 -0.1300 -0.8207
 7787TIP3    H247557   4.674   0.991   3.925 -0.3632  0.7293 -0.3837
 7788TIP3   OH247558   4.938   2.892   3.460 -0.0773  0.1971 -0.1948
 7788TIP3    H147559   4.989   2.971   3.444 -2.2233  2.3554  2.4783
 7788TIP3    H247560   4.899   2.871   3.375 -1.3868  3.5846 -0.5909
 7789TIP3   OH247561   6.379   4.874   3.263  0.1204  0.8525  0.5091
 7789TIP3    H147562   6.296   4.915   3.238  0.9580  1.2350 -2.0234
 7789TIP3    H247563   6.357   4.816   3.335 -2.1447  1.7180  0.5964
 7790TIP3   OH247564   6.077   4.374   4.369  0.7368 -0.1681  0.3906
 7790TIP3    H147565   6.068   4.392   4.275  0.5624 -1.6572  0.0991
 7790TIP3    H247566   6.171   4.364   4.383  0.9331  1.7895  0.7486
 7791TIP3   OH247567   3.050   3.881   2.486 -0.2487  0.0816 -0.0938
 7791TIP3    H147568   3.006   3.872   2.571  0.2524 -1.5337  0.0334
 7791TIP3    H247569   3.143   3.873   2.507 -0.1387 -0.6387 -0.8203
 7792TIP3   OH247570   5.793   4.023   2.897  0.2649  0.3823 -0.3321
 7792TIP3    H147571   5.809   4.117   2.886  0.0031  0.3550 -1.0389
 7792TIP3    H247572   5.872   3.981   2.863  0.8093  0.3639  0.9286
 7793TIP3   OH247573   4.604   3.350   2.765 -0.4139 -0.2940  0.4198
 7793TIP3    H147574   4.559   3.313   2.842 -0.4420 -0.6077  0.2562
 7793TIP3    H247575   4.696   3.350   2.789 -0.1348 -2.5749 -0.3910
 7794TIP3   OH247576   6.504   1.240   2.899 -0.1516 -0.0323  0.4371
 7794TIP3    H147577   6.474   1.296   2.828 -0.2113 -1.2146 -0.4943
 7794TIP3    H247578   6.508   1.153   2.861  0.2660 -0.6164  1.7627
 7795TIP3   OH247579   0.385   3.964   3.985 -0.8427 -0.2147 -0.2382
 7795TIP3    H147580   0.301   3.922   4.004 -0.0793 -2.3024 -1.1352
 7795TIP3    H247581   0.373   4.003   3.898 -1.1409  0.3155  0.0315
 7796TIP3   OH247582   1.297   4.172   2.577  0.1704 -0.0701  0.5536
 7796TIP3    H147583   1.280   4.260   2.545  0.2816  0.5403  2.1016
 7796TIP3    H247584   1.210   4.133   2.587  0.1410 -1.1921 -2.7217
 7797TIP3   OH247585   4.594   0.095   2.597  0.4952  0.6876  0.0679
 7797TIP3    H147586   4.637   0.076   2.680  0.7534  1.6922  0.1661
 7797TIP3    H247587   4.505   0.120   2.621  0.6695  1.3166  0.0760
 7798TIP3   OH247588   7.608   5.713   2.995 -0.3542  0.0522 -0.5831
 7798TIP3    H147589   7.586   5.680   3.082  2.0598  0.5861  0.3262
 7798TIP3    H247590   7.673   5.782   3.011  0.0346  0.2935 -2.7959
 7799TIP3   OH247591   2.746   6.892   2.014  0.3116 -0.4559  0.1573
 7799TIP3    H147592   2.721   6.975   2.053 -0.8533 -1.4478  1.6202
 7799TIP3    H247593   2.831   6.909   1.973  0.1006  1.4263  0.4381
 7800TIP3   OH247594   4.640   5.625   2.200 -0.2586 -0.0604  0.2214
 7800TIP3    H147595   4.593   5.561   2.146  1.0410 -0.5041 -0.4203
 7800TIP3    H247596   4.586   5.634   2.279 -1.9659  0.2915 -0.9502
 7801TIP3   OH247597   6.880   0.917   4.405 -0.1029  0.2079 -0.0044
 7801TIP3    H147598   6.798   0.900   4.451  0.5104 -1.9933  0.4063
 7801TIP3    H247599   6.918   0.993   4.451 -0.3707 -0.7973  2.0097
 7802TIP3   OH247600   2.716   3.701   4.788  0.0873  0.2171 -0.3818
 7802TIP3    H147601   2.672   3.620   4.812  0.0975  0.4323  0.3820
 7802TIP3    H247602   2.665   3.770   4.831  1.6039  0.4190  1.2031
 7803TIP3   OH247603   0.899   4.063   3.906 -0.0750 -0.1723 -0.7822
 7803TIP3    H147604   0.808   4.072   3.935  0.0988 -1.0474  0.0632
 7803TIP3    H247605   0.923   3.974   3.929  1.8843  0.8742  1.6068
 7804TIP3   OH247606   5.885   0.173   2.867  0.1743  0.2690  0.6182
 7804TIP3    H147607   5.824   0.232   2.910 -0.0834  1.6559 -1.4853
 7804TIP3    H247608   5.866   0.182   2.773  2.2699 -0.7547  0.0189
 7805TIP3   OH247609   2.147   2.149   4.113 -0.1940  0.3048  0.3907
 7805TIP3    H147610   2.058   2.145   4.079  0.0388  1.7627 -0.4299
 7805TIP3    H247611   2.199   2.186   4.042  1.3630 -1.8122  0.3231
 7806TIP3   OH247612   0.842   7.648   3.809 -0.0284  0.0551  0.3096
 7806TIP3    H147613   0.822   7.565   3.851  0.0529 -0.0677  0.1069
 7806TIP3    H247614   0.929   7.672   3.842  0.7848 -0.8701 -1.0510
 7807TIP3   OH247615   3.148   6.304   3.661 -0.2990 -0.3339  0.3316
 7807TIP3    H147616   3.170   6.217   3.629  1.4053  0.0089  0.4715
 7807TIP3    H247617   3.154   6.360   3.583  2.1495  0.2092  0.8174
 7808TIP3   OH247618   6.170   7.491   2.980 -0.0527 -0.4845  0.3676
 7808TIP3    H147619   6.242   7.429   2.972 -1.8200 -2.8070  1.4543
 7808TIP3    H247620   6.096   7.449   2.938 -1.3791  0.8110  1.2923
 7809TIP3   OH247621   5.308   7.191   2.258  0.1373  0.5724 -0.3285
 7809TIP3    H147622   5.264   7.250   2.320 -1.0940  1.8020 -2.2656
 7809TIP3    H247623   5.250   7.189   2.182  0.5870 -2.5173 -0.6962
 7810TIP3   OH247624   4.150   5.424   3.453 -0.4370  0.0470  0.4287
 7810TIP3    H147625   4.196   5.343   3.474 -0.5532 -0.3127 -0.6332
 7810TIP3    H247626   4.065   5.395   3.419 -2.7431  0.6898  4.8460
 7811TIP3   OH247627   0.131   5.280   2.528  0.6778  0.6744  0.3684
 7811TIP3    H147628   0.083   5.215   2.579  1.9311  0.5102  1.3982
 7811TIP3    H247629   0.065   5.345   2.502 -0.3982 -0.4592  0.2021
 7812TIP3   OH247630   1.388   5.896   2.291  0.2755 -0.5201 -0.5619
 7812TIP3    H147631   1.456   5.845   2.334  1.0460  0.1493 -0.9696
 7812TIP3    H247632   1.345   5.834   2.232  1.3194 -0.6735 -1.1798
 7813TIP3   OH247633   5.562   1.320   4.175 -0.2631  0.2161  0.0700
 7813TIP3    H147634   5.474   1.356   4.164 -0.3790 -0.4818 -1.6245
 7813TIP3    H247635   5.616   1.396   4.197 -1.1268  0.7898  0.2827
 7814TIP3   OH247636   1.147   5.993   4.522  0.2427  0.3151 -0.2365
 7814TIP3    H147637   1.201   5.914   4.520 -0.2615 -0.0351 -0.5628
 7814TIP3    H247638   1.080   5.977   4.455 -0.3827  0.6419  0.2989
 7815TIP3   OH247639   5.146   6.979   3.512 -0.5773  0.0963  0.7057
 7815TIP3    H147640   5.239   6.986   3.491 -0.6594  0.4975  0.4665
 7815TIP3    H247641   5.102   7.038   3.450 -0.9424  0.2915  1.1389
 7816TIP3   OH247642   6.466   1.860   4.305 -0.6527  0.2530 -0.1275
 7816TIP3    H147643   6.451   1.954   4.316 -0.4284  0.1773  0.9622
 7816TIP3    H247644   6.405   1.819   4.367 -2.5500 -0.4530 -2.3056
 7817TIP3   OH247645   5.184   1.600   2.214 -0.0974  0.1589  0.4474
 7817TIP3    H147646   5.199   1.539   2.142 -0.7042 -0.6369  0.9840
 7817TIP3    H247647   5.252   1.579   2.278  2.3978  2.8620 -1.0885
 7818TIP3   OH247648   2.117   6.027   3.427  0.1983 -0.2044 -0.6777
 7818TIP3    H147649   2.068   6.023   3.509 -0.7527 -0.1015 -1.2221
 7818TIP3    H247650   2.196   6.077   3.448 -0.5696  0.7866 -0.0876
 7819TIP3   OH247651   7.404   4.879   3.642  0.1175 -0.4445 -0.1620
 7819TIP3    H147652   7.403   4.899   3.736 -0.8195 -1.2961  0.0252
 7819TIP3    H247653   7.333   4.931   3.605  0.0072 -0.6668 -0.2688
 7820TIP3   OH247654   3.763   0.404   3.873 -0.0156 -0.0019  0.2468
 7820TIP3    H147655   3.836   0.466   3.867  0.2560 -0.3052  0.3963
 7820TIP3    H247656   3.696   0.440   3.815  0.7428 -0.3955 -0.9165
 7821TIP3   OH247657   1.297   2.487   2.995  0.5883  0.2073 -0.2065
 7821TIP3    H147658   1.347   2.533   2.927 -0.0093 -2.0546 -2.3145
 7821TIP3    H247659   1.262   2.409   2.951 -0.6071 -0.9133  2.4912
 7822TIP3   OH247660   1.625   6.602   3.520  0.2939  0.3712  0.3387
 7822TIP3    H147661   1.557   6.665   3.497  0.1432  0.3723  0.7794
 7822TIP3    H247662   1.577   6.525   3.552  0.4094 -0.6231 -1.7520
 7823TIP3   OH247663   3.321   1.745   2.850  0.0077  0.3362  0.1973
 7823TIP3    H147664   3.252   1.721   2.787 -1.1339 -0.4915  1.6976
 7823TIP3    H247665   3.403   1.731   2.802 -0.8039 -0.9881 -0.8840
 7824TIP3   OH247666   6.836   5.244   4.044 -0.7522 -0.2120  0.0733
 7824TIP3    H147667   6.876   5.322   4.006  0.5552 -0.7984  0.1783
 7824TIP3    H247668   6.745   5.247   4.015 -0.5960  1.0707 -0.3473
 7825TIP3   OH247669   1.745   6.592   4.460  0.3159 -0.6074  0.1920
 7825TIP3    H147670   1.683   6.576   4.389 -2.1889  1.0339  1.8459
 7825TIP3    H247671   1.771   6.684   4.449  0.2462 -0.4676  1.1122
 7826TIP3   OH247672   5.953   4.730   4.256 -0.3081 -0.0291  0.1049
 7826TIP3    H147673   5.902   4.745   4.336 -0.1031 -0.7343  0.3719
 7826TIP3    H247674   6.011   4.806   4.251 -1.4662  0.8732 -0.2911
 7827TIP3   OH247675   1.314   1.791   3.166  0.5291  0.0881  0.1830
 7827TIP3    H147676   1.276   1.817   3.082 -1.4101  0.4761  1.1241
 7827TIP3    H247677   1.312   1.871   3.218 -3.0362 -1.0841  2.2252
 7828TIP3   OH247678   1.533   6.053   2.813 -0.7369 -0.4834 -0.0078
 7828TIP3    H147679   1.484   6.111   2.871  1.2257  1.0589  0.2307
 7828TIP3    H247680   1.468   5.991   2.781 -2.5823  0.7436  1.1288
 7829TIP3   OH247681   0.532   4.141   2.663  0.1717  0.0857  0.0488
 7829TIP3    H147682   0.591   4.086   2.611  0.0238 -0.0616  0.0321
 7829TIP3    H247683   0.499   4.082   2.731 -1.2659 -0.3235 -0.9469
 7830TIP3   OH247684   2.357   4.374   3.222  0.0624 -0.0846  0.1081
 7830TIP3    H147685   2.301   4.394   3.148  1.8186  0.0157 -1.2737
 7830TIP3    H247686   2.391   4.460   3.249  0.7610 -0.2895 -0.1032
 7831TIP3   OH247687   4.822   7.587   3.417  0.2539 -0.6570  1.1619
 7831TIP3    H147688   4.812   7.492   3.417  0.5620 -0.8097 -2.2144
 7831TIP3    H247689   4.902   7.603   3.367  0.0285  1.3948  1.3740
 7832TIP3   OH247690   7.171   5.877   5.062 -0.0161  0.0492 -0.4429
 7832TIP3    H147691   7.082   5.912   5.072  0.3989  1.9940 -2.6891
 7832TIP3    H247692   7.163   5.784   5.083 -3.1753 -0.4333 -3.0468
 7833TIP3   OH247693   2.388   0.991   2.153  0.0350 -0.0005  0.3768
 7833TIP3    H147694   2.370   0.994   2.059  0.5266 -0.0515  0.2780
 7833TIP3    H247695   2.344   1.068   2.188  0.7222  0.6055 -0.0527
 7834TIP3   OH247696   0.079   1.247   3.809 -0.3480 -0.3406 -0.9517
 7834TIP3    H147697   0.155   1.189   3.804 -0.2136 -0.1328 -1.3067
 7834TIP3    H247698   0.066   1.278   3.720  0.0987  0.8517 -0.6165
 7835TIP3   OH247699   4.188   1.462   3.605 -0.3085 -0.2603 -0.2129
 7835TIP3    H147700   4.217   1.542   3.650 -1.0922 -0.4299  0.6100
 7835TIP3    H247701   4.269   1.420   3.577  0.1522  0.3314  0.2090
 7836TIP3   OH247702   0.209   1.537   2.538  0.1192 -0.7511 -0.4736
 7836TIP3    H147703   0.170   1.623   2.553  0.0932 -0.8047 -0.2158
 7836TIP3    H247704   0.183   1.513   2.449 -1.3900 -1.2701  0.0725
 7837TIP3   OH247705   5.948   5.484   3.518  0.0984 -0.7524  0.1079
 7837TIP3    H147706   5.959   5.425   3.444 -0.1180 -2.3390  1.2906
 7837TIP3    H247707   6.035   5.518   3.536 -0.1691  1.6350 -2.3488
 7838TIP3   OH247708   6.988   6.697   4.553  0.7900 -0.0607  0.3864
 7838TIP3    H147709   6.949   6.746   4.625 -1.3116 -0.0134 -0.7299
 7838TIP3    H247710   7.029   6.621   4.596  0.4623  0.4797  1.7184
 7839TIP3   OH247711   6.969   6.232   3.214  0.3789  0.2736 -0.5265
 7839TIP3    H147712   7.041   6.175   3.188  0.6531 -0.6059  1.9197
 7839TIP3    H247713   6.920   6.182   3.279 -0.3971  2.1810  0.4547
 7840TIP3   OH247714   3.608   6.469   4.435  0.4879  0.2033 -0.5608
 7840TIP3    H147715   3.545   6.541   4.439 -0.1518 -0.4129  0.7904
 7840TIP3    H247716   3.694   6.512   4.440  0.0987  0.8298  1.6802
 7841TIP3   OH247717   2.567   0.460   2.447 -0.4399  0.3617 -0.0961
 7841TIP3    H147718   2.499   0.469   2.513 -0.3191  1.1142 -0.0629
 7841TIP3    H247719   2.649   0.480   2.493 -0.3125  0.4869 -0.3723
 7842TIP3   OH247720   7.058   0.965   3.862  0.2396  0.1510 -0.2979
 7842TIP3    H147721   7.086   1.044   3.909  0.3199 -0.4104  0.6231
 7842TIP3    H247722   7.139   0.916   3.849  0.3514  0.6642 -1.7798
 7843TIP3   OH247723   7.371   2.039   3.931  0.3394 -0.3600 -0.3101
 7843TIP3    H147724   7.453   2.002   3.897  0.1652 -0.9905 -0.0655
 7843TIP3    H247725   7.305   2.014   3.866  0.4364  0.7196 -0.8502
 7844TIP3   OH247726   4.239   6.446   4.152 -0.1577  0.5127 -0.4171
 7844TIP3    H147727   4.269   6.479   4.236  0.1515  1.0387 -0.7328
 7844TIP3    H247728   4.195   6.364   4.173  1.5091 -0.3084  0.0715
 7845TIP3   OH247729   7.236   2.134   5.055 -0.0931 -0.0393  0.1092
 7845TIP3    H147730   7.280   2.119   4.972  0.6554 -0.4037  0.5621
 7845TIP3    H247731   7.149   2.165   5.031  0.9332  2.3155 -0.7777
 7846TIP3   OH247732   6.986   5.326   2.227  1.0958  0.1827  0.4450
 7846TIP3    H147733   6.915   5.304   2.288  1.7786  0.2828  1.2924
 7846TIP3    H247734   7.039   5.247   2.224 -0.2247 -0.7224 -1.9335
 7847TIP3   OH247735   3.019   1.974   4.604 -0.9455  0.7160 -0.0632
 7847TIP3    H147736   3.095   2.013   4.560 -1.6696  0.2594 -1.8053
 7847TIP3    H247737   2.946   1.993   4.546 -2.1547  0.9094  1.4466
 7848TIP3   OH247738   2.621   6.546   2.683  0.7285  0.0565 -0.4306
 7848TIP3    H147739   2.615   6.451   2.674  0.0035 -0.1179  1.4220
 7848TIP3    H247740   2.573   6.565   2.763  3.1872  1.6699  0.7835
 7849TIP3   OH247741   5.820   4.842   3.687 -0.0841 -0.0786 -1.0594
 7849TIP3    H147742   5.767   4.913   3.723  2.2692  0.3885  1.8987
 7849TIP3    H247743   5.867   4.882   3.614  0.9814  1.4513  0.3789
 7850TIP3   OH247744   5.388   1.777   2.516 -0.5053 -0.3933 -0.3589
 7850TIP3    H147745   5.307   1.735   2.545 -1.0080  1.3882  0.9695
 7850TIP3    H247746   5.455   1.746   2.577  0.0865 -2.5906 -2.0066
 7851TIP3   OH247747   4.670   3.297   3.591 -0.0658  0.1205  0.0903
 7851TIP3    H147748   4.649   3.357   3.663  0.9439 -0.8431  1.2280
 7851TIP3    H247749   4.642   3.211   3.622  0.0972 -0.2648 -0.7955
 7852TIP3   OH247750   2.354   4.657   4.416  0.1979 -0.1022  0.0760
 7852TIP3    H147751   2.324   4.604   4.489  1.2530 -0.1672  0.4677
 7852TIP3    H247752   2.307   4.740   4.426  1.0731  0.2584  1.4173
 7853TIP3   OH247753   4.883   2.108   4.451  0.0682  0.0700 -0.0600
 7853TIP3    H147754   4.818   2.094   4.381 -0.3112 -0.2229  0.3428
 7853TIP3    H247755   4.865   2.196   4.483  0.8302  0.5611 -0.9258
 7854TIP3   OH247756   7.369   3.096   2.850  0.1230  0.0982 -0.2465
 7854TIP3    H147757   7.365   3.115   2.756 -0.6797 -3.0031 -0.9581
 7854TIP3    H247758   7.299   3.149   2.888  0.6030  1.5762 -1.3294
 7855TIP3   OH247759   2.695   3.723   2.826  0.3109 -0.1273 -0.7786
 7855TIP3    H147760   2.763   3.746   2.889 -2.9832  0.9551  2.7876
 7855TIP3    H247761   2.669   3.634   2.852 -1.5297  0.5835 -0.0362
 7856TIP3   OH247762   4.563   7.573   3.703  0.3214 -0.4970 -0.3644
 7856TIP3    H147763   4.614   7.501   3.667  1.0926 -0.0701 -0.1455
 7856TIP3    H247764   4.578   7.646   3.643  2.0937  0.3960  1.0653
 7857TIP3   OH247765   3.011   2.813   2.969 -0.6946  0.5895 -0.3740
 7857TIP3    H147766   2.964   2.844   2.892 -1.9374 -0.7415 -0.1912
 7857TIP3    H247767   3.098   2.790   2.936  0.0106  3.3480 -0.6621
 7858TIP3   OH247768   6.368   2.154   3.030  0.0937 -0.4745  0.5405
 7858TIP3    H147769   6.399   2.145   2.940 -2.6751 -1.7580 -0.4010
 7858TIP3    H247770   6.406   2.080   3.076  0.2708 -0.7093  0.0272
 7859TIP3   OH247771   3.555   3.844   4.172  0.0386  0.1940  0.2117
 7859TIP3    H147772   3.603   3.891   4.240  0.1619 -0.9273  0.9359
 7859TIP3    H247773   3.463   3.862   4.192  0.0990  0.6760  0.0659
 7860TIP3   OH247774   2.177   0.121   2.841 -0.0378  0.0023 -0.0157
 7860TIP3    H147775   2.226   0.043   2.818 -0.7910 -0.8680  1.2180
 7860TIP3    H247776   2.096   0.115   2.790 -0.4051 -0.4052  0.5997
 7861TIP3   OH247777   2.791   7.039   2.522  0.0674  0.1735 -0.6094
 7861TIP3    H147778   2.813   7.106   2.458 -0.1481  0.2159 -0.6394
 7861TIP3    H247779   2.863   6.976   2.517  0.5340  0.6701 -0.2055
 7862TIP3   OH247780   4.096   0.794   4.841 -0.2216 -0.4162  0.3717
 7862TIP3    H147781   4.014   0.746   4.843 -0.1461 -0.5577  0.1789
 7862TIP3    H247782   4.141   0.769   4.922 -0.5504 -0.0069  0.6861
 7863TIP3   OH247783   0.790   0.424   4.499 -0.6434  0.4988  0.3659
 7863TIP3    H147784   0.710   0.375   4.521 -0.4782  0.9870  2.1346
 7863TIP3    H247785   0.758   0.511   4.474 -0.8772 -0.2101 -2.0946
 7864TIP3   OH247786   4.885   5.732   2.273  0.1878 -0.1037 -0.5237
 7864TIP3    H147787   4.911   5.798   2.210  0.4598  0.1590 -0.1429
 7864TIP3    H247788   4.794   5.712   2.252 -0.0932  0.8530 -0.2430
 7865TIP3   OH247789   7.666   0.143   2.555 -0.0192  0.1594  0.2269
 7865TIP3    H147790   7.636   0.189   2.476  1.4993  1.8819  0.5958
 7865TIP3    H247791   7.596   0.079   2.573 -0.4546 -0.2264 -2.4258
 7866TIP3   OH247792   5.920   3.027   4.377 -0.4052  0.1503 -0.2844
 7866TIP3    H147793   5.911   2.963   4.447 -1.1765 -0.9810 -1.3663
 7866TIP3    H247794   5.831   3.060   4.363 -0.3489 -0.0124 -1.0668
 7867TIP3   OH247795   4.740   1.426   4.218  0.0812 -0.3582 -0.4185
 7867TIP3    H147796   4.725   1.518   4.199  1.1880 -0.0828 -0.0143
 7867TIP3    H247797   4.772   1.425   4.308  0.7576 -1.0661 -0.6610
 7868TIP3   OH247798   3.793   2.862   2.193 -0.3168  0.2427  0.2582
 7868TIP3    H147799   3.775   2.881   2.285  0.8519 -1.4769  0.8784
 7868TIP3    H247800   3.872   2.912   2.173  0.5199 -0.8478  0.7627
 7869TIP3   OH247801   5.485   3.910   2.549  0.1566  0.0200 -0.3915
 7869TIP3    H147802   5.418   3.924   2.482  0.8838  0.8078 -0.9762
 7869TIP3    H247803   5.546   3.983   2.538  0.2482  0.2176  1.1908
 7870TIP3   OH247804   5.017   3.065   4.252 -0.2648 -0.4142  0.2005
 7870TIP3    H147805   5.075   3.127   4.208  0.0512 -1.1663 -0.4724
 7870TIP3    H247806   5.042   2.979   4.217 -0.1397 -1.0261  1.7088
 7871TIP3   OH247807   7.387   3.969   3.847 -0.7652 -0.1784 -0.4708
 7871TIP3    H147808   7.420   4.000   3.931  0.2018 -1.2140 -0.4527
 7871TIP3    H247809   7.343   3.886   3.867 -1.0555 -0.1301 -0.8944
 7872TIP3   OH247810   5.613   2.120   2.716 -0.6256  0.2626 -0.1110
 7872TIP3    H147811   5.528   2.075   2.712 -0.0752 -0.7233 -1.5007
 7872TIP3    H247812   5.674   2.061   2.672  0.6065  1.3755  0.0209
 7873TIP3   OH247813   6.017   2.567   2.686  0.1549  0.0801  0.3104
 7873TIP3    H147814   5.968   2.522   2.756  2.3527 -0.7129  1.4450
 7873TIP3    H247815   6.063   2.637   2.731  0.7213  0.2803 -0.5645
 7874TIP3   OH247816   0.277   7.277   3.100  0.0117  0.4986 -0.6240
 7874TIP3    H147817   0.366   7.310   3.115  0.4246  0.6292 -2.9333
 7874TIP3    H247818   0.243   7.333   3.030 -1.9618  0.5103  0.2856
 7875TIP3   OH247819   1.729   1.785   4.135  0.0955  0.1700 -0.5758
 7875TIP3    H147820   1.798   1.741   4.185 -1.2000 -2.5433 -1.0189
 7875TIP3    H247821   1.734   1.746   4.048 -2.2940 -0.5142 -0.4746
 7876TIP3   OH247822   5.090   6.235   2.267  0.4875 -0.1382 -0.0803
 7876TIP3    H147823   5.052   6.149   2.250  0.4637 -1.0278  3.6546
 7876TIP3    H247824   5.021   6.282   2.315  2.3863 -0.2004  2.9457
 7877TIP3   OH247825   0.871   2.619   4.840 -0.5888  0.6756 -0.1468
 7877TIP3    H147826   0.915   2.699   4.870  0.5776  0.4013 -1.0590
 7877TIP3    H247827   0.939   2.552   4.843 -1.4464 -0.2026  0.1826
 7878TIP3   OH247828   1.337   5.140   2.887 -0.6052  0.4241  0.1983
 7878TIP3    H147829   1.328   5.046   2.899 -0.5074  0.1406 -1.7296
 7878TIP3    H247830   1.383   5.170   2.966 -0.0640 -1.2235  0.5434
 7879TIP3   OH247831   5.539   4.119   3.706  0.1138  0.0625 -0.2770
 7879TIP3    H147832   5.561   4.055   3.774  1.4295  0.5463 -0.2356
 7879TIP3    H247833   5.454   4.154   3.734 -1.1186 -2.3159 -0.7928
 7880TIP3   OH247834   4.166   5.853   4.495  0.0480 -0.5178 -0.2876
 7880TIP3    H147835   4.243   5.814   4.536  0.3959  0.6705  0.2349
 7880TIP3    H247836   4.098   5.786   4.504  0.5648 -0.9280  0.7612
 7881TIP3   OH247837   5.187   1.916   2.905 -0.6058  0.3584 -0.5574
 7881TIP3    H147838   5.125   1.858   2.860  0.7918 -0.2012 -1.8613
 7881TIP3    H247839   5.235   1.859   2.965 -0.0681  0.3914 -0.9457
 7882TIP3   OH247840   4.683   1.162   5.234  0.3957 -0.0902 -0.2739
 7882TIP3    H147841   4.696   1.257   5.229 -1.8698  0.3182  0.3764
 7882TIP3    H247842   4.717   1.129   5.151 -1.5149  1.6991 -1.9118
 7883TIP3   OH247843   6.011   7.368   2.762 -0.3442 -0.1532 -0.1019
 7883TIP3    H147844   5.931   7.419   2.749  0.7876  1.3290 -1.6568
 7883TIP3    H247845   6.071   7.400   2.695  1.0687 -2.2791  0.0548
 7884TIP3   OH247846   4.677   5.797   3.694 -0.2960 -0.4591 -0.5654
 7884TIP3    H147847   4.704   5.863   3.630 -1.6139  1.0875  0.3840
 7884TIP3    H247848   4.710   5.715   3.659  0.0005  0.4810 -2.6475
 7885TIP3   OH247849   4.256   1.822   4.773  0.5252  0.0139 -0.1349
 7885TIP3    H147850   4.267   1.882   4.848 -1.1427  1.3871 -0.9149
 7885TIP3    H247851   4.220   1.877   4.704 -1.2540 -1.9258 -0.8571
 7886TIP3   OH247852   2.428   5.485   2.879  0.0663 -0.3993  0.0850
 7886TIP3    H147853   2.388   5.572   2.881 -0.4671 -0.6454  0.3015
 7886TIP3    H247854   2.481   5.481   2.958 -0.4326 -0.5157  0.4125
 7887TIP3   OH247855   3.832   6.408   4.137  0.6442 -0.2781  0.2317
 7887TIP3    H147856   3.763   6.453   4.186  1.5155  1.8356 -0.3758
 7887TIP3    H247857   3.869   6.345   4.200 -1.0245 -0.6152  0.9259
 7888TIP3   OH247858   5.449   0.477   3.547  0.1921  0.4533  0.1758
 7888TIP3    H147859   5.536   0.473   3.507  1.1531 -0.0817  2.1625
 7888TIP3    H247860   5.447   0.562   3.591  0.5293 -0.3091  1.7532
 7889TIP3   OH247861   4.307   2.324   1.899  0.0654 -0.6692 -0.1362
 7889TIP3    H147862   4.249   2.255   1.931 -0.8320  0.2865  0.3699
 7889TIP3    H247863   4.255   2.371   1.834  0.8979 -0.8449 -0.9617
 7890TIP3   OH247864   1.034   6.520   2.502 -0.0230  0.2501 -0.3537
 7890TIP3    H147865   1.074   6.525   2.589 -2.1441  0.1889  0.6864
 7890TIP3    H247866   1.104   6.490   2.445  0.9229 -1.7659  1.7223
 7891TIP3   OH247867   0.250   6.846   2.900 -0.3326 -0.4541  0.1028
 7891TIP3    H147868   0.253   6.764   2.851  1.0316  0.3823 -1.3508
 7891TIP3    H247869   0.331   6.846   2.952  0.7151  0.7554 -1.4069
 7892TIP3   OH247870   5.379   6.314   4.861  0.1486 -0.4532  0.4867
 7892TIP3    H147871   5.362   6.391   4.916 -0.9716 -0.8288  0.6890
 7892TIP3    H247872   5.332   6.332   4.780  1.7233  0.0551 -0.3483
 7893TIP3   OH247873   4.346   7.009   2.908  0.3027  0.2571 -0.0044
 7893TIP3    H147874   4.281   7.027   2.976 -0.2731  0.0514 -0.4906
 7893TIP3    H247875   4.420   7.065   2.931 -0.2949  0.9827  0.2069
 7894TIP3   OH247876   0.487   5.045   3.116 -0.0916  0.3679  0.2942
 7894TIP3    H147877   0.568   5.096   3.115 -0.3968  0.8633  0.8161
 7894TIP3    H247878   0.419   5.107   3.142 -0.2534 -0.5931  2.3900
 7895TIP3   OH247879   2.309   6.245   2.668 -0.9034 -0.2163  0.6499
 7895TIP3    H147880   2.338   6.277   2.753 -1.7956  0.4023  0.7362
 7895TIP3    H247881   2.300   6.150   2.680 -0.8060 -0.1622  1.1723
 7896TIP3   OH247882   1.234   6.405   3.039  0.0738 -0.1572  0.3090
 7896TIP3    H147883   1.222   6.488   2.993 -0.3590 -0.1807  0.3769
 7896TIP3    H247884   1.291   6.427   3.113 -0.0434  0.0815  0.3292
 7897TIP3   OH247885   2.937   0.587   2.484 -0.2868 -0.3278 -0.2783
 7897TIP3    H147886   3.015   0.634   2.512 -1.4103  1.7167 -0.4505
 7897TIP3    H247887   2.898   0.554   2.565 -0.5136  0.6964  0.0333
 7898TIP3   OH247888   2.869   6.884   3.273  0.2218  0.8651 -0.3071
 7898TIP3    H147889   2.876   6.790   3.291 -1.4396  0.9279  0.8924
 7898TIP3    H247890   2.921   6.925   3.342  0.7006  0.8390 -0.6512
 7899TIP3   OH247891   7.483   5.291   3.210 -0.4979  0.4628  0.1472
 7899TIP3    H147892   7.548   5.225   3.230 -0.1967  1.1243  1.4941
 7899TIP3    H247893   7.514   5.332   3.129 -0.0586 -0.2236 -0.0425
 7900TIP3   OH247894   3.774   0.739   3.252 -0.4710  0.1670  1.0271
 7900TIP3    H147895   3.761   0.646   3.269 -0.1330 -0.0625  0.1011
 7900TIP3    H247896   3.695   0.766   3.205  0.6467 -0.3692 -1.3227
 7901TIP3   OH247897   3.978   0.312   3.064  0.5902 -0.1841  0.1513
 7901TIP3    H147898   3.888   0.283   3.049  0.4413  0.8539 -1.0592
 7901TIP3    H247899   3.973   0.363   3.145  0.4362 -1.5330  1.0344
 7902TIP3   OH247900   6.373   5.702   2.845  0.2352  0.3117 -0.4311
 7902TIP3    H147901   6.389   5.613   2.874 -0.2483 -0.0360 -1.1839
 7902TIP3    H247902   6.458   5.746   2.853  0.4624 -0.1914 -0.0015
 7903TIP3   OH247903   6.137   5.759   3.720  0.0677 -0.2361  0.2557
 7903TIP3    H147904   6.089   5.836   3.690 -0.7755 -1.0519 -0.5300
 7903TIP3    H247905   6.091   5.731   3.799 -0.9752 -1.1818 -0.6494
 7904TIP3   OH247906   6.049   5.508   4.270 -0.2337  0.0827 -0.2788
 7904TIP3    H147907   6.101   5.537   4.344 -0.0380 -0.1928 -0.3066
 7904TIP3    H247908   5.964   5.484   4.308  0.2429 -1.1522  0.0284
 7905TIP3   OH247909   7.680   5.078   4.440  0.6849  0.4724  0.1362
 7905TIP3    H147910   7.640   4.993   4.454  1.6056 -0.7874 -3.5586
 7905TIP3    H247911   7.772   5.067   4.464  0.5335  0.8567  0.9164
 7906TIP3   OH247912   5.674   5.329   4.086 -0.4259 -0.4390 -0.8021
 7906TIP3    H147913   5.610   5.335   4.156  0.7383 -0.6253  0.3196
 7906TIP3    H247914   5.728   5.407   4.096 -0.4378 -0.3032 -1.7034
 7907TIP3   OH247915   1.672   5.032  10.298 -0.4186 -0.1835  0.0839
 7907TIP3    H147916   1.686   5.116  10.253 -0.7215  0.4712  1.1795
 7907TIP3    H247917   1.576   5.022  10.300 -0.3778 -0.6842 -0.2510
 7908TIP3   OH247918   5.567   3.962   3.100  0.2038 -0.2163  1.0286
 7908TIP3    H147919   5.568   3.966   3.005  1.0549 -0.5849  1.0194
 7908TIP3    H247920   5.482   4.000   3.124  1.0570  2.4628  0.2489
 7909TIP3   OH247921   1.286   2.532   3.635  0.2340 -0.0879 -0.0271
 7909TIP3    H147922   1.331   2.501   3.557 -1.6218  1.9210 -2.0498
 7909TIP3    H247923   1.346   2.596   3.674  0.5409  0.0589 -0.7248
 7910TIP3   OH247924   4.384   1.825   2.392  0.1874  0.3068 -0.0471
 7910TIP3    H147925   4.321   1.895   2.372  0.5396  0.4180 -0.7672
 7910TIP3    H247926   4.391   1.774   2.312  1.4835  0.6574 -0.1755
 7911TIP3   OH247927   0.405   3.322   3.174  0.0626 -0.5197 -0.2285
 7911TIP3    H147928   0.329   3.263   3.170 -0.3661  0.0564 -1.0688
 7911TIP3    H247929   0.458   3.288   3.246 -1.9324  0.1705  1.6844
 7912TIP3   OH247930   4.726   6.512   2.810  0.2074 -0.1007 -0.1432
 7912TIP3    H147931   4.749   6.517   2.717  1.2736 -1.4396  0.0240
 7912TIP3    H247932   4.648   6.457   2.813  0.0307  0.1441 -0.2701
 7913TIP3   OH247933   1.312   0.211   3.877  0.6978 -0.0523 -0.5004
 7913TIP3    H147934   1.266   0.273   3.821 -0.3680 -0.6855 -0.3534
 7913TIP3    H247935   1.356   0.265   3.942  2.0601  0.7046 -1.9905
 7914TIP3   OH247936   3.315   1.125   2.471  0.3162  0.2486 -0.6785
 7914TIP3    H147937   3.403   1.161   2.462  1.0280 -0.4511  2.1873
 7914TIP3    H247938   3.300   1.122   2.566 -3.3591  1.5703 -1.0344
 7915TIP3   OH247939   1.517   3.939   2.899 -0.0654  0.0270 -0.6574
 7915TIP3    H147940   1.467   3.860   2.879  1.1956 -0.9074 -0.2224
 7915TIP3    H247941   1.457   4.011   2.876 -1.2928 -1.0291 -0.9209
 7916TIP3   OH247942   4.773   4.006   2.355 -0.1208 -0.0596 -0.0028
 7916TIP3    H147943   4.720   4.025   2.278  0.6038 -0.5802 -0.6456
 7916TIP3    H247944   4.723   3.942   2.404 -0.8522  0.6983  0.2680
 7917TIP3   OH247945   7.384   2.059   4.826  0.2298  0.4444 -0.4891
 7917TIP3    H147946   7.350   1.971   4.838  2.3433 -0.5469 -1.3523
 7917TIP3    H247947   7.479   2.048   4.818  0.3981  2.5354 -2.7866
 7918TIP3   OH247948   5.306   4.231   2.530  0.0423 -0.0308 -0.1701
 7918TIP3    H147949   5.316   4.139   2.507  0.7285  0.2991 -1.2915
 7918TIP3    H247950   5.222   4.237   2.574  0.1403 -1.2434  0.2054
 7919TIP3   OH247951   6.741   5.660   4.243  0.0238 -0.6753 -0.5383
 7919TIP3    H147952   6.651   5.691   4.233 -0.2255 -1.7368 -1.8664
 7919TIP3    H247953   6.753   5.651   4.338 -0.6536  1.1538 -0.2440
 7920TIP3   OH247954   1.028   4.629   4.224 -0.5066  0.1101 -0.0999
 7920TIP3    H147955   1.000   4.585   4.145 -2.4198  1.4463 -0.2316
 7920TIP3    H247956   1.068   4.711   4.194  0.6744 -0.3099  0.2511
 7921TIP3   OH247957   0.347   2.384   2.605 -0.0155 -0.5562 -0.1971
 7921TIP3    H147958   0.318   2.303   2.646  0.0008 -1.7110 -2.2903
 7921TIP3    H247959   0.271   2.414   2.555  0.1159  0.4958  0.2108
 7922TIP3   OH247960   4.419   5.717   3.616  0.4515  0.4290 -0.4451
 7922TIP3    H147961   4.451   5.627   3.625  1.1567  0.6632 -0.5302
 7922TIP3    H247962   4.498   5.770   3.618  0.1375  0.9656 -1.5719
 7923TIP3   OH247963   3.965   2.332   3.538  0.4969  0.3305  0.0603
 7923TIP3    H147964   3.904   2.404   3.524  0.6864  0.3479 -0.7373
 7923TIP3    H247965   3.910   2.255   3.549  0.3169  0.4487 -0.0186
 7924TIP3   OH247966   3.354   5.245   3.307 -0.1123  0.1778 -0.0636
 7924TIP3    H147967   3.412   5.260   3.232  0.4074 -0.7305  0.1427
 7924TIP3    H247968   3.340   5.332   3.345  1.3282  0.3855  0.0374
 7925TIP3   OH247969   0.364   1.995   2.393 -0.7517  0.0570  0.0289
 7925TIP3    H147970   0.414   1.957   2.321 -0.7649  1.2331 -0.6306
 7925TIP3    H247971   0.278   1.953   2.387 -1.0448  0.7724 -1.2253
 7926TIP3   OH247972   3.386   5.518   4.164 -0.1700  0.5451 -0.1654
 7926TIP3    H147973   3.428   5.474   4.090 -0.8977 -0.3505 -0.0611
 7926TIP3    H247974   3.427   5.604   4.166  0.8284  0.1090 -0.7775
 7927TIP3   OH247975   1.178   6.030   3.443 -0.5878 -0.5785 -0.2282
 7927TIP3    H147976   1.121   6.022   3.366  0.1999  1.5167 -1.1064
 7927TIP3    H247977   1.265   6.011   3.409 -0.2873  0.0046  0.1990
 7928TIP3   OH247978   6.405   4.727   2.728 -0.4213 -0.0526  0.2949
 7928TIP3    H147979   6.345   4.735   2.654  1.5659 -0.5302 -1.4983
 7928TIP3    H247980   6.440   4.816   2.740  0.1052 -0.1853 -0.1640
 7929TIP3   OH247981   4.192   6.310   3.595 -0.2661 -0.5445 -0.1782
 7929TIP3    H147982   4.146   6.392   3.614  1.3841  0.0809  1.4559
 7929TIP3    H247983   4.168   6.252   3.668  1.6453 -0.1014  0.8773
 7930TIP3   OH247984   4.939   5.398   4.339 -0.1883 -0.2276  0.6849
 7930TIP3    H147985   4.846   5.373   4.333 -0.6378  1.6124 -1.1388
 7930TIP3    H247986   4.985   5.331   4.288 -0.8255  0.0775 -0.3317
 7931TIP3   OH247987   1.995   7.599   2.599 -0.1866  0.3568  0.1434
 7931TIP3    H147988   1.951   7.660   2.658 -2.1309 -0.0820 -0.7665
 7931TIP3    H247989   2.079   7.640   2.580 -0.4244  1.5311  1.5062
 7932TIP3   OH247990   4.110   6.837   4.726 -0.2416  0.6546 -0.1013
 7932TIP3    H147991   4.199   6.808   4.706 -1.2305 -2.4959 -0.4228
 7932TIP3    H247992   4.075   6.868   4.642 -1.4230 -4.1473 -1.6588
 7933TIP3   OH247993   1.315   0.023   4.653  0.1493  0.0765 -0.4113
 7933TIP3    H147994   1.219   0.022   4.651  0.1492 -0.2583 -0.3210
 7933TIP3    H247995   1.339  -0.062   4.690  0.4194  1.4423  2.8462
 7934TIP3   OH247996   6.176   4.290   4.900 -0.4567 -0.9265 -0.9217
 7934TIP3    H147997   6.188   4.248   4.814  1.8347 -0.2780 -0.9783
 7934TIP3    H247998   6.249   4.258   4.953 -0.2379  0.8010 -0.0998
 7935TIP3   OH247999   6.078   6.502   2.780 -0.2259 -0.1202 -0.1768
 7935TIP3    H148000   6.016   6.565   2.744  0.2860  0.5506  0.0942
 7935TIP3    H248001   6.058   6.419   2.735 -1.9902 -0.1764  0.6578
 7936TIP3   OH248002   2.447   4.288   4.483  0.0669  0.4126 -0.2796
 7936TIP3    H148003   2.541   4.283   4.466  0.2724  2.7498 -0.1059
 7936TIP3    H248004   2.409   4.322   4.402 -0.7025 -0.7199 -0.4291
 7937TIP3   OH248005   6.258   4.182   4.653  0.3732  0.0974  0.7391
 7937TIP3    H148006   6.346   4.208   4.626  0.1554 -0.5877 -0.7563
 7937TIP3    H248007   6.225   4.130   4.579 -1.0616 -0.1542  1.5222
 7938TIP3   OH248008   3.206   6.245   4.053 -0.0512 -0.5191 -0.0785
 7938TIP3    H148009   3.227   6.250   4.146  1.6776 -0.5536 -0.4291
 7938TIP3    H248010   3.279   6.196   4.015 -0.3342  0.1542 -1.5596
 7939TIP3   OH248011   1.035   5.723   4.428  0.2670  0.1555 -0.6102
 7939TIP3    H148012   0.977   5.692   4.498  0.6761  1.5458  0.3973
 7939TIP3    H248013   1.123   5.703   4.460  0.4012 -1.1720 -1.7452
 7940TIP3   OH248014   2.888   2.830   1.850 -0.3040  0.2596  0.4551
 7940TIP3    H148015   2.923   2.913   1.884 -0.1435 -0.6543  2.6826
 7940TIP3    H248016   2.941   2.763   1.892 -2.3969 -1.0602  1.1401
 7941TIP3   OH248017   2.318   5.947   1.975 -1.0103  0.1253  0.5093
 7941TIP3    H148018   2.384   5.979   1.915  0.0763  1.5223  2.3340
 7941TIP3    H248019   2.279   6.026   2.014  0.2129 -0.6206  3.5326
 7942TIP3   OH248020   7.123   3.686   2.732 -0.5060  0.7226 -0.0614
 7942TIP3    H148021   7.214   3.717   2.727 -0.5833  1.6566  2.7639
 7942TIP3    H248022   7.128   3.594   2.704  1.7406  0.1311  1.9261
 7943TIP3   OH248023   0.544   2.147   3.607  0.2463 -0.1235 -0.2552
 7943TIP3    H148024   0.625   2.192   3.582  2.3836 -3.0960  0.7141
 7943TIP3    H248025   0.497   2.210   3.661  2.8047  1.1585  0.6320
 7944TIP3   OH248026   1.399   2.974   3.208  0.2720 -0.1391  0.1212
 7944TIP3    H148027   1.316   2.926   3.201 -0.0402  0.3874  0.1044
 7944TIP3    H248028   1.380   3.045   3.269  1.2463 -1.0888  1.5913
 7945TIP3   OH248029   1.333   0.378   2.882  0.2815 -0.0069  0.1059
 7945TIP3    H148030   1.407   0.363   2.941  0.1045 -1.1093  0.0631
 7945TIP3    H248031   1.316   0.292   2.843 -1.2087  0.1654  0.3394
 7946TIP3   OH248032   1.811   5.853   3.231  0.8184 -0.0003 -0.2686
 7946TIP3    H148033   1.907   5.846   3.231  0.7299 -1.5282  0.5856
 7946TIP3    H248034   1.790   5.877   3.141  2.0534  1.4289 -0.2241
 7947TIP3   OH248035   3.159   1.396   3.595  0.0155  0.4000 -0.0358
 7947TIP3    H148036   3.077   1.405   3.547 -0.0579  0.1471  0.0420
 7947TIP3    H248037   3.133   1.381   3.686  0.1531  0.7634  0.0689
 7948TIP3   OH248038   0.410   4.575   3.120  0.0961  0.1454  0.1912
 7948TIP3    H148039   0.445   4.592   3.032 -0.0334 -2.1315 -0.3786
 7948TIP3    H248040   0.487   4.547   3.171  0.1272  1.2093  0.7438
 7949TIP3   OH248041   1.670   2.637   2.940  0.1054  0.5051 -0.4552
 7949TIP3    H148042   1.682   2.553   2.984 -1.3632  1.0690  1.1331
 7949TIP3    H248043   1.602   2.621   2.875  0.7511  0.1816 -1.0659
 7950TIP3   OH248044   2.695   3.311   3.896  0.1184  0.2319  0.3347
 7950TIP3    H148045   2.610   3.321   3.854  0.0265  1.6593  0.7976
 7950TIP3    H248046   2.740   3.394   3.878  1.1635 -0.2498  0.6500
 7951TIP3   OH248047   6.854   1.226   2.227  0.0510 -0.1921  0.6369
 7951TIP3    H148048   6.793   1.300   2.228 -0.1803 -0.3125 -1.0329
 7951TIP3    H248049   6.937   1.262   2.259 -0.2170  0.6369  0.4119
 7952TIP3   OH248050   0.608   3.393   2.645 -0.3430  0.5893  0.7244
 7952TIP3    H148051   0.527   3.343   2.657  0.0953 -0.2883  0.1682
 7952TIP3    H248052   0.667   3.360   2.714 -0.0159  0.2548  0.2908
 7953TIP3   OH248053   1.266   6.265   3.612  0.2832  0.4549  0.3386
 7953TIP3    H148054   1.207   6.291   3.683  1.8460  0.6394  1.6420
 7953TIP3    H248055   1.230   6.183   3.579  0.9582 -1.1085  3.2027
 7954TIP3   OH248056   6.928   5.039   4.182 -0.3835  0.3345 -0.2029
 7954TIP3    H148057   6.940   5.085   4.265 -1.1220  0.1713  0.0021
 7954TIP3    H248058   6.881   5.101   4.126 -1.5626 -0.2025  0.1414
 7955TIP3   OH248059   6.433   7.254   2.349 -0.0018 -0.2653  0.0643
 7955TIP3    H148060   6.479   7.337   2.334 -1.0863  0.2766 -0.3643
 7955TIP3    H248061   6.340   7.276   2.340 -0.2867 -1.6174 -0.5170
 7956TIP3   OH248062   7.617   4.275   3.802 -0.1692 -0.2051  0.0798
 7956TIP3    H148063   7.640   4.189   3.836 -2.2103 -0.9342 -0.2508
 7956TIP3    H248064   7.679   4.335   3.845  1.7954 -1.8740 -0.2634
 7957TIP3   OH248065   4.606   3.083   4.029  0.1056 -0.2835  0.8564
 7957TIP3    H148066   4.666   3.144   3.986 -0.2805 -0.5470 -0.0902
 7957TIP3    H248067   4.520   3.104   3.992  0.1574 -2.3409 -0.6238
 7958TIP3   OH248068   5.045   4.007   2.254 -0.2531  0.7987 -0.0294
 7958TIP3    H148069   5.037   4.076   2.189 -0.3770  1.0205  0.2165
 7958TIP3    H248070   4.954   3.988   2.279 -0.3041 -0.3633 -1.0373
 7959TIP3   OH248071   5.142   7.645   3.498  0.3415 -0.1205 -0.0390
 7959TIP3    H148072   5.162   7.552   3.484  1.3759  0.1553 -0.4442
 7959TIP3    H248073   5.122   7.679   3.411 -1.6031 -0.2936  0.2962
 7960TIP3   OH248074   0.026   6.146   4.413 -0.9559 -0.3850 -0.1241
 7960TIP3    H148075   0.044   6.236   4.385  0.6391 -0.6097  0.1112
 7960TIP3    H248076  -0.022   6.107   4.340  0.1888  0.0415 -1.1266
 7961TIP3   OH248077   1.777   5.081   3.776 -0.0300  0.7390 -0.5289
 7961TIP3    H148078   1.702   5.055   3.723  0.3761  1.7997 -1.6634
 7961TIP3    H248079   1.761   5.040   3.862 -1.8177  0.8386 -0.7806
 7962TIP3   OH248080   3.897   4.204   3.559 -0.3403 -0.2207  0.1315
 7962TIP3    H148081   3.861   4.125   3.600  0.3242 -1.0642 -0.8519
 7962TIP3    H248082   3.987   4.179   3.536  0.0521  1.0032  0.2791
 7963TIP3   OH248083   6.356   1.679   3.714  0.6011 -0.4708  0.1310
 7963TIP3    H148084   6.277   1.665   3.662  1.0574  0.1194 -0.7572
 7963TIP3    H248085   6.333   1.748   3.776  0.8487  0.9055 -1.2132
 7964TIP3   OH248086   0.197   5.073   2.346  0.3203  0.6348 -0.1808
 7964TIP3    H148087   0.200   5.141   2.414  1.4266  0.5073 -0.0845
 7964TIP3    H248088   0.111   5.085   2.304 -0.7177  0.2188  1.7187
 7965TIP3   OH248089   0.847   6.842   4.514 -0.5534  0.5228  0.0591
 7965TIP3    H148090   0.754   6.823   4.515 -0.5218  0.2229 -1.0180
 7965TIP3    H248091   0.890   6.758   4.528 -0.4357  0.7547  1.1682
 7966TIP3   OH248092   6.928   6.909   4.395 -0.5113  0.2145 -0.2412
 7966TIP3    H148093   6.964   6.995   4.417  0.7269 -0.2622 -0.3402
 7966TIP3    H248094   6.961   6.851   4.463 -1.4116 -0.1724 -0.1274
 7967TIP3   OH248095   0.925   3.838   4.895 -0.2787  0.2616 -0.5964
 7967TIP3    H148096   0.886   3.909   4.945 -0.6114  0.3684 -1.0005
 7967TIP3    H248097   0.851   3.780   4.876  0.2583 -1.1673  1.2990
 7968TIP3   OH248098   1.990   0.489   2.572 -0.8477 -0.5900 -0.5395
 7968TIP3    H148099   2.024   0.414   2.523 -2.5032 -0.1614 -2.5161
 7968TIP3    H248100   2.043   0.563   2.542 -0.7386 -0.5971 -0.3648
 7969TIP3   OH248101   2.633   4.958   3.908  0.5982  0.1682 -0.3532
 7969TIP3    H148102   2.703   4.899   3.878  1.1410 -0.2197  1.5410
 7969TIP3    H248103   2.563   4.899   3.936  0.5206  0.4798  0.0993
 7970TIP3   OH248104   7.149   0.307   2.796  0.4599  0.2042 -0.2126
 7970TIP3    H148105   7.178   0.222   2.763  1.7559  0.0840  1.1608
 7970TIP3    H248106   7.229   0.360   2.801 -0.3546  1.6178 -1.2545
 7971TIP3   OH248107   3.450   6.649   4.529  0.0337 -0.4349 -0.4035
 7971TIP3    H148108   3.394   6.601   4.590 -0.6532 -0.1919 -0.8296
 7971TIP3    H248109   3.490   6.718   4.583  0.2610 -0.8733 -0.0042
 7972TIP3   OH248110   5.747   0.237   2.174  0.0251 -0.0420 -0.5683
 7972TIP3    H148111   5.670   0.180   2.168  0.3914 -0.4828 -1.3271
 7972TIP3    H248112   5.750   0.265   2.265 -0.5213 -0.7543 -0.3208
 7973TIP3   OH248113   4.256   2.419   4.491 -0.1634  0.8122  0.4081
 7973TIP3    H148114   4.223   2.356   4.555 -0.6339  0.8696  0.2299
 7973TIP3    H248115   4.190   2.418   4.421 -0.1583  1.4746  0.3879
 7974TIP3   OH248116   6.846   5.572   4.006 -0.0370  0.1445  0.6393
 7974TIP3    H148117   6.822   5.597   4.095  0.9579  0.0583  0.9358
 7974TIP3    H248118   6.771   5.600   3.953 -0.6198  0.2406  1.4834
 7975TIP3   OH248119   3.368   6.720   3.819  0.2611 -0.2083  0.2278
 7975TIP3    H148120   3.342   6.773   3.743 -0.5054  0.4571  0.9372
 7975TIP3    H248121   3.354   6.630   3.790 -0.2102  0.0421 -0.3665
 7976TIP3   OH248122   7.656   5.579   3.263 -0.0304 -0.8784  0.4760
 7976TIP3    H148123   7.660   5.640   3.336 -0.2120  0.5647 -0.6746
 7976TIP3    H248124   7.585   5.520   3.285 -0.0277 -0.5221  1.4954
 7977TIP3   OH248125   7.329   7.621   3.777 -0.3405  1.0570 -0.4040
 7977TIP3    H148126   7.409   7.670   3.758 -0.0634  0.2961 -1.2406
 7977TIP3    H248127   7.273   7.684   3.822  0.6931  1.6246  0.1371
 7978TIP3   OH248128   0.737   4.164   3.330  0.7403 -0.2101 -0.3930
 7978TIP3    H148129   0.675   4.099   3.299 -1.6209  1.2896  0.8634
 7978TIP3    H248130   0.795   4.180   3.256 -0.5516 -1.4966 -1.7281
 7979TIP3   OH248131   5.422   3.670   3.488  0.5431 -0.6326  0.0821
 7979TIP3    H148132   5.393   3.760   3.505 -0.7296 -0.6759 -1.5272
 7979TIP3    H248133   5.495   3.679   3.428  0.9182 -0.6538  0.5347
 7980TIP3   OH248134   1.387   7.659   4.343  0.3449  0.5613 -0.4192
 7980TIP3    H148135   1.384   7.695   4.432  0.4549 -1.7280  0.5763
 7980TIP3    H248136   1.477   7.674   4.315  0.3754  1.0907 -0.0602
 7981TIP3   OH248137   1.255   3.481   3.399  0.1380  0.0555 -0.4592
 7981TIP3    H148138   1.191   3.443   3.459  1.8673 -2.0425  0.1757
 7981TIP3    H248139   1.320   3.522   3.457  1.0161 -0.6283 -0.9574
 7982TIP3   OH248140   6.114   4.504   4.770 -0.0338 -0.1345 -0.0719
 7982TIP3    H148141   6.122   4.434   4.835 -0.0470 -0.4317 -0.3884
 7982TIP3    H248142   6.130   4.584   4.820  0.2128 -0.3779  0.2478
 7983TIP3   OH248143   6.587   3.805   3.998 -0.1102 -0.2499 -0.1332
 7983TIP3    H148144   6.507   3.816   3.947 -0.2306  0.5865  0.2237
 7983TIP3    H248145   6.558   3.807   4.089  0.1557 -1.3327 -0.0096
 7984TIP3   OH248146   2.627   5.618   3.288  0.3963  0.3162  0.4209
 7984TIP3    H148147   2.697   5.674   3.254 -0.7156  0.6405 -1.4534
 7984TIP3    H248148   2.568   5.679   3.332  0.5756  0.2316  0.7816
 7985TIP3   OH248149   3.877   5.017   3.897  0.0260 -0.0640  0.0892
 7985TIP3    H148150   3.892   4.929   3.932 -1.3067 -0.8257 -1.1210
 7985TIP3    H248151   3.960   5.040   3.855  0.1412 -1.0981 -0.2943
 7986TIP3   OH248152   5.984   4.404   3.614  0.4654 -0.2988 -0.6665
 7986TIP3    H148153   5.904   4.454   3.599 -0.8240 -1.7819  0.7404
 7986TIP3    H248154   6.029   4.450   3.685 -0.6280 -0.9732  0.5091
 7987TIP3   OH248155   5.160   2.077   3.306 -0.4617 -0.4053  0.1779
 7987TIP3    H148156   5.140   1.985   3.323  0.1952 -0.4556  0.7124
 7987TIP3    H248157   5.123   2.124   3.380 -0.2562 -0.3075  0.2202
 7988TIP3   OH248158   5.771   6.073   2.345  0.0712 -0.2900  0.2216
 7988TIP3    H148159   5.770   6.124   2.426  0.4894 -0.3908  0.2884
 7988TIP3    H248160   5.861   6.079   2.313  0.9296 -3.3350  1.7086
 7989TIP3   OH248161   3.076   1.902   4.861  0.2080  0.1981  0.2087
 7989TIP3    H148162   3.140   1.968   4.888  1.1919 -0.1469 -1.1308
 7989TIP3    H248163   3.073   1.909   4.765 -0.5407 -0.9009  0.1222
 7990TIP3   OH248164   3.582   1.886   2.205 -0.2703 -0.1349  0.1343
 7990TIP3    H148165   3.524   1.824   2.251  1.2552 -1.1274  0.8132
 7990TIP3    H248166   3.527   1.962   2.189 -1.8803 -1.1871  0.3795
 7991TIP3   OH248167   4.654   1.384   4.636  0.1009 -0.1292  0.1954
 7991TIP3    H148168   4.672   1.294   4.610 -0.9190 -0.4775  0.6358
 7991TIP3    H248169   4.581   1.411   4.581 -0.7283 -0.1770  1.2263
 7992TIP3   OH248170   2.038   1.860   5.289 -0.1002  0.8209 -0.5399
 7992TIP3    H148171   2.057   1.835   5.198  2.0333  0.1051  0.0498
 7992TIP3    H248172   1.962   1.807   5.312 -0.2480  0.5001 -1.6967
 7993TIP3   OH248173   6.498   3.087   3.650  0.0373  0.1917  0.4251
 7993TIP3    H148174   6.450   3.116   3.727  0.6373  1.4219  0.3471
 7993TIP3    H248175   6.484   2.992   3.648  0.5483  0.0315  2.4231
 7994TIP3   OH248176   2.849   6.294   2.824 -0.2922 -0.6189  0.5205
 7994TIP3    H148177   2.860   6.333   2.911  0.1746  1.8259 -0.5484
 7994TIP3    H248178   2.939   6.284   2.792 -0.5022  0.3246 -0.4003
 7995TIP3   OH248179   5.787   2.008   3.595  0.1256 -0.2471 -0.4884
 7995TIP3    H148180   5.811   2.055   3.674 -0.6063 -0.3743 -0.1854
 7995TIP3    H248181   5.701   2.042   3.572  0.5128  0.1097 -1.4851
 7996TIP3   OH248182   6.345   6.936   4.193 -0.4865 -0.1910  0.2409
 7996TIP3    H148183   6.348   6.846   4.160  1.3116  0.0433 -0.3150
 7996TIP3    H248184   6.361   6.990   4.115  2.4937  0.4283  1.1654
 7997TIP3   OH248185   0.646   2.142   3.941 -0.1874 -0.1769  0.3121
 7997TIP3    H148186   0.693   2.224   3.925  1.9090 -1.3769 -0.1529
 7997TIP3    H248187   0.562   2.153   3.897  0.1979  1.5732 -0.0535
 7998TIP3   OH248188   1.104   3.750   4.221 -0.4616 -0.2000 -0.7150
 7998TIP3    H148189   1.048   3.684   4.262  0.1520  1.4794  3.2948
 7998TIP3    H248190   1.193   3.717   4.234 -0.2410  0.4253 -0.6249
 7999TIP3   OH248191   3.583   7.370   4.230 -0.2328 -0.0967 -0.5637
 7999TIP3    H148192   3.602   7.411   4.315 -3.1610  0.1656  0.0477
 7999TIP3    H248193   3.610   7.278   4.241 -0.0035  0.0808  0.4162
 8000TIP3   OH248194   1.964   7.348   2.787  0.0597 -0.0470 -0.4375
 8000TIP3    H148195   1.961   7.382   2.698  0.5223 -1.4335 -1.0080
 8000TIP3    H248196   2.026   7.275   2.783 -2.0589 -2.0114  0.3328
 8001TIP3   OH248197   0.221   5.877   4.088 -0.1071 -0.5764 -0.6300
 8001TIP3    H148198   0.224   5.897   3.995 -1.0192 -0.4919 -0.6508
 8001TIP3    H248199   0.214   5.781   4.092  2.5143 -0.8273 -0.5688
 8002TIP3   OH248200   1.778   1.093   4.656  0.1965  0.3082 -0.0313
 8002TIP3    H148201   1.873   1.096   4.667  0.3544 -0.8086 -0.9579
 8002TIP3    H248202   1.765   1.107   4.562 -0.6449  1.6699  0.2594
 8003TIP3   OH248203   2.229   4.657   2.603  0.5069  0.4063 -0.0661
 8003TIP3    H148204   2.207   4.674   2.695  1.6601  1.1643  0.0818
 8003TIP3    H248205   2.155   4.692   2.554  0.4913  1.2083  0.5088
 8004TIP3   OH248206   3.885   3.600   3.957  0.1465  0.3392  0.5523
 8004TIP3    H148207   3.837   3.681   3.978 -0.4170  0.0985  0.2153
 8004TIP3    H248208   3.962   3.631   3.908 -0.1337  0.6625  0.3097
 8005TIP3   OH248209   5.393   4.245   2.909  0.0228  0.0979 -0.2054
 8005TIP3    H148210   5.424   4.319   2.856 -1.0042  1.2374  0.7230
 8005TIP3    H248211   5.446   4.171   2.880 -0.4728  0.6562 -2.7976
 8006TIP3   OH248212   2.623   4.025   2.260  0.1103  0.2004  0.5212
 8006TIP3    H148213   2.569   3.964   2.209 -1.1176  0.7038  1.1698
 8006TIP3    H248214   2.707   3.981   2.269 -0.8682 -1.6179  1.3280
 8007TIP3   OH248215   5.683   6.215   3.243  0.5406  0.5940  0.2025
 8007TIP3    H148216   5.725   6.186   3.324  2.3957 -0.8571 -1.1864
 8007TIP3    H248217   5.750   6.204   3.176 -1.6720 -0.6603 -1.9790
 8008TIP3   OH248218   4.735   6.387   2.137 -0.7440 -0.1698 -0.2735
 8008TIP3    H148219   4.803   6.395   2.070 -0.9655 -0.3737 -0.5234
 8008TIP3    H248220   4.730   6.294   2.155  0.2576 -0.0075  1.0141
 8009TIP3   OH248221   5.298   0.994   3.138 -0.0472 -0.3695 -0.0750
 8009TIP3    H148222   5.390   1.001   3.166 -0.5206  0.7413  1.3321
 8009TIP3    H248223   5.270   1.085   3.128 -1.0245 -0.7022 -0.3826
 8010TIP3   OH248224   5.859   3.174   3.938  0.8988 -0.0071  0.2925
 8010TIP3    H148225   5.766   3.199   3.935  1.0535  0.5865  0.1664
 8010TIP3    H248226   5.859   3.079   3.939  0.2766 -0.0070  0.5790
 8011TIP3   OH248227   1.217   0.724   3.405  0.1914  0.2118 -0.2043
 8011TIP3    H148228   1.149   0.770   3.454  0.7571 -0.1538  0.9410
 8011TIP3    H248229   1.278   0.793   3.378  0.6048  0.2455  0.8012
 8012TIP3   OH248230   7.155   4.996   2.406  0.6281 -0.4469 -0.5100
 8012TIP3    H148231   7.181   4.938   2.334  0.6624  1.2961 -1.9568
 8012TIP3    H248232   7.060   4.985   2.412  0.6155 -0.5462 -0.8723
 8013TIP3   OH248233   6.118   2.640   2.957 -0.0984 -0.8690 -0.3772
 8013TIP3    H148234   6.073   2.699   3.018 -0.4932 -0.3806 -1.1288
 8013TIP3    H248235   6.148   2.568   3.012  0.8869  0.2943  0.6495
 8014TIP3   OH248236   6.182   1.542   3.204 -0.3658 -0.3128  0.5311
 8014TIP3    H148237   6.254   1.509   3.150 -1.6560 -1.7975 -0.3716
 8014TIP3    H248238   6.158   1.625   3.164  0.5857  0.0285  0.6315
 8015TIP3   OH248239   4.815   4.064   3.068 -0.2563 -0.1486 -0.2499
 8015TIP3    H148240   4.887   4.019   3.112 -1.8554 -1.0235  1.6006
 8015TIP3    H248241   4.767   3.993   3.024 -0.2869  0.3741 -1.0896
 8016TIP3   OH248242   4.776   6.819   4.287 -0.0285 -0.0662 -0.4789
 8016TIP3    H148243   4.710   6.887   4.303 -0.4134 -0.5274 -0.0899
 8016TIP3    H248244   4.744   6.743   4.335  0.2881 -0.5911 -1.0909
 8017TIP3   OH248245   6.805   3.742   3.846  0.6823  0.1020  0.2327
 8017TIP3    H148246   6.817   3.650   3.823  1.5860  0.6520 -1.7114
 8017TIP3    H248247   6.720   3.744   3.891  0.6941 -1.6754  0.4222
 8018TIP3   OH248248   3.240   6.254   2.459 -0.5629 -0.3174 -0.0503
 8018TIP3    H148249   3.230   6.310   2.383 -0.1274 -0.0463  0.0919
 8018TIP3    H248250   3.152   6.218   2.474 -1.0055  0.8438  0.2690
 8019TIP3   OH248251   2.462   5.667   4.264 -0.1440  0.7108  0.3311
 8019TIP3    H148252   2.501   5.579   4.265  1.4596  1.3925  1.0835
 8019TIP3    H248253   2.473   5.697   4.174  0.2541  0.5408  0.3198
 8020TIP3   OH248254   2.783   5.131   3.270 -0.0903  0.6381  0.3148
 8020TIP3    H148255   2.702   5.108   3.225  1.1957 -2.3586 -0.7421
 8020TIP3    H248256   2.768   5.107   3.361 -0.7102  1.0270  0.3164
 8021TIP3   OH248257   5.367   1.829   3.151 -0.2464  0.4216 -0.3626
 8021TIP3    H148258   5.335   1.796   3.236 -2.7774  2.9697 -0.1655
 8021TIP3    H248259   5.401   1.916   3.170  2.3478 -0.2550 -1.5131
 8022TIP3   OH248260   5.894   6.702   2.732 -0.0513  0.3801  0.0664
 8022TIP3    H148261   5.909   6.763   2.804 -0.7261  0.2457  0.3261
 8022TIP3    H248262   5.866   6.758   2.659 -2.6640  0.2472  0.8743
 8023TIP3   OH248263   4.756   1.516   3.876  0.2047  0.0249 -0.6096
 8023TIP3    H148264   4.771   1.422   3.873 -1.5724 -0.3056 -0.2210
 8023TIP3    H248265   4.683   1.530   3.816 -0.6634  0.9117  0.6211
 8024TIP3   OH248266   6.756   4.358   3.411 -0.0203 -0.4799 -0.1969
 8024TIP3    H148267   6.838   4.396   3.379  0.2483 -0.3843  0.6069
 8024TIP3    H248268   6.732   4.294   3.344  0.5801 -0.3348 -0.5577
 8025TIP3   OH248269   1.284   5.931   3.140 -0.0905  0.1069  0.0248
 8025TIP3    H148270   1.366   5.882   3.143  0.1551  0.5538  1.2411
 8025TIP3    H248271   1.308   6.016   3.104 -0.3891 -0.3888 -1.4166
 8026TIP3   OH248272   4.342   0.093   2.743 -0.4101  0.0230  0.1041
 8026TIP3    H148273   4.379   0.006   2.728  1.3366  0.6254  0.6407
 8026TIP3    H248274   4.290   0.084   2.823 -2.5064 -1.1077 -1.2851
 8027TIP3   OH248275   0.539   3.055   2.973  0.4562  0.1071  0.0137
 8027TIP3    H148276   0.455   3.009   2.964  0.9029 -0.4732 -1.4431
 8027TIP3    H248277   0.601   3.001   2.924  1.5795  0.8254  0.6077
 8028TIP3   OH248278   3.333   7.651   4.899 -0.6131 -0.4148  0.2481
 8028TIP3    H148279   3.254   7.625   4.947 -1.7079  0.1544 -1.1757
 8028TIP3    H248280   3.316   7.742   4.873  0.4677 -0.3246 -0.1846
 8029TIP3   OH248281   4.852   7.017   5.135 -0.1014  0.0507 -0.2032
 8029TIP3    H148282   4.759   7.022   5.157  0.0605  0.4934  0.3711
 8029TIP3    H248283   4.870   7.098   5.087 -0.1240 -0.2703 -0.7710
 8030TIP3   OH248284   7.290   5.572   2.784  0.0581  0.4165  0.4937
 8030TIP3    H148285   7.363   5.613   2.738  0.5570 -1.9364 -0.9889
 8030TIP3    H248286   7.214   5.588   2.728 -0.3697  1.7815  1.4096
 8031TIP3   OH248287   2.664   1.940   5.029 -0.3348 -0.1255 -0.1293
 8031TIP3    H148288   2.618   2.020   5.056  2.5156  2.2593 -1.6734
 8031TIP3    H248289   2.626   1.919   4.943 -0.7392 -0.1077  0.0435
 8032TIP3   OH248290   2.831   7.167   2.968 -0.3184 -0.6779 -0.3084
 8032TIP3    H148291   2.914   7.137   2.929  0.2935  2.2497 -1.5027
 8032TIP3    H248292   2.764   7.136   2.907  0.3953  1.1654 -2.1610
 8033TIP3   OH248293   2.012   1.566   4.527 -0.1401  0.2431  0.1626
 8033TIP3    H148294   2.050   1.495   4.580  0.0070  0.2975  0.1300
 8033TIP3    H248295   2.087   1.610   4.488 -0.1920  0.8383  0.7141
 8034TIP3   OH248296   6.464   5.086   5.136 -0.1108 -0.0106  0.1670
 8034TIP3    H148297   6.559   5.086   5.130  0.0231  1.5763  1.6054
 8034TIP3    H248298   6.439   4.994   5.128  1.3230 -0.2630 -2.5147
 8035TIP3   OH248299   4.291   4.419   3.179 -0.0017 -0.3315  0.5405
 8035TIP3    H148300   4.271   4.410   3.273  0.9801 -0.2120  0.7680
 8035TIP3    H248301   4.330   4.335   3.155 -1.2539 -0.7682 -0.0370
 8036TIP3   OH248302   4.152   0.194   5.096 -0.4450 -0.1730 -0.3279
 8036TIP3    H148303   4.105   0.159   5.020  1.1546 -0.2541 -1.3354
 8036TIP3    H248304   4.197   0.118   5.133 -0.2330  0.0929 -0.0368
 8037TIP3   OH248305   2.386   5.704   2.065 -0.6536  0.6083  0.0278
 8037TIP3    H148306   2.346   5.770   2.008 -0.8742 -0.8589 -1.5915
 8037TIP3    H248307   2.365   5.733   2.153 -0.2664  2.9921 -0.5932
 8038TIP3   OH248308   2.541   3.862   3.187 -0.8276 -0.1942  0.5677
 8038TIP3    H148309   2.501   3.935   3.233  0.3312  1.0836 -0.3342
 8038TIP3    H248310   2.589   3.814   3.254  0.2840  1.2466  0.8718
 8039TIP3   OH248311   4.038   3.990   2.583  0.8156 -0.3154 -0.1538
 8039TIP3    H148312   3.944   4.010   2.590  0.5747 -1.6546  0.7507
 8039TIP3    H248313   4.081   4.072   2.606 -0.1134  0.4010 -0.8343
 8040TIP3   OH248314   1.474   7.407   2.738 -0.0661 -0.3474 -0.6048
 8040TIP3    H148315   1.401   7.366   2.693 -0.4355  0.7922 -1.0779
 8040TIP3    H248316   1.530   7.334   2.766 -0.6043 -1.1447 -1.5723
 8041TIP3   OH248317   1.753   5.180   2.625 -0.0696  0.3176 -0.3236
 8041TIP3    H148318   1.665   5.142   2.634  0.5880 -0.8565  1.7224
 8041TIP3    H248319   1.767   5.184   2.531 -2.0177 -0.1872 -0.6910
 8042TIP3   OH248320   0.065   1.809   2.656  0.0602 -0.0754  0.3566
 8042TIP3    H148321   0.136   1.851   2.705 -0.4318  0.1889  0.8620
 8042TIP3    H248322   0.009   1.770   2.724 -0.0546 -0.6367 -0.0556
 8043TIP3   OH248323   4.378   2.510   2.389 -0.6389  0.4413 -0.0961
 8043TIP3    H148324   4.367   2.415   2.392 -2.2600  0.5746 -0.7585
 8043TIP3    H248325   4.340   2.535   2.305 -1.5088  1.8233  0.6865
 8044TIP3   OH248326   3.367   0.384   3.837 -0.6279 -0.3119  0.7566
 8044TIP3    H148327   3.425   0.447   3.793 -0.4363  0.4167  1.9951
 8044TIP3    H248328   3.326   0.435   3.907 -0.3144 -1.6168  1.9333
 8045TIP3   OH248329   3.101   0.824   4.416 -0.4427  0.0103  0.2387
 8045TIP3    H148330   3.028   0.770   4.448  0.6761 -1.6561  0.0713
 8045TIP3    H248331   3.172   0.806   4.477 -0.1979  1.7881  0.5253
 8046TIP3   OH248332   6.382   2.670   4.474  0.9434 -0.1075  0.4075
 8046TIP3    H148333   6.421   2.749   4.437  1.4520 -0.1899  0.7465
 8046TIP3    H248334   6.289   2.690   4.482  0.9751  0.2388 -0.0591
 8047TIP3   OH248335   0.039   6.708   4.731  0.1408 -0.1129  0.0817
 8047TIP3    H148336   0.080   6.626   4.757 -1.7453 -2.3644 -3.2037
 8047TIP3    H248337  -0.015   6.733   4.807 -0.0164 -2.5192  0.8611
 8048TIP3   OH248338   3.687   5.808   2.626  0.1214  0.3185 -0.1522
 8048TIP3    H148339   3.680   5.897   2.591  3.1008  1.1405  0.9883
 8048TIP3    H248340   3.618   5.760   2.582 -0.3663  2.7398 -2.3217
 8049TIP3   OH248341   1.855   3.200   3.554  0.4783  0.2393 -0.0195
 8049TIP3    H148342   1.814   3.174   3.472 -3.3424 -1.3773  2.1369
 8049TIP3    H248343   1.802   3.273   3.586 -0.0838 -1.0775  2.3244
 8050TIP3   OH248344   4.423   5.465   2.745 -0.4776  0.3780  0.2427
 8050TIP3    H148345   4.343   5.518   2.740 -0.8263 -0.2532 -1.9843
 8050TIP3    H248346   4.437   5.434   2.655  0.7641 -1.7444  1.0896
 8051TIP3   OH248347   5.406   1.186   2.769 -0.0189  0.0271 -0.4974
 8051TIP3    H148348   5.412   1.214   2.861  0.0134  2.0061 -1.0516
 8051TIP3    H248349   5.433   1.095   2.770 -0.1426 -0.0341  1.4868
 8052TIP3   OH248350   4.546   1.321   2.352 -0.0907  0.7080 -0.4318
 8052TIP3    H148351   4.513   1.260   2.287  0.2249  1.2328 -1.0898
 8052TIP3    H248352   4.594   1.387   2.302  1.9066  0.0061  0.4708
 8053TIP3   OH248353   0.923   1.692   3.787 -0.3973 -0.1159  0.0929
 8053TIP3    H148354   0.948   1.639   3.710 -0.8654  0.0409 -0.1746
 8053TIP3    H248355   1.003   1.700   3.838 -0.5228 -1.9814  0.6859
 8054TIP3   OH248356   4.838   2.384   4.277  0.1900  0.2654 -0.5495
 8054TIP3    H148357   4.924   2.424   4.261 -1.1786  3.2220 -1.2077
 8054TIP3    H248358   4.834   2.372   4.372  0.7210  1.7369 -0.3169
 8055TIP3   OH248359   1.203   6.701   4.313 -0.5741 -0.2190  0.3058
 8055TIP3    H148360   1.167   6.790   4.308  0.7601  0.5836  3.2081
 8055TIP3    H248361   1.244   6.696   4.399 -1.9072 -4.1745  0.9309
 8056TIP3   OH248362   6.779   4.804   4.161  0.2161 -0.0874 -0.5076
 8056TIP3    H148363   6.744   4.794   4.249  1.5881 -1.0443 -0.0288
 8056TIP3    H248364   6.825   4.888   4.163 -0.0280  0.0459 -0.4181
 8057TIP3   OH248365   1.890   6.805   4.992 -0.5057 -0.6749 -0.0223
 8057TIP3    H148366   1.892   6.752   5.071 -0.6344 -0.7815 -0.0907
 8057TIP3    H248367   1.842   6.752   4.928 -0.8664 -0.3719 -0.0092
 8058TIP3   OH248368   5.045   5.345   2.272 -0.2839 -0.3360 -0.7668
 8058TIP3    H148369   4.951   5.349   2.256 -0.4271  0.8988  0.2584
 8058TIP3    H248370   5.056   5.268   2.329 -0.6391 -0.6136 -1.0663
 8059TIP3   OH248371   1.413   3.402   3.097 -0.2391  0.3381 -0.2582
 8059TIP3    H148372   1.350   3.398   3.170  0.9764 -0.6470  0.7748
 8059TIP3    H248373   1.438   3.494   3.093  0.0177  0.3353  0.8843
 8060TIP3   OH248374   6.519   4.418   3.515 -0.8490 -0.3647  0.3642
 8060TIP3    H148375   6.600   4.437   3.467 -1.9860  1.4174 -1.0097
 8060TIP3    H248376   6.537   4.338   3.563  1.9630  0.3732  0.6767
 8061TIP3   OH248377   7.321   4.213   4.228 -0.5603  0.0198 -0.2460
 8061TIP3    H148378   7.249   4.179   4.175 -0.7254  0.7130 -0.4783
 8061TIP3    H248379   7.375   4.262   4.166 -0.2346  0.0374  0.0492
 8062TIP3   OH248380   4.712   1.261   3.476 -0.2269  0.0665 -0.7844
 8062TIP3    H148381   4.789   1.223   3.519 -0.4447 -0.4885 -0.8752
 8062TIP3    H248382   4.718   1.232   3.385 -0.2385  0.5048 -0.9274
 8063TIP3   OH248383   5.448   7.519   5.014  0.9161 -0.1470  0.1580
 8063TIP3    H148384   5.522   7.488   4.962  0.6561  0.6379 -0.7022
 8063TIP3    H248385   5.482   7.595   5.062  0.5937  0.4227 -0.4959
 8064TIP3   OH248386   5.048   6.244   3.624 -0.5130 -0.0057  0.4557
 8064TIP3    H148387   5.095   6.317   3.584 -0.3435 -0.0037  0.6558
 8064TIP3    H248388   5.057   6.258   3.719 -0.0719 -0.5394  0.5025
 8065TIP3   OH248389   5.366   4.515   2.466  0.3884  0.0927  0.3409
 8065TIP3    H148390   5.351   4.421   2.463 -3.4192  0.5389  0.0244
 8065TIP3    H248391   5.367   4.542   2.374 -0.9023  0.5717  0.4449
 8066TIP3   OH248392   6.706   5.651   3.777  0.6507  0.0358  0.1688
 8066TIP3    H148393   6.641   5.583   3.761  0.3906  0.3314 -0.0355
 8066TIP3    H248394   6.731   5.682   3.690  0.0137  0.9051  0.2834
 8067TIP3   OH248395   1.232   6.628   2.668 -0.4339 -0.2766  0.3983
 8067TIP3    H148396   1.190   6.710   2.691 -0.6929 -0.2278 -0.2322
 8067TIP3    H248397   1.300   6.616   2.734  1.8299  2.0761 -1.2899
 8068TIP3   OH248398   4.038   6.582   2.889 -0.2206 -0.0391 -0.1778
 8068TIP3    H148399   3.965   6.525   2.867  0.0135 -0.9300  1.2147
 8068TIP3    H248400   4.107   6.522   2.918  1.3232  0.7221 -2.0502
 8069TIP3   OH248401   6.147   4.953   4.236 -0.0883 -0.5056 -0.1934
 8069TIP3    H148402   6.088   5.026   4.221  1.1017  0.1659 -1.8594
 8069TIP3    H248403   6.224   4.992   4.278  0.7187 -0.6901 -1.4443
 8070TIP3   OH248404   2.718   6.109   2.253 -0.1178 -0.0788  0.4631
 8070TIP3    H148405   2.693   6.017   2.256  0.9283 -0.3865 -0.0956
 8070TIP3    H248406   2.639   6.156   2.281 -0.5074 -1.1595  1.2187
 8071TIP3   OH248407   1.596   2.057   3.139  0.4256 -0.1194 -0.7745
 8071TIP3    H148408   1.525   2.121   3.130  1.9566  1.9055  0.5260
 8071TIP3    H248409   1.607   2.046   3.233  1.5534 -0.7092 -0.9517
 8072TIP3   OH248410   4.861   7.660   3.701 -0.6712 -0.0156  1.0449
 8072TIP3    H148411   4.931   7.607   3.738 -2.5950 -3.2942  0.3227
 8072TIP3    H248412   4.874   7.656   3.606  0.1789  2.4627  0.9784
 8073TIP3   OH248413   2.871   6.397   3.897 -0.1822 -0.7296  0.2404
 8073TIP3    H148414   2.848   6.489   3.881  0.9426 -0.1668  1.6089
 8073TIP3    H248415   2.941   6.379   3.834  1.5633  0.2808  1.7711
 8074TIP3   OH248416   7.403   3.191   3.530  0.1482 -0.1945  0.5304
 8074TIP3    H148417   7.467   3.219   3.464 -0.9650 -2.2578 -1.5590
 8074TIP3    H248418   7.325   3.242   3.511  0.5058  0.8658  1.7899
 8075TIP3   OH248419   6.905   4.025   4.344  0.4418 -0.1222  0.0612
 8075TIP3    H148420   6.920   3.944   4.393 -0.5477  0.0331  0.6449
 8075TIP3    H248421   6.832   4.068   4.389  2.0410  1.9678  0.8301
 8076TIP3   OH248422   3.210   5.662   3.670  0.1442 -0.1841  0.4537
 8076TIP3    H148423   3.179   5.597   3.733 -0.5557 -0.9194 -0.6204
 8076TIP3    H248424   3.296   5.690   3.704  0.5496 -1.8140  0.8347
 8077TIP3   OH248425   6.475   3.833   3.020 -0.0676 -0.4497  0.5095
 8077TIP3    H148426   6.569   3.832   3.037 -0.1970 -0.7862  1.2382
 8077TIP3    H248427   6.445   3.918   3.054  0.6075  1.6088 -3.4873
 8078TIP3   OH248428   0.757   3.145   3.652 -0.1397 -0.3848  0.6455
 8078TIP3    H148429   0.765   3.191   3.735 -1.0269 -0.1801  0.6327
 8078TIP3    H248430   0.846   3.141   3.617  0.1098  0.3024  1.1915
 8079TIP3   OH248431   3.399   2.225   3.282  0.2912  0.1282 -0.1823
 8079TIP3    H148432   3.310   2.241   3.252 -0.1856 -1.0546  0.5130
 8079TIP3    H248433   3.446   2.197   3.203  0.0977  0.9195 -0.5830
 8080TIP3   OH248434   1.243   4.613   3.285  0.1120  0.0385  0.0080
 8080TIP3    H148435   1.264   4.601   3.378 -1.5358  2.4049  0.8251
 8080TIP3    H248436   1.248   4.526   3.247  1.4168 -0.9228  2.1917
 8081TIP3   OH248437   4.529   5.562   4.088 -0.0215 -0.0170  0.1441
 8081TIP3    H148438   4.612   5.514   4.097 -0.3769 -0.5672  0.5724
 8081TIP3    H248439   4.529   5.622   4.163  1.1041  1.7481 -1.1924
 8082TIP3   OH248440   6.373   2.790   2.264 -0.1585  0.3147 -0.6193
 8082TIP3    H148441   6.334   2.742   2.337  0.3994  0.1627 -0.4185
 8082TIP3    H248442   6.300   2.840   2.227 -0.4129  0.5255  0.1440
 8083TIP3   OH248443   3.554   3.893   2.990 -0.2560  0.1492  0.2978
 8083TIP3    H148444   3.528   3.870   2.901  0.9437 -0.1120  0.0013
 8083TIP3    H248445   3.616   3.965   2.980  1.2826 -1.0621  0.7811
 8084TIP3   OH248446   6.044   5.601   3.924  0.0878 -0.4126  0.3746
 8084TIP3    H148447   5.956   5.566   3.908  0.0447  0.9132 -3.2236
 8084TIP3    H248448   6.103   5.529   3.903 -0.0427 -1.2174  2.5277
 8085TIP3   OH248449   6.986   5.628   2.220 -0.6233  0.2243  0.4403
 8085TIP3    H148450   6.994   5.641   2.125 -2.0153 -0.3516  0.2249
 8085TIP3    H248451   6.985   5.533   2.231  1.7392  0.2400  1.2731
 8086TIP3   OH248452   5.915   1.649   2.392 -0.0691  0.0541  0.1033
 8086TIP3    H148453   5.905   1.554   2.396  0.7923 -0.0323  0.3453
 8086TIP3    H248454   5.834   1.680   2.352 -0.8870 -0.6802  1.1406
 8087TIP3   OH248455   5.483   1.705   4.928 -0.2106 -0.3401 -0.0008
 8087TIP3    H148456   5.572   1.723   4.959  0.1941 -1.4203 -0.4803
 8087TIP3    H248457   5.433   1.784   4.950  0.7340  0.0596  0.7637
 8088TIP3   OH248458   1.512   0.863   3.588 -0.3810 -0.1359  0.0405
 8088TIP3    H148459   1.558   0.781   3.569 -1.9588 -0.9897 -0.2776
 8088TIP3    H248460   1.554   0.928   3.532 -0.6562 -1.2354 -1.4963
 8089TIP3   OH248461   7.441   2.215   2.452 -0.2483 -0.4164  0.0636
 8089TIP3    H148462   7.455   2.122   2.434 -2.5290 -0.8628  0.3918
 8089TIP3    H248463   7.487   2.260   2.381  0.2906 -1.8026 -0.5074
 8090TIP3   OH248464   6.279   5.897   3.373  0.0806 -0.0985 -0.1400
 8090TIP3    H148465   6.318   5.918   3.458 -0.3528 -1.6150  0.4670
 8090TIP3    H248466   6.321   5.815   3.346 -2.9533 -2.1588  0.8269
 8091TIP3   OH248467   5.768   7.672   3.711  0.0507  0.2452 -0.2292
 8091TIP3    H148468   5.710   7.740   3.746  1.1455  0.8092  0.5803
 8091TIP3    H248469   5.852   7.717   3.699  0.6933 -0.8789 -0.0475
 8092TIP3   OH248470   0.872   3.577   3.302  0.0468 -0.4337 -0.2473
 8092TIP3    H148471   0.897   3.620   3.383  0.0960 -1.5904  0.3685
 8092TIP3    H248472   0.878   3.645   3.235 -1.9049  1.0447  0.9981
 8093TIP3   OH248473   2.290   2.267   3.898  0.1389  0.6096  0.8906
 8093TIP3    H148474   2.302   2.358   3.871  1.2733  0.9881  2.5604
 8093TIP3    H248475   2.304   2.217   3.818  1.9138  1.7587  0.4299
 8094TIP3   OH248476   1.294   3.342   2.838 -0.2853  0.0416 -0.1661
 8094TIP3    H148477   1.373   3.354   2.785 -0.0161 -0.7094  0.0443
 8094TIP3    H248478   1.323   3.355   2.928 -0.2270 -0.9247 -0.0275
 8095TIP3   OH248479   7.327   7.303   3.190 -0.0095 -0.0847  0.2142
 8095TIP3    H148480   7.248   7.269   3.148  0.6748  0.5324 -1.6751
 8095TIP3    H248481   7.330   7.395   3.166  1.7953 -0.3109 -0.6573
 8096TIP3   OH248482   3.745   0.699   3.925  0.4615 -0.3549  0.0214
 8096TIP3    H148483   3.691   0.678   3.848 -1.5019 -0.9409  1.4672
 8096TIP3    H248484   3.682   0.732   3.989  1.9700 -0.3448  1.5578
 8097TIP3   OH248485   4.503   3.936   2.924  0.3162  0.0519  0.4467
 8097TIP3    H148486   4.419   3.978   2.905  0.8591  0.3830 -1.5396
 8097TIP3    H248487   4.489   3.887   3.004 -1.4147  1.0815  0.8064
 8098TIP3   OH248488   4.360   6.073   2.714  0.2615  0.2115 -0.0487
 8098TIP3    H148489   4.306   6.120   2.652  0.7475  0.3004 -0.4127
 8098TIP3    H248490   4.308   5.996   2.738  0.8150 -0.8579 -2.0325
 8099TIP3   OH248491   5.753   2.690   2.285  0.2454  0.4129 -0.1917
 8099TIP3    H148492   5.842   2.691   2.253  0.4916  1.6660  0.4494
 8099TIP3    H248493   5.712   2.614   2.244  2.3168 -1.7544  1.4778
 8100TIP3   OH248494   2.940   4.342   3.122  0.1098  0.0917  0.2574
 8100TIP3    H148495   2.849   4.316   3.137 -0.5125  2.2560  0.5847
 8100TIP3    H248496   2.989   4.260   3.122 -2.1696 -1.4780 -2.9272
 8101TIP3   OH248497   2.595   3.842   2.562 -0.2109  0.3745  0.2903
 8101TIP3    H148498   2.640   3.927   2.567 -0.8831  0.7234  0.5453
 8101TIP3    H248499   2.543   3.838   2.641 -1.2487  0.3400 -0.3771
 8102TIP3   OH248500   0.263   5.506   2.555 -0.3199 -0.4531 -0.3012
 8102TIP3    H148501   0.214   5.560   2.494 -1.4435 -0.1121  0.8820
 8102TIP3    H248502   0.240   5.416   2.531 -0.6957 -0.3261 -0.4112
 8103TIP3   OH248503   2.181   0.835   3.909  0.3425  0.0954 -0.1369
 8103TIP3    H148504   2.234   0.757   3.925 -1.4910 -0.9081  1.4813
 8103TIP3    H248505   2.147   0.823   3.820  1.1104 -0.2731 -0.3895
 8104TIP3   OH248506   1.685   2.345   3.894 -0.5458 -0.3620 -0.0165
 8104TIP3    H148507   1.772   2.342   3.854 -0.2670  0.4639  0.5109
 8104TIP3    H248508   1.663   2.438   3.898 -0.2769 -0.3261  2.3205
 8105TIP3   OH248509   2.647   2.044   2.590  1.0411 -0.0748  0.3527
 8105TIP3    H148510   2.695   1.999   2.660  1.4428 -0.2401 -0.0267
 8105TIP3    H248511   2.671   1.996   2.511 -0.3154 -0.6156  0.2522
 8106TIP3   OH248512   4.117   0.822   4.551 -0.4053  0.0849 -0.0330
 8106TIP3    H148513   4.131   0.731   4.528  1.6890  0.0385  1.1310
 8106TIP3    H248514   4.101   0.821   4.645 -1.8369  0.8245 -0.2424
 8107TIP3   OH248515   3.500   5.995   3.010 -0.3351  0.0822 -0.3137
 8107TIP3    H148516   3.523   6.069   2.953 -0.8837 -0.0831 -0.7616
 8107TIP3    H248517   3.450   6.034   3.082  2.5914  0.6850  1.5455
 8108TIP3   OH248518   5.857   7.168   4.347  1.3226 -0.4479  0.7983
 8108TIP3    H148519   5.773   7.123   4.340  0.8024  0.5613  0.2182
 8108TIP3    H248520   5.922   7.102   4.326  0.4994 -0.6084 -1.6133
 8109TIP3   OH248521   6.551   6.466   3.650 -1.1225 -0.4657  0.1846
 8109TIP3    H148522   6.587   6.528   3.587 -1.5790 -0.6597 -0.2781
 8109TIP3    H248523   6.539   6.516   3.730  0.3863 -0.4501  0.4278
 8110TIP3   OH248524   3.891   4.239   2.173  0.2093  0.2444  0.1185
 8110TIP3    H148525   3.930   4.263   2.089 -0.2018  1.4429  0.2479
 8110TIP3    H248526   3.944   4.285   2.238  0.3305 -0.4255  0.4940
 8111TIP3   OH248527   5.437   3.418   3.089  0.3721  0.7874 -0.1696
 8111TIP3    H148528   5.437   3.513   3.076 -1.3676  0.8785  0.3226
 8111TIP3    H248529   5.527   3.392   3.068  1.0698  2.6141  0.3054
 8112TIP3   OH248530   6.741   5.036   3.349 -0.3456  0.7010  0.4236
 8112TIP3    H148531   6.823   5.028   3.300 -0.3569  1.8529  0.1935
 8112TIP3    H248532   6.673   5.042   3.282 -0.6295 -0.2791  0.6149
 8113TIP3   OH248533   1.799   5.625   2.265  0.1478 -0.4017 -0.1883
 8113TIP3    H148534   1.861   5.601   2.333  0.6736  0.2025 -0.4437
 8113TIP3    H248535   1.843   5.694   2.215 -1.4151  1.3648  0.7081
 8114TIP3   OH248536   5.658   3.980   4.159  0.2094 -0.4929  0.0113
 8114TIP3    H148537   5.669   3.891   4.192  0.7375  0.3793  2.3790
 8114TIP3    H248538   5.566   3.985   4.133 -0.0294 -1.4928  0.6095
 8115TIP3   OH248539   4.171   6.238   3.895 -0.4562 -0.1101 -0.1274
 8115TIP3    H148540   4.228   6.315   3.889  0.0992 -0.6176 -2.4161
 8115TIP3    H248541   4.082   6.274   3.896 -0.1684  0.6065  0.4499
 8116TIP3   OH248542   5.018   7.447   2.003  0.0484  0.1301 -0.1708
 8116TIP3    H148543   4.964   7.453   2.082 -2.3305  2.7330 -1.8060
 8116TIP3    H248544   5.059   7.533   1.996  1.1149 -0.4363 -1.2058
 8117TIP3   OH248545   1.608   7.636   2.964 -0.0676  0.4684  0.1647
 8117TIP3    H148546   1.527   7.686   2.974 -1.4238 -1.1271 -1.9056
 8117TIP3    H248547   1.650   7.673   2.887  0.4988  0.4326  0.4528
 8118TIP3   OH248548   6.631   3.856   4.407  0.2664  0.1436 -0.1646
 8118TIP3    H148549   6.640   3.947   4.433  0.0019 -0.2591  1.4601
 8118TIP3    H248550   6.675   3.807   4.477  0.9889 -0.9545 -1.3441
 8119TIP3   OH248551   2.469   5.066   2.448 -0.2849 -0.3645 -0.3232
 8119TIP3    H148552   2.495   5.027   2.532  2.3936  0.8283 -0.4955
 8119TIP3    H248553   2.550   5.101   2.412 -1.8982  2.0471 -1.9035
 8120TIP3   OH248554   5.190   6.528   2.464  0.5722  0.5707 -0.3586
 8120TIP3    H148555   5.099   6.499   2.471  0.9836 -0.5239  1.0120
 8120TIP3    H248556   5.197   6.601   2.526  0.9375 -0.2983  0.6752
 8121TIP3   OH248557   4.768   6.450   3.294 -0.5399 -0.4001 -0.7978
 8121TIP3    H148558   4.683   6.453   3.337 -0.9841  0.2580 -1.7124
 8121TIP3    H248559   4.757   6.498   3.213  0.9882  0.6324 -0.4433
 8122TIP3   OH248560   0.740   1.950   9.749  0.1157 -0.0465  0.2431
 8122TIP3    H148561   0.716   2.033   9.707 -0.2543  0.5146  1.5371
 8122TIP3    H248562   0.656   1.911   9.774  0.2347 -1.2106 -1.0318
 8123TIP3   OH248563   6.892   3.349   4.559  0.0458 -0.0066  0.4551
 8123TIP3    H148564   6.864   3.313   4.643  0.9911 -0.2787  0.6716
 8123TIP3    H248565   6.929   3.435   4.581  0.3742 -0.1136  0.3395
 8124TIP3   OH248566   6.704   0.099   2.203 -0.2077 -0.2745  0.2974
 8124TIP3    H148567   6.778   0.159   2.194 -0.6093  0.3093  0.7504
 8124TIP3    H248568   6.717   0.034   2.134 -0.7394  1.3733 -1.4513
 8125TIP3   OH248569   6.189   4.604   2.906 -0.5559  0.2181  0.5161
 8125TIP3    H148570   6.266   4.628   2.855 -0.7828 -0.4400 -0.1536
 8125TIP3    H248571   6.121   4.666   2.878 -0.5372  0.1808  0.3867
 8126TIP3   OH248572   7.337   0.690   4.822 -0.1972 -0.3413 -0.3635
 8126TIP3    H148573   7.277   0.647   4.883  0.3097 -1.5202 -0.6541
 8126TIP3    H248574   7.280   0.726   4.753 -0.5751 -1.8555 -0.8885
 8127TIP3   OH248575   3.305   2.641   4.910 -0.2536  0.0254 -0.8015
 8127TIP3    H148576   3.214   2.669   4.904 -0.0492  0.6914 -0.8960
 8127TIP3    H248577   3.305   2.551   4.877 -0.9686 -0.1885 -0.2349
 8128TIP3   OH248578   2.034   6.142   3.168 -0.6926 -0.4269 -0.0915
 8128TIP3    H148579   1.977   6.215   3.145  1.1970  0.8537 -0.9543
 8128TIP3    H248580   2.058   6.158   3.260  0.0435  0.3024 -0.3991
 8129TIP3   OH248581   6.758   1.132  10.946 -0.3176  0.2989 -0.1084
 8129TIP3    H148582   6.747   1.174  11.032 -0.2321 -0.8033  0.4687
 8129TIP3    H248583   6.738   1.039  10.963 -0.5229  0.1116 -1.3379
 8130TIP3   OH248584   4.419   2.273   4.857  0.3893  0.2389 -0.6025
 8130TIP3    H148585   4.401   2.366   4.854  1.0757  0.4228  0.3743
 8130TIP3    H248586   4.449   2.251   4.768 -1.9881  0.4324 -1.5086
 8131TIP3   OH248587   4.453   5.954   3.351 -0.1979  0.1277  0.4440
 8131TIP3    H148588   4.365   5.967   3.386 -0.7085  2.0642 -1.3650
 8131TIP3    H248589   4.454   5.864   3.321 -0.6620 -0.7280  2.7619
 8132TIP3   OH248590   5.723   3.697   4.166  0.3308 -0.0123 -0.8120
 8132TIP3    H148591   5.806   3.718   4.208 -0.2840  0.3574  0.2548
 8132TIP3    H248592   5.685   3.627   4.220 -0.2196  0.0722 -1.0804
 8133TIP3   OH248593   7.455   6.203   3.034  0.0312 -0.0236 -0.8760
 8133TIP3    H148594   7.370   6.246   3.036 -0.3177 -0.7238 -0.1874
 8133TIP3    H248595   7.478   6.189   3.126  1.2758  0.8896 -1.0203
 8134TIP3   OH248596   1.461   6.100   9.609 -0.1396 -0.1092 -0.4115
 8134TIP3    H148597   1.474   6.188   9.646 -1.7792  0.4536 -1.0636
 8134TIP3    H248598   1.460   6.042   9.685  2.0246  0.2442 -0.0346
 8135TIP3   OH248599   5.488   5.806   4.036  0.4107  0.0479  0.0213
 8135TIP3    H148600   5.496   5.874   4.103  0.3270  0.3705 -0.2932
 8135TIP3    H248601   5.570   5.758   4.040  0.7651  0.6208 -0.2383
 8136TIP3   OH248602   7.532   5.160   3.968  0.4139 -0.0145 -0.7488
 8136TIP3    H148603   7.483   5.079   3.954 -0.4078  0.1229  1.1205
 8136TIP3    H248604   7.548   5.163   4.062  1.6971  1.2939 -0.9752
 8137TIP3   OH248605   1.196   3.918   1.863 -0.2099 -0.0855  0.2282
 8137TIP3    H148606   1.134   3.934   1.792  0.0069 -0.8049 -0.1369
 8137TIP3    H248607   1.150   3.860   1.923  0.5210 -1.6957 -0.6942
 8138TIP3   OH248608   3.392   7.465   4.064 -0.5452 -0.0526  0.0964
 8138TIP3    H148609   3.305   7.462   4.104 -0.7870 -2.5720 -0.4433
 8138TIP3    H248610   3.451   7.433   4.132 -0.3083 -0.1054 -0.1331
 8139TIP3   OH248611   6.544   2.372   4.746  0.4653 -0.3089  0.2637
 8139TIP3    H148612   6.569   2.427   4.671  1.1055 -1.2589 -0.2342
 8139TIP3    H248613   6.494   2.300   4.708 -0.2054 -0.1960  0.8949
 8140TIP3   OH248614   0.039   1.716   3.444 -0.4135 -0.1185  0.0396
 8140TIP3    H148615   0.047   1.666   3.525  2.4775  0.9938  0.5322
 8140TIP3    H248616   0.088   1.666   3.379 -2.3860 -0.8020 -1.0387
 8141TIP3   OH248617   6.299   0.103   2.842  0.0589 -0.6834  0.0089
 8141TIP3    H148618   6.253   0.061   2.914 -0.5811 -0.1651 -0.0917
 8141TIP3    H248619   6.380   0.052   2.833  0.8433  0.1076  2.0279
 8142TIP3   OH248620   6.319   2.717   3.760  0.1190 -0.3319 -0.1306
 8142TIP3    H148621   6.274   2.648   3.710 -1.2765  0.6045 -0.2111
 8142TIP3    H248622   6.305   2.693   3.852  0.8339 -0.8948 -0.1631
 8143TIP3   OH248623   3.415   2.947   4.006 -0.0807  0.2275 -0.2884
 8143TIP3    H148624   3.473   3.014   3.969  0.3306  0.2062  0.3141
 8143TIP3    H248625   3.422   2.873   3.945  0.5354  0.2180 -0.2123
 8144TIP3   OH248626   1.173   6.703   3.636 -0.4010 -0.0826 -0.1852
 8144TIP3    H148627   1.112   6.678   3.705 -1.4197  1.0456 -0.6217
 8144TIP3    H248628   1.125   6.769   3.585  1.5972  1.7523  0.1499
 8145TIP3   OH248629   0.241   0.339   3.398  0.1785 -0.2863 -0.2747
 8145TIP3    H148630   0.174   0.308   3.337 -0.2246  1.2381 -0.6512
 8145TIP3    H248631   0.319   0.352   3.345 -0.6095  2.6241 -0.9351
 8146TIP3   OH248632   3.215   7.002   3.261  0.0809 -0.0874  0.3121
 8146TIP3    H148633   3.253   6.937   3.202  1.7917  0.4162  0.8141
 8146TIP3    H248634   3.220   7.085   3.213 -0.1131  0.0383  0.5045
 8147TIP3   OH248635   2.382   5.358   2.309  0.1182 -0.0295  0.1056
 8147TIP3    H148636   2.309   5.298   2.326  0.6125 -0.5760  0.3333
 8147TIP3    H248637   2.343   5.429   2.258 -0.7735  0.1643  1.0172
 8148TIP3   OH248638   5.058   1.849   2.348  0.1166  0.2002  0.3962
 8148TIP3    H148639   5.101   1.801   2.419  0.3156  1.1098  0.9177
 8148TIP3    H248640   5.073   1.797   2.270  1.3309  0.0041  0.7411
 8149TIP3   OH248641   4.264   5.162   4.634 -0.1009  0.1515  0.3404
 8149TIP3    H148642   4.215   5.122   4.705 -0.2695 -0.3725 -0.0699
 8149TIP3    H248643   4.289   5.248   4.668 -0.2242 -0.0727  1.0113
 8150TIP3   OH248644   4.944   3.258   3.610  0.0721  0.2825 -0.1671
 8150TIP3    H148645   4.945   3.344   3.568  0.8998  0.4429  0.1794
 8150TIP3    H248646   4.851   3.239   3.624 -0.0910  1.4201  0.3649
 8151TIP3   OH248647   0.928   3.596   2.602 -0.1948 -0.4061 -0.0310
 8151TIP3    H148648   0.834   3.605   2.617  0.0128  0.1191  1.0372
 8151TIP3    H248649   0.957   3.683   2.574 -0.0049 -0.5220 -0.1969
 8152TIP3   OH248650   6.155   4.519   2.334  0.4413  0.4763 -0.1801
 8152TIP3    H148651   6.122   4.609   2.327 -0.2983  0.2944  0.7443
 8152TIP3    H248652   6.208   4.507   2.255 -0.6992  1.2052 -1.0942
 8153TIP3   OH248653   4.513   5.991   4.307 -0.4113  0.1774 -0.6628
 8153TIP3    H148654   4.596   5.949   4.285  0.4545  0.9366  0.9654
 8153TIP3    H248655   4.501   6.057   4.239  0.1139 -0.1938 -1.1274
 8154TIP3   OH248656   0.488   5.508   4.147  0.3618  0.5987  0.1223
 8154TIP3    H148657   0.464   5.480   4.235 -1.6064 -0.6000 -0.7384
 8154TIP3    H248658   0.488   5.604   4.151 -0.7144  0.5692  1.1671
 8155TIP3   OH248659   0.756   1.219   2.795 -0.3698  0.0339  0.6203
 8155TIP3    H148660   0.679   1.265   2.762 -0.8983 -0.8904  0.5342
 8155TIP3    H248661   0.823   1.287   2.803 -0.3083  0.3977 -1.9903
 8156TIP3   OH248662   1.297   4.167   1.954  0.3915 -0.6058 -0.3473
 8156TIP3    H148663   1.239   4.232   1.915  0.7548 -0.0286  0.0660
 8156TIP3    H248664   1.271   4.084   1.913 -0.2068 -0.2360 -0.7271
 8157TIP3   OH248665   1.122   2.703   2.222 -0.1212 -0.0349  0.3480
 8157TIP3    H148666   1.104   2.769   2.289  0.1950 -0.7146  1.1279
 8157TIP3    H248667   1.054   2.636   2.236 -1.0938  0.5990 -1.1198
 8158TIP3   OH248668   4.609   4.330   2.156 -0.0463  0.2312 -0.0221
 8158TIP3    H148669   4.514   4.337   2.148 -0.3631 -1.1161  1.8796
 8158TIP3    H248670   4.634   4.271   2.084 -0.6858  0.2871 -0.3042
 8159TIP3   OH248671   6.482   3.833   2.529 -0.3928  0.3957  0.3452
 8159TIP3    H148672   6.396   3.795   2.546 -0.6347  1.8308  2.8489
 8159TIP3    H248673   6.464   3.917   2.488  0.0392 -0.7958 -2.5041
 8160TIP3   OH248674   0.033   1.066   4.410 -0.7436  1.2272 -0.7114
 8160TIP3    H148675   0.012   1.017   4.489  0.8940 -2.1101 -2.1940
 8160TIP3    H248676   0.117   1.108   4.429 -0.0948  0.0088 -0.7963
 8161TIP3   OH248677   0.605   3.276   4.030 -0.3510  0.2979  0.0623
 8161TIP3    H148678   0.687   3.312   4.064 -0.4382 -0.1880  0.8025
 8161TIP3    H248679   0.550   3.263   4.107 -0.4711 -1.0240 -0.2091
 8162TIP3   OH248680   7.138   1.268   3.112  0.4663 -0.1664  0.2606
 8162TIP3    H148681   7.070   1.266   3.180 -1.6143  0.3064 -1.6860
 8162TIP3    H248682   7.129   1.185   3.066  0.0757  0.5772 -1.0429
 8163TIP3   OH248683   0.282   4.923   2.893  0.1524  0.0304  0.4294
 8163TIP3    H148684   0.343   4.978   2.941 -1.3436  1.4116  0.8207
 8163TIP3    H248685   0.195   4.954   2.918 -0.7285 -1.3908 -0.6540
 8164TIP3   OH248686   3.912   6.768   3.033  0.3293 -0.0423 -0.0009
 8164TIP3    H148687   3.835   6.730   2.990  0.4103 -0.7745  0.4722
 8164TIP3    H248688   3.984   6.709   3.009  0.4814 -0.1366  0.6522
 8165TIP3   OH248689   3.289   6.240   4.356 -0.7804 -0.1053  0.1027
 8165TIP3    H148690   3.259   6.161   4.401 -1.2757  0.0269  0.0117
 8165TIP3    H248691   3.382   6.225   4.340 -0.9613 -0.8570 -0.2988
 8166TIP3   OH248692   5.678   0.266   3.524 -0.5495  0.0494  0.8029
 8166TIP3    H148693   5.635   0.223   3.599  0.0052 -0.6406  0.7338
 8166TIP3    H248694   5.720   0.343   3.562 -1.2980  0.3834  0.9824
 8167TIP3   OH248695   3.517   3.815   2.308 -0.1128 -0.1539  0.2174
 8167TIP3    H148696   3.495   3.725   2.332 -0.6457 -0.7296 -2.1671
 8167TIP3    H248697   3.453   3.837   2.240  1.0737  1.4163 -0.4345
 8168TIP3   OH248698   7.116   6.839   4.892  0.1393  0.2021  0.7676
 8168TIP3    H148699   7.119   6.746   4.912 -0.3220  0.2271  0.9546
 8168TIP3    H248700   7.036   6.850   4.841  0.3395  0.4486  0.5051
 8169TIP3   OH248701   0.703   6.822   3.854 -0.3858 -0.2499 -0.4140
 8169TIP3    H148702   0.708   6.897   3.794  0.1626  0.2805  0.2861
 8169TIP3    H248703   0.793   6.794   3.866 -0.5011 -0.4372  0.0552
 8170TIP3   OH248704   1.727   6.869   4.048 -0.4866 -0.2083 -0.1759
 8170TIP3    H148705   1.794   6.830   3.992 -1.0165 -3.1086  1.0121
 8170TIP3    H248706   1.645   6.857   3.999 -0.9406 -2.6861  1.0261
 8171TIP3   OH248707   6.856   4.910   2.811  0.0094  0.1308  0.1374
 8171TIP3    H148708   6.925   4.850   2.783  0.6515  1.0532 -0.3026
 8171TIP3    H248709   6.789   4.904   2.743 -0.8871 -1.5903  1.1143
 8172TIP3   OH248710   2.972   0.089   2.256  0.2971 -0.1728  0.0934
 8172TIP3    H148711   2.953   0.181   2.237  0.2396 -0.0255  0.8711
 8172TIP3    H248712   2.971   0.047   2.169  0.1350  0.5172 -0.2489
 8173TIP3   OH248713   5.555   3.159   3.924 -0.2959 -0.6956 -0.4569
 8173TIP3    H148714   5.555   3.076   3.877  0.7279 -0.5165 -0.8036
 8173TIP3    H248715   5.565   3.225   3.856 -1.3172 -0.2564 -0.2079
 8174TIP3   OH248716   2.868   5.414   2.504  0.3109  0.0837 -0.5681
 8174TIP3    H148717   2.941   5.363   2.468  2.0481  0.3040  2.3492
 8174TIP3    H248718   2.790   5.375   2.464  1.8495 -1.7056 -2.0437
 8175TIP3   OH248719   7.430   5.985   4.319 -0.2384 -0.0072  0.1925
 8175TIP3    H148720   7.426   5.908   4.376  2.9500  0.0524  0.6626
 8175TIP3    H248721   7.483   5.957   4.244 -0.9121  1.1098 -0.7332
 8176TIP3   OH248722   7.253   6.376   2.990  0.1345  0.2164  0.2376
 8176TIP3    H148723   7.165   6.411   3.004  0.0335  0.3864 -0.7549
 8176TIP3    H248724   7.251   6.342   2.901  1.1706  0.5015  0.0941
 8177TIP3   OH248725   3.971   5.764   2.949  0.0071 -0.2695 -0.2148
 8177TIP3    H148726   3.883   5.729   2.940  0.0182 -0.1356 -0.8857
 8177TIP3    H248727   3.963   5.833   3.015 -0.2783 -0.6224  0.1209
 8178TIP3   OH248728   1.535   5.414   3.456  0.3493 -0.0760  0.0383
 8178TIP3    H148729   1.591   5.481   3.418  0.6665 -0.2936  0.1157
 8178TIP3    H248730   1.494   5.458   3.531 -0.8805  0.5898 -0.9828
 8179TIP3   OH248731   4.251   0.383   3.712  0.7494 -0.1456  0.3622
 8179TIP3    H148732   4.330   0.436   3.701  0.1984  0.2959 -1.6447
 8179TIP3    H248733   4.284   0.293   3.716  1.3308 -0.0356 -1.3072
 8180TIP3   OH248734   2.312   0.101   2.545 -0.2062 -0.4630 -0.2830
 8180TIP3    H148735   2.391   0.065   2.503 -1.7114 -2.4980 -1.5374
 8180TIP3    H248736   2.296   0.183   2.498  0.3500 -0.7671 -1.0244
 8181TIP3   OH248737   0.104   6.997   2.683 -0.3972  0.3756 -0.0534
 8181TIP3    H148738   0.117   7.076   2.736 -0.3700  0.3722 -0.0550
 8181TIP3    H248739   0.146   6.927   2.733 -2.0123  0.0079  0.8889
 8182TIP3   OH248740   1.241   5.289   4.857 -0.2058  0.4539 -0.2232
 8182TIP3    H148741   1.332   5.294   4.828  0.0949 -0.4319  0.5136
 8182TIP3    H248742   1.199   5.367   4.821  0.4866  0.1261 -1.8121
 8183TIP3   OH248743   5.850   4.504   3.902  0.0387 -0.3836  0.2812
 8183TIP3    H148744   5.776   4.561   3.880  0.8254  0.3820 -0.4553
 8183TIP3    H248745   5.814   4.416   3.895 -1.2474 -0.0061  1.6100
 8184TIP3   OH248746   7.214   6.988   3.579  0.1532 -0.2467  0.0772
 8184TIP3    H148747   7.211   7.077   3.543 -0.1817 -0.0434  0.5916
 8184TIP3    H248748   7.289   6.988   3.638 -0.1674 -0.1414  0.4889
 8185TIP3   OH248749   1.016   6.524   4.195 -0.1224 -0.6340  0.2096
 8185TIP3    H148750   0.940   6.581   4.177  0.4189  0.0790  0.1243
 8185TIP3    H248751   1.078   6.582   4.240  0.4955 -1.1318  0.0002
 8186TIP3   OH248752   0.730   6.204   3.658 -0.3536  0.2047 -0.1684
 8186TIP3    H148753   0.793   6.210   3.587 -0.3908 -0.3964 -0.2530
 8186TIP3    H248754   0.700   6.294   3.670  0.7263  0.5534  0.0705
 8187TIP3   OH248755   1.951   7.013   4.830  0.1004 -0.2308 -0.5155
 8187TIP3    H148756   1.947   6.941   4.892  0.8798  0.0758 -0.0972
 8187TIP3    H248757   1.897   6.985   4.756 -0.0077 -1.0223 -0.1364
 8188TIP3   OH248758   3.543   0.220   4.214  0.5101  0.1107  0.4270
 8188TIP3    H148759   3.636   0.209   4.232  0.9519  0.3381 -1.5583
 8188TIP3    H248760   3.535   0.310   4.183 -0.1395 -0.3300 -0.7132
 8189TIP3   OH248761   7.369   5.542   3.256 -0.4467  0.7050 -0.5470
 8189TIP3    H148762   7.374   5.451   3.227 -0.4345  0.7213 -0.5961
 8189TIP3    H248763   7.339   5.590   3.179  0.1893  0.8416 -0.7188
 8190TIP3   OH248764   3.619   2.285   3.647  0.2352 -0.4649 -1.0167
 8190TIP3    H148765   3.635   2.290   3.553 -0.8440 -1.7041 -1.2983
 8190TIP3    H248766   3.524   2.300   3.655 -0.0736 -2.4578 -0.3692
 8191TIP3   OH248767   5.953   4.065   3.929 -0.5057 -0.8403  0.0318
 8191TIP3    H148768   5.865   4.102   3.923  0.0919  0.7257  0.5217
 8191TIP3    H248769   5.968   4.051   4.022  0.1249 -0.1628  0.0423
 8192TIP3   OH248770   4.636   4.445   3.731  0.2398  0.1822 -0.1689
 8192TIP3    H148771   4.652   4.458   3.824  2.9154 -1.8532 -0.1983
 8192TIP3    H248772   4.645   4.350   3.719 -0.9058  0.2991 -2.3646
 8193TIP3   OH248773   6.430   1.421   3.085  0.0813 -0.0496  0.4074
 8193TIP3    H148774   6.501   1.438   3.146  0.3110 -0.6808  0.3256
 8193TIP3    H248775   6.462   1.349   3.031 -1.1582 -1.3355  1.3074
 8194TIP3   OH248776   1.561   5.676   2.387 -0.3939  0.4896  0.0020
 8194TIP3    H148777   1.540   5.587   2.414  1.1459  0.1223  0.0609
 8194TIP3    H248778   1.638   5.667   2.331 -0.1188  1.7922  0.1358
 8195TIP3   OH248779   2.556   1.099   2.795 -0.7098  0.1835 -0.0368
 8195TIP3    H148780   2.604   1.017   2.782 -0.9434  0.2877 -1.9132
 8195TIP3    H248781   2.597   1.140   2.871  2.2514  0.2895 -1.5464
 8196TIP3   OH248782   4.566   2.678   4.124  0.1073  0.5624 -0.1739
 8196TIP3    H148783   4.644   2.725   4.155 -0.5358  1.4183  0.1774
 8196TIP3    H248784   4.516   2.659   4.203  1.3360 -2.6521 -0.0070
 8197TIP3   OH248785   4.595   6.187   3.304 -0.0031 -0.0730  0.0018
 8197TIP3    H148786   4.588   6.238   3.385 -0.2279 -2.5785  1.6758
 8197TIP3    H248787   4.518   6.130   3.305  0.2540 -0.5116 -1.7324
 8198TIP3   OH248788   4.673   1.534   3.151  0.8357 -0.6073 -0.4240
 8198TIP3    H148789   4.719   1.470   3.205  0.8144 -1.9269 -1.9119
 8198TIP3    H248790   4.682   1.501   3.061 -0.2996  0.7935 -1.0886
 8199TIP3   OH248791   0.873   2.593   4.101  0.2398 -0.6269  0.1865
 8199TIP3    H148792   0.912   2.553   4.179  0.2525 -1.2113 -0.1157
 8199TIP3    H248793   0.822   2.523   4.061 -0.1922 -0.1818 -0.0460
 8200TIP3   OH248794   0.338   7.318   4.671  0.2461 -0.3796  0.0452
 8200TIP3    H148795   0.408   7.254   4.658  0.2815 -0.2006 -0.6895
 8200TIP3    H248796   0.295   7.291   4.752  0.2960 -1.3008 -0.2251
 8201TIP3   OH248797   6.920   7.364   3.429 -1.0631 -0.1517  0.0893
 8201TIP3    H148798   6.995   7.365   3.369 -1.6080 -0.5066 -0.6020
 8201TIP3    H248799   6.934   7.439   3.486  0.1896 -0.5991  0.4194
 8202TIP3   OH248800   3.036   4.764   4.084  0.2827  0.2263  0.3880
 8202TIP3    H148801   3.114   4.708   4.079  0.7397  0.9270 -1.0728
 8202TIP3    H248802   2.988   4.744   4.004 -0.5274  0.5270  0.7942
 8203TIP3   OH248803   1.867   4.229   2.277 -0.6574 -0.2701  0.1664
 8203TIP3    H148804   1.861   4.142   2.317  2.4411 -0.6019  0.1433
 8203TIP3    H248805   1.891   4.213   2.186 -2.6994  0.6167 -0.5954
 8204TIP3   OH248806   2.189   3.249   2.979 -0.0645  0.1128 -0.4234
 8204TIP3    H148807   2.121   3.252   3.046  2.0150  0.4454  1.8082
 8204TIP3    H248808   2.220   3.340   2.973  0.9755 -0.2440 -0.5462
 8205TIP3   OH248809   5.772   5.618   4.391 -0.2387 -0.0915 -0.1475
 8205TIP3    H148810   5.744   5.529   4.367 -1.1435  0.1301  0.0414
 8205TIP3    H248811   5.725   5.675   4.330  0.7902  0.2411 -0.6540
 8206TIP3   OH248812   7.526   6.745   4.940  0.0548  0.2581  0.1502
 8206TIP3    H148813   7.512   6.654   4.913  1.8334 -0.5887  1.8665
 8206TIP3    H248814   7.459   6.761   5.007  1.1914 -0.6241  1.5506
 8207TIP3   OH248815   3.448   4.766   2.762  0.3302  0.2949 -0.5015
 8207TIP3    H148816   3.541   4.766   2.784  0.3558 -2.5669 -0.1281
 8207TIP3    H248817   3.405   4.807   2.837  1.1301 -1.0475  0.7466
 8208TIP3   OH248818   2.832   1.991   4.405  0.3262  0.0093 -0.0783
 8208TIP3    H148819   2.772   2.060   4.431  2.1474  1.6136  0.1146
 8208TIP3    H248820   2.874   2.024   4.325 -1.3334 -2.5156 -2.1680
 8209TIP3   OH248821   4.664   0.109   2.305  0.7140 -0.1182 -0.1260
 8209TIP3    H148822   4.605   0.078   2.374 -0.5388 -0.3752 -1.2702
 8209TIP3    H248823   4.743   0.137   2.352  0.4053 -1.4799  1.2825
 8210TIP3   OH248824   3.834   0.692   2.567 -0.1222  0.1268 -0.1124
 8210TIP3    H148825   3.765   0.756   2.580  0.6590  0.9136  0.2386
 8210TIP3    H248826   3.915   0.740   2.584  0.4907 -0.8839 -0.1045
 8211TIP3   OH248827   3.901   5.450   2.755  0.4292 -0.2664  0.1169
 8211TIP3    H148828   3.932   5.444   2.664 -0.1766 -0.0780 -0.1039
 8211TIP3    H248829   3.817   5.405   2.755  0.4319 -0.2767  0.5906
 8212TIP3   OH248830   0.062   0.746   3.818 -0.3303 -0.0640  0.8850
 8212TIP3    H148831   0.001   0.819   3.811  0.4678  0.6833  1.5011
 8212TIP3    H248832   0.008   0.668   3.804 -1.3917  0.5802  1.2622
 8213TIP3   OH248833   4.823   1.945   2.541 -0.0825 -0.3915 -0.0573
 8213TIP3    H148834   4.905   1.918   2.500 -0.1195  0.2820 -0.5958
 8213TIP3    H248835   4.756   1.927   2.475 -0.1688  0.4894 -0.2298
 8214TIP3   OH248836   4.325   0.050   4.241 -0.0069  0.3855  0.6609
 8214TIP3    H148837   4.242   0.012   4.212 -0.2757  1.4487 -0.0212
 8214TIP3    H248838   4.310   0.145   4.238  1.4031  0.6135 -0.0425
 8215TIP3   OH248839   1.683   1.464   2.394 -0.1333  1.0416  0.6650
 8215TIP3    H148840   1.630   1.439   2.469 -0.7571  0.5160  0.0592
 8215TIP3    H248841   1.750   1.395   2.388 -0.9711  0.2731 -0.1276
 8216TIP3   OH248842   5.280   0.255   3.531  0.0737  0.2104 -0.0196
 8216TIP3    H148843   5.265   0.217   3.617  2.6051  1.2287  0.9774
 8216TIP3    H248844   5.349   0.321   3.545 -1.5728  2.6276 -2.2732
 8217TIP3   OH248845   3.055   1.672   2.716 -0.5420  0.0694 -0.3947
 8217TIP3    H148846   3.126   1.623   2.675 -1.9983 -1.4344 -1.2799
 8217TIP3    H248847   2.977   1.618   2.701 -1.6302  0.8290  1.9724
 8218TIP3   OH248848   5.830   3.028   2.758  0.2111 -0.3457  0.1664
 8218TIP3    H148849   5.830   2.936   2.785 -0.9221 -1.0797 -2.1032
 8218TIP3    H248850   5.745   3.042   2.717 -0.0257  2.0203  1.2416
 8219TIP3   OH248851   0.143   3.289   4.116 -0.3451  0.0287  0.1993
 8219TIP3    H148852   0.176   3.297   4.205  0.8165 -0.3490 -0.1838
 8219TIP3    H248853   0.165   3.199   4.090 -0.1006  0.3317 -0.6820
 8220TIP3   OH248854   5.996   4.524   2.684 -0.1273 -0.1580 -0.4811
 8220TIP3    H148855   5.915   4.516   2.736 -1.0442  2.7194 -1.3008
 8220TIP3    H248856   6.065   4.495   2.744 -1.5799 -1.2729  0.7542
 8221TIP3   OH248857   1.353   2.787   2.119  0.4782 -0.0200 -0.1248
 8221TIP3    H148858   1.266   2.756   2.145  0.5350  0.3379  0.4949
 8221TIP3    H248859   1.335   2.866   2.068  0.2098 -1.8779 -3.2024
 8222TIP3   OH248860   0.232   7.070   3.871  0.7157  0.3283 -0.2403
 8222TIP3    H148861   0.317   7.073   3.915  1.5352  1.6196 -1.7968
 8222TIP3    H248862   0.197   6.984   3.892  2.5715 -0.3681  0.1634
 8223TIP3   OH248863   0.809   2.246   3.547 -0.1108  0.1155 -0.3814
 8223TIP3    H148864   0.849   2.201   3.622 -0.0663  0.1150 -0.4056
 8223TIP3    H248865   0.882   2.262   3.488  0.3621  2.4962  0.7346
 8224TIP3   OH248866   1.228   1.349   4.158  0.0413 -0.5952 -0.6225
 8224TIP3    H148867   1.281   1.271   4.174  1.9087  0.7540  0.2827
 8224TIP3    H248868   1.148   1.335   4.208  0.8325 -1.4617  0.4482
 8225TIP3   OH248869   6.087   2.856   3.411 -0.1196  0.2271  0.4626
 8225TIP3    H148870   6.182   2.852   3.400 -0.0427  0.0914  1.1596
 8225TIP3    H248871   6.074   2.903   3.493 -0.6622  0.3564  0.3058
 8226TIP3   OH248872   7.363   1.439   4.078  0.5913  0.2631  0.1259
 8226TIP3    H148873   7.435   1.469   4.022  0.5457  2.3027  1.0662
 8226TIP3    H248874   7.367   1.343   4.073  1.9096  0.3525 -1.6480
 8227TIP3   OH248875   1.651   4.340   3.489  0.1130 -0.6330  0.0462
 8227TIP3    H148876   1.649   4.431   3.518 -0.0038 -0.2491 -1.0903
 8227TIP3    H248877   1.627   4.345   3.396  0.2587 -1.8077 -0.0640
 8228TIP3   OH248878   3.586   7.054   2.549 -0.0423 -0.1650  0.0128
 8228TIP3    H148879   3.658   7.115   2.538  0.8907 -1.4744 -1.7713
 8228TIP3    H248880   3.540   7.084   2.628  1.3784  1.7481  0.1823
 8229TIP3   OH248881   2.645   2.006   3.026 -0.6046  0.4056  0.2790
 8229TIP3    H148882   2.634   2.096   2.996 -2.6410  0.1704  0.1158
 8229TIP3    H248883   2.578   1.995   3.094 -0.9530 -1.1973 -0.2712
 8230TIP3   OH248884   2.757   0.553   2.710 -0.0443  0.0028 -0.2935
 8230TIP3    H148885   2.830   0.501   2.744 -0.2499  0.4260  0.8417
 8230TIP3    H248886   2.681   0.526   2.761 -0.1500  1.4088  0.3423
 8231TIP3   OH248887   3.134   5.782   1.842 -0.2043  0.4663 -0.3816
 8231TIP3    H148888   3.081   5.716   1.888  0.3829 -0.6745 -1.2824
 8231TIP3    H248889   3.069   5.842   1.805 -0.6832  1.7435  2.2866
 8232TIP3   OH248890   4.370   3.466   3.458 -0.3505  0.0101 -0.6223
 8232TIP3    H148891   4.344   3.376   3.476  2.1356 -0.7705 -0.6216
 8232TIP3    H248892   4.383   3.469   3.363 -0.0331  0.2527 -0.5720
 8233TIP3   OH248893   2.043   5.974   3.854  0.2897 -0.3020  0.3997
 8233TIP3    H148894   2.033   6.040   3.922 -2.1940  1.7743 -1.7535
 8233TIP3    H248895   1.976   5.909   3.872 -0.0248 -0.0244  0.2377
 8234TIP3   OH248896   3.414   2.120   2.158 -0.2474 -0.0544  0.0891
 8234TIP3    H148897   3.449   2.179   2.224  0.0050  0.4395 -0.4742
 8234TIP3    H248898   3.349   2.172   2.110 -1.7465 -0.9336  1.0698
 8235TIP3   OH248899   5.720   5.344   3.735  0.1284  0.2404 -0.3319
 8235TIP3    H148900   5.630   5.318   3.755  0.3209  0.4438  0.8858
 8235TIP3    H248901   5.710   5.413   3.669 -0.7749  1.8230  1.3440
 8236TIP3   OH248902   6.129   3.968   2.372  0.0418  0.5058  0.0858
 8236TIP3    H148903   6.184   3.945   2.297 -1.3165  1.7523 -1.3531
 8236TIP3    H248904   6.101   3.883   2.407  0.5351 -0.1119 -0.9528
 8237TIP3   OH248905   1.516   5.783   3.082 -0.0127  0.7607  0.1458
 8237TIP3    H148906   1.597   5.747   3.047  0.9623  0.2663  2.6820
 8237TIP3    H248907   1.449   5.756   3.020  1.5658  0.0897 -1.3625
 8238TIP3   OH248908   4.688   1.766   4.555 -0.9752 -0.5585 -0.3506
 8238TIP3    H148909   4.652   1.843   4.600 -1.9788 -1.1918 -0.0487
 8238TIP3    H248910   4.782   1.785   4.547 -1.3836  1.2455 -1.3960
 8239TIP3   OH248911   4.380   3.218   2.069  0.5845 -0.3344 -0.3112
 8239TIP3    H148912   4.432   3.295   2.094  1.7977 -0.8763 -1.0728
 8239TIP3    H248913   4.290   3.250   2.065  0.7340  0.4884  1.6935
 8240TIP3   OH248914   4.151   5.026   3.342 -0.2707  0.1745 -0.1917
 8240TIP3    H148915   4.079   5.056   3.285  0.4895  1.9244 -0.2907
 8240TIP3    H248916   4.216   4.992   3.281 -0.2784  0.2401 -0.2376
 8241TIP3   OH248917   5.465   6.371   3.009  0.4752  0.1639 -0.7916
 8241TIP3    H148918   5.477   6.276   3.021  1.0433  0.1689 -1.2769
 8241TIP3    H248919   5.375   6.387   3.036  1.2180 -0.0274  2.2440
 8242TIP3   OH248920   1.095   3.807   3.120 -0.3715 -0.0750  0.2320
 8242TIP3    H148921   1.118   3.784   3.030 -0.2594  0.5796  0.0902
 8242TIP3    H248922   1.163   3.764   3.173 -1.4003 -1.9046  0.1567
 8243TIP3   OH248923   1.293   3.204   5.037 -0.2210 -0.0661  1.1802
 8243TIP3    H148924   1.265   3.263   5.107  0.7349  1.5351  0.2839
 8243TIP3    H248925   1.378   3.239   5.009 -0.1334 -1.2376 -0.1278
 8244TIP3   OH248926   5.356   7.081   3.152  0.3230  0.0675  0.0148
 8244TIP3    H148927   5.376   7.174   3.145  0.1963  0.0827 -0.1624
 8244TIP3    H248928   5.306   7.062   3.073  0.0369 -0.0714  0.2279
 8245TIP3   OH248929   6.845   3.837   3.327  0.1812  0.0102 -0.1147
 8245TIP3    H148930   6.794   3.854   3.247 -0.5549  1.1246  0.5697
 8245TIP3    H248931   6.915   3.901   3.324  0.6842 -0.5373 -0.2965
 8246TIP3   OH248932   0.728   0.172   3.673  0.6423 -0.4525 -0.3415
 8246TIP3    H148933   0.795   0.172   3.606  1.6236 -0.5413  0.6135
 8246TIP3    H248934   0.757   0.107   3.737  2.0529  2.5581  2.3658
 8247TIP3   OH248935   0.114   4.546   2.631 -0.0175  0.0746 -0.1996
 8247TIP3    H148936   0.125   4.579   2.720 -1.7555 -0.7648  0.3737
 8247TIP3    H248937   0.188   4.583   2.582  0.3246  1.4864  1.3068
 8248TIP3   OH248938   7.634   1.629   2.376 -0.7407  0.4769  0.4027
 8248TIP3    H148939   7.618   1.590   2.462 -1.6952 -0.7615 -0.2961
 8248TIP3    H248940   7.628   1.555   2.315  0.7961  1.1836 -0.6531
 8249TIP3   OH248941   3.779   2.939   2.461  0.7323  0.1360  0.2134
 8249TIP3    H148942   3.838   2.941   2.536  0.5058 -0.6315  0.4272
 8249TIP3    H248943   3.694   2.914   2.498  0.6802 -0.5377 -0.3266
 8250TIP3   OH248944   2.359   7.015   3.316  0.3097 -0.0386 -0.0988
 8250TIP3    H148945   2.340   6.975   3.400  1.6708 -2.4008 -0.8227
 8250TIP3    H248946   2.441   6.974   3.288  1.4644  2.8213 -1.2745
 8251TIP3   OH248947   4.613   1.171   2.738  0.7402  0.0367  0.0600
 8251TIP3    H148948   4.679   1.195   2.674  1.3657 -0.2729  0.5752
 8251TIP3    H248949   4.621   1.076   2.747  0.2806  0.0073  0.1865
 8252TIP3   OH248950   5.268   6.936   4.515  0.8598  0.4672  0.4722
 8252TIP3    H148951   5.332   6.866   4.504  1.1306  0.6459  0.9051
 8252TIP3    H248952   5.232   6.922   4.602  0.4204  0.4634  0.2930
 8253TIP3   OH248953   1.603   7.497   4.563  0.0796  0.1581  0.3142
 8253TIP3    H148954   1.527   7.491   4.620 -0.0949  2.0412  0.3190
 8253TIP3    H248955   1.571   7.470   4.477 -0.4605  0.4544  0.4227
 8254TIP3   OH248956   1.674   7.448   2.486  0.2829  0.2453 -0.4415
 8254TIP3    H148957   1.632   7.476   2.568  0.9976 -0.6560  0.2536
 8254TIP3    H248958   1.638   7.361   2.469  0.1024  0.4502 -1.1203
 8255TIP3   OH248959   0.710   5.318   2.886  0.0202  0.2804  0.0973
 8255TIP3    H148960   0.713   5.297   2.980  0.9747 -0.7363 -0.1310
 8255TIP3    H248961   0.763   5.397   2.877 -0.0968  0.3967  0.4212
 8256TIP3   OH248962   0.614   7.229   3.433 -0.2696 -0.4852  0.0341
 8256TIP3    H148963   0.564   7.242   3.514  0.0376 -0.6954  0.2613
 8256TIP3    H248964   0.549   7.206   3.367 -0.2856 -2.9758  0.8213
 8257TIP3   OH248965   4.023   4.829   4.067 -0.3963  0.2671 -0.6586
 8257TIP3    H148966   3.980   4.826   4.153 -1.6027  2.3698 -1.1402
 8257TIP3    H248967   4.109   4.868   4.085 -0.8192  1.1187 -0.4585
 8258TIP3   OH248968   2.421   7.258   2.562  0.4713  0.2635  0.2534
 8258TIP3    H148969   2.341   7.307   2.543 -0.8416 -2.1754 -0.8309
 8258TIP3    H248970   2.422   7.250   2.657  0.6761  2.2097  0.4693
 8259TIP3   OH248971   2.667   0.453   2.951  0.3255  0.3616 -0.3767
 8259TIP3    H148972   2.746   0.398   2.950  2.5171  3.1458  1.6613
 8259TIP3    H248973   2.632   0.442   3.040 -0.2113  0.9585 -0.5115
 8260TIP3   OH248974   3.952   6.670   4.124 -0.2256  0.6581 -0.1695
 8260TIP3    H148975   3.866   6.713   4.124 -1.2358 -1.1813 -1.5452
 8260TIP3    H248976   3.931   6.578   4.141  1.3621 -0.0012 -1.5549
 8261TIP3   OH248977   7.595   3.779   3.091  0.2261  0.2179 -0.4290
 8261TIP3    H148978   7.515   3.806   3.137  1.1862  0.4673  1.1841
 8261TIP3    H248979   7.639   3.721   3.153  1.5294  0.4778 -1.0835
 8262TIP3   OH248980   6.349   4.097   2.490 -0.0655  0.6973  0.2031
 8262TIP3    H148981   6.319   4.187   2.506 -0.6800  0.9424 -1.9721
 8262TIP3    H248982   6.269   4.048   2.472  0.3345 -0.1233  0.6221
 8263TIP3   OH248983   4.186   4.189   3.431  0.1853  0.3281 -0.2590
 8263TIP3    H148984   4.127   4.241   3.376  1.0381  1.6934  0.0521
 8263TIP3    H248985   4.248   4.150   3.370 -1.1673 -1.3845 -0.6249
 8264TIP3   OH248986   1.761   0.812   4.842  0.2481  0.0156  0.4168
 8264TIP3    H148987   1.785   0.900   4.814  4.0287 -0.8700  0.3294
 8264TIP3    H248988   1.679   0.793   4.796  0.0756  2.9412 -0.6573
 8265TIP3   OH248989   2.611   7.644   3.637  0.1437 -0.4735 -0.3035
 8265TIP3    H148990   2.694   7.689   3.620 -1.3875  2.3143 -1.0089
 8265TIP3    H248991   2.544   7.704   3.603 -2.5872  0.0828  5.1028
 8266TIP3   OH248992   6.913   1.308   4.290 -0.2268 -0.0171  0.1575
 8266TIP3    H148993   6.945   1.282   4.376 -1.0302 -0.3636  0.3582
 8266TIP3    H248994   6.910   1.404   4.293 -0.9862 -0.0553  0.7852
 8267TIP3   OH248995   3.526   0.153   4.607  0.3331  0.4451 -0.4649
 8267TIP3    H148996   3.510   0.240   4.643 -2.1371 -0.4763  0.8817
 8267TIP3    H248997   3.582   0.110   4.672 -1.6811 -0.2249  0.8969
 8268TIP3   OH248998   6.366   6.627   3.398 -0.2293  1.2581 -0.4426
 8268TIP3    H148999   6.350   6.534   3.412 -0.5730  1.2005 -1.1814
 8268TIP3    H249000   6.460   6.638   3.414 -0.4521  1.0810  1.1714
 8269TIP3   OH249001   7.440   5.846   3.362 -0.2821 -0.0017  0.4343
 8269TIP3    H149002   7.387   5.774   3.328  1.7727 -0.3307 -2.4194
 8269TIP3    H249003   7.486   5.808   3.437 -0.7469 -1.0278  0.2201
 8270TIP3   OH249004   3.258   4.185   4.446 -0.4400  0.7924 -0.0411
 8270TIP3    H149005   3.318   4.257   4.464 -0.5337  0.6781  0.7713
 8270TIP3    H249006   3.260   4.132   4.526  0.5555 -0.7871 -1.0746
 8271TIP3   OH249007   5.794   6.887   5.212  0.5588  0.3038  0.0596
 8271TIP3    H149008   5.882   6.925   5.212  0.2557  1.0202  0.0636
 8271TIP3    H249009   5.799   6.815   5.275  0.8647  1.0094  0.8582
 8272TIP3   OH249010   6.444   6.152   4.475  0.8504 -0.5217 -0.1080
 8272TIP3    H149011   6.496   6.224   4.440  0.0118  0.4767  0.6302
 8272TIP3    H249012   6.422   6.180   4.564 -2.1384 -0.2260 -0.8392
 8273TIP3   OH249013   3.568   5.473   3.590  0.0709 -0.2367 -0.5529
 8273TIP3    H149014   3.639   5.497   3.650 -0.3349 -2.3362  0.8821
 8273TIP3    H249015   3.588   5.383   3.565  0.0002  0.4169 -3.3527
 8274TIP3   OH249016   1.768   2.078   2.380  0.5316  0.2944 -0.2085
 8274TIP3    H149017   1.725   2.146   2.328 -0.4464  1.7712  2.3550
 8274TIP3    H249018   1.849   2.120   2.410 -0.8060  1.0461  2.6764
 8275TIP3   OH249019   3.975   7.127   3.273  0.7314 -0.1849 -0.4231
 8275TIP3    H149020   3.935   7.207   3.238  1.2230 -0.0956 -0.7745
 8275TIP3    H249021   3.959   7.132   3.368  0.3303  0.0856 -0.5035
 8276TIP3   OH249022   3.803   0.155   2.193 -0.7142  0.5754 -0.6084
 8276TIP3    H149023   3.741   0.221   2.225  0.7458  1.1658  1.1764
 8276TIP3    H249024   3.761   0.119   2.115 -2.7928  1.7029 -0.0980
 8277TIP3   OH249025   3.797   7.394   3.755  0.0719 -0.8219  0.0356
 8277TIP3    H149026   3.891   7.380   3.767  0.3213  0.4008 -0.3372
 8277TIP3    H249027   3.788   7.489   3.743 -1.1092 -1.0107 -0.7801
 8278TIP3   OH249028   6.907   4.801   3.579 -0.1810 -0.2004 -0.0984
 8278TIP3    H149029   6.882   4.786   3.488 -1.3705 -2.0028  0.4573
 8278TIP3    H249030   6.886   4.893   3.595  1.0091  0.4356 -1.8883
 8279TIP3   OH249031   5.064   3.652   4.492  0.0041 -0.0349  0.2644
 8279TIP3    H149032   5.157   3.627   4.494 -0.3634 -1.5740 -0.2854
 8279TIP3    H249033   5.061   3.732   4.440  1.1094  0.5093  0.9940
 8280TIP3   OH249034   3.805   5.042   2.201  0.6723 -0.1374 -0.6007
 8280TIP3    H149035   3.825   5.052   2.294 -0.0852 -0.7162 -0.3608
 8280TIP3    H249036   3.737   4.975   2.198  1.7899 -1.2889 -1.6864
 8281TIP3   OH249037   7.595   1.728   2.942  0.0600  0.3770  0.5175
 8281TIP3    H149038   7.503   1.754   2.935  0.0078  0.3650  1.0844
 8281TIP3    H249039   7.622   1.757   3.029  0.7559  0.8783  0.1452
 8282TIP3   OH249040   6.626   3.212   2.278 -0.0643 -0.8204  0.2715
 8282TIP3    H149041   6.565   3.280   2.306  0.8291  0.1402 -0.0225
 8282TIP3    H249042   6.705   3.229   2.330  0.3264 -1.3611 -0.1374
 8283TIP3   OH249043   7.363   0.951   3.684 -0.0579 -0.3361  0.6319
 8283TIP3    H149044   7.296   0.967   3.618  2.5457  0.2047 -2.0849
 8283TIP3    H249045   7.369   0.856   3.690 -0.6252 -0.3872  0.4252
 8284TIP3   OH249046   7.413   0.119   2.120 -0.1638 -0.7171  0.2362
 8284TIP3    H149047   7.406   0.065   2.199 -0.5250 -1.1205 -0.0653
 8284TIP3    H249048   7.502   0.103   2.088 -0.9813 -3.0060 -1.1471
 8285TIP3   OH249049   5.798   5.013   4.306 -0.0171 -0.6895  0.6657
 8285TIP3    H149050   5.836   4.939   4.354 -1.8557 -1.9823  0.2492
 8285TIP3    H249051   5.741   5.056   4.370  0.7746  0.1647  0.8033
 8286TIP3   OH249052   4.908   5.387   2.861  0.2830 -0.4227  0.3076
 8286TIP3    H149053   4.965   5.449   2.906  0.5898 -0.2202 -0.3496
 8286TIP3    H249054   4.850   5.353   2.930  0.0609  0.6448  0.6632
 8287TIP3   OH249055   0.761   4.677   2.225  0.5603 -0.5234  0.8581
 8287TIP3    H149056   0.694   4.648   2.164  1.2674  0.0531 -0.2218
 8287TIP3    H249057   0.743   4.771   2.237  1.1677 -0.3599  0.5438
 8288TIP3   OH249058   2.730   3.471   3.108  0.3696  0.2528  0.1463
 8288TIP3    H149059   2.649   3.499   3.150 -1.5324 -1.2684 -2.2201
 8288TIP3    H249060   2.781   3.551   3.098 -1.5479  1.5582  0.3185
 8289TIP3   OH249061   4.941   5.030   3.016 -0.4809  0.0012 -0.1138
 8289TIP3    H149062   4.936   4.963   2.947  1.1353 -0.4493  0.1489
 8289TIP3    H249063   4.850   5.048   3.040 -0.9908 -1.2023 -1.0524
 8290TIP3   OH249064   1.136   3.811   2.153  0.0170 -0.2290  0.2655
 8290TIP3    H149065   1.122   3.718   2.173  0.2117 -0.4575 -0.6337
 8290TIP3    H249066   1.050   3.851   2.165 -0.3033 -0.7184 -0.3246
 8291TIP3   OH249067   0.584   1.410   4.483  0.2446 -0.5081  0.1317
 8291TIP3    H149068   0.573   1.319   4.455 -1.4121 -0.7228  1.3385
 8291TIP3    H249069   0.583   1.460   4.402 -0.7098 -1.4249 -0.4485
 8292TIP3   OH249070   5.567   3.396   3.447  0.4675 -0.3966  0.3665
 8292TIP3    H149071   5.483   3.441   3.448 -1.8705 -3.9705 -3.2024
 8292TIP3    H249072   5.623   3.450   3.391 -1.3561 -0.5136 -1.6817
 8293TIP3   OH249073   2.912   7.552   3.993  0.3408 -0.2278 -0.6537
 8293TIP3    H149074   2.887   7.466   4.026  0.7345  0.5914  2.0652
 8293TIP3    H249075   2.833   7.585   3.951 -0.3430 -1.2274 -0.2022
 8294TIP3   OH249076   2.831   3.977   3.290 -0.0012 -0.1470  0.1506
 8294TIP3    H149077   2.871   3.971   3.377 -0.7883 -3.1384  0.4141
 8294TIP3    H249078   2.754   4.032   3.304 -0.3801 -0.9597  1.4993
 8295TIP3   OH249079   1.601   3.700   3.447 -0.1812 -0.7344  0.1900
 8295TIP3    H149080   1.542   3.653   3.506 -2.6432 -0.5324 -1.9484
 8295TIP3    H249081   1.573   3.791   3.452  1.4046 -0.2410  0.6975
 8296TIP3   OH249082   4.568   0.896   2.313  0.0518  0.3129 -0.2413
 8296TIP3    H149083   4.503   0.952   2.272 -0.0398  0.7684  0.5005
 8296TIP3    H249084   4.592   0.833   2.245 -0.4769  0.7145 -0.8132
 8297TIP3   OH249085   6.859   1.538   3.599  0.4574  0.0273  0.1981
 8297TIP3    H149086   6.905   1.571   3.521 -0.1384 -1.4597 -0.8322
 8297TIP3    H249087   6.777   1.587   3.601 -0.2572 -1.0285 -1.1103
 8298TIP3   OH249088   6.085   7.630   3.211 -0.2062  0.6848  0.0586
 8298TIP3    H149089   5.989   7.630   3.210 -0.2230 -0.3574 -0.7746
 8298TIP3    H249090   6.110   7.593   3.126  0.9244  0.5843  0.4131
 8299TIP3   OH249091   3.918   6.812   4.908  0.4632 -0.1952  0.0080
 8299TIP3    H149092   3.941   6.867   4.983  0.2885 -3.7190  2.9565
 8299TIP3    H249093   3.991   6.820   4.848  1.2604  1.7724  1.1614
 8300TIP3   OH249094   3.457   3.892   4.550 -0.0858 -0.0808  0.7208
 8300TIP3    H149095   3.446   3.926   4.639  0.8567 -1.5275  1.4303
 8300TIP3    H249096   3.546   3.859   4.547 -0.1545 -0.2150 -0.7223
 8301TIP3   OH249097   3.195   1.936   4.107  0.2730 -0.1850 -0.0769
 8301TIP3    H149098   3.280   1.951   4.066 -0.5353 -0.2745 -1.8850
 8301TIP3    H249099   3.183   1.841   4.103 -0.4709 -0.0768 -1.1289
 8302TIP3   OH249100   7.488   0.425   4.955 -0.0327  0.6252  0.6797
 8302TIP3    H149101   7.489   0.420   4.860 -2.0465  1.5952  0.5468
 8302TIP3    H249102   7.579   0.438   4.980  0.8435 -1.9779 -0.9124
 8303TIP3   OH249103   1.822   7.054   4.576  0.3790 -0.4012  0.0748
 8303TIP3    H149104   1.790   7.081   4.489  0.5682 -1.2495 -0.2684
 8303TIP3    H249105   1.849   6.963   4.564 -0.5716 -0.8718  1.2805
 8304TIP3   OH249106   5.291   5.643   3.435 -0.4169 -0.4761  0.9419
 8304TIP3    H149107   5.255   5.617   3.520 -0.6840  0.8511  1.2576
 8304TIP3    H249108   5.250   5.727   3.416  1.3718  0.3669  0.5921
 8305TIP3   OH249109   4.670   0.524   3.332  1.0076  0.0722 -0.0513
 8305TIP3    H149110   4.632   0.451   3.283  0.9055  0.3862 -0.4477
 8305TIP3    H249111   4.693   0.588   3.265  0.8577  0.5123  0.3149
 8306TIP3   OH249112   5.045   5.836   3.067  0.6971  0.0643  0.5329
 8306TIP3    H149113   4.994   5.828   2.987  2.1850  3.3059 -0.9322
 8306TIP3    H249114   5.002   5.906   3.116  0.7300 -0.8049  1.8610
 8307TIP3   OH249115   0.232   3.194   3.385 -0.1794  0.5257 -0.7467
 8307TIP3    H149116   0.261   3.209   3.475 -1.5189  1.0862 -0.3732
 8307TIP3    H249117   0.220   3.099   3.380 -0.6437  0.5413 -0.1301
 8308TIP3   OH249118   5.866   4.726   2.573 -0.0240 -0.4356  0.1960
 8308TIP3    H149119   5.907   4.648   2.610  1.3269 -0.0992 -0.5302
 8308TIP3    H249120   5.772   4.706   2.572  0.2950 -2.0247  0.0572
 8309TIP3   OH249121   6.794   7.514   2.580  0.4253  0.3848  0.2122
 8309TIP3    H149122   6.777   7.436   2.526  0.2353  0.6186 -0.0664
 8309TIP3    H249123   6.767   7.587   2.525  0.1683  0.6236  0.6527
 8310TIP3   OH249124   4.633   2.257   3.534 -0.0995 -0.0159 -0.2095
 8310TIP3    H149125   4.670   2.189   3.478  2.1448 -1.5398  2.8107
 8310TIP3    H249126   4.690   2.333   3.522  0.3880 -0.3434  0.0082
 8311TIP3   OH249127   3.006   1.080   2.536  0.3747 -0.3920  0.4068
 8311TIP3    H149128   2.938   1.143   2.514  0.7808  0.4801  1.5323
 8311TIP3    H249129   3.084   1.133   2.550  0.6326 -1.0828  1.7650
 8312TIP3   OH249130   6.548   1.997   3.259 -0.1180 -0.6534 -0.0440
 8312TIP3    H149131   6.623   1.977   3.203 -0.0524  1.5333 -0.8399
 8312TIP3    H249132   6.581   2.065   3.319 -1.4380  0.3334 -0.4009
 8313TIP3   OH249133   4.505   1.932   3.708  0.2207 -0.3476 -0.2127
 8313TIP3    H149134   4.417   1.896   3.695  0.2392 -0.2870 -0.5208
 8313TIP3    H249135   4.492   2.006   3.767  0.4338 -2.0163  2.0633
 8314TIP3   OH249136   6.582   1.846   2.326 -0.3459 -0.1149  0.1250
 8314TIP3    H149137   6.550   1.760   2.354 -1.9638 -0.2844 -2.0534
 8314TIP3    H249138   6.508   1.887   2.283  1.0342  1.4920 -0.8399
 8315TIP3   OH249139   4.031   6.355   2.091  0.3367 -0.5090 -0.0157
 8315TIP3    H149140   3.966   6.423   2.072 -0.2209 -0.2128  2.5535
 8315TIP3    H249141   4.107   6.404   2.124  0.8062 -1.0212 -0.3232
 8316TIP3   OH249142   0.688   0.624   2.487  0.6742 -0.0093  0.0131
 8316TIP3    H149143   0.712   0.710   2.453 -1.7509  1.1822  1.1250
 8316TIP3    H249144   0.749   0.609   2.559 -0.9249  2.4078  2.0369
 8317TIP3   OH249145   4.978   6.323   4.247 -0.5905 -0.7448 -0.0268
 8317TIP3    H149146   5.057   6.375   4.231  1.0426 -3.0027  0.1498
 8317TIP3    H249147   4.954   6.343   4.338 -0.5766  0.3646 -0.2521
 8318TIP3   OH249148   2.699   7.345   2.510  0.2593 -0.1935 -0.4496
 8318TIP3    H149149   2.617   7.303   2.534  0.0813  0.9527  1.1292
 8318TIP3    H249150   2.763   7.312   2.573  0.2415  1.3933  0.4465
 8319TIP3   OH249151   7.349   0.390   2.207 -0.4082  0.2879 -0.3473
 8319TIP3    H149152   7.255   0.380   2.196 -0.4545  0.4373 -0.0966
 8319TIP3    H249153   7.387   0.311   2.168 -0.5933  0.5800 -1.1388
 8320TIP3   OH249154   6.519   4.847   3.678 -0.1426 -0.4140 -0.1839
 8320TIP3    H149155   6.464   4.783   3.723 -1.4548  1.5599  1.1661
 8320TIP3    H249156   6.458   4.912   3.644  1.1588  0.2937 -1.2830
 8321TIP3   OH249157   7.026   5.798   3.270 -0.2464 -0.8012  0.0025
 8321TIP3    H149158   6.938   5.780   3.304  0.1858 -0.7601  1.1792
 8321TIP3    H249159   7.085   5.755   3.332  0.5659 -1.0352 -0.9111
 8322TIP3   OH249160   4.600   5.358   2.491 -0.2180  0.2526 -0.2577
 8322TIP3    H149161   4.694   5.346   2.505  0.0877  1.4589 -1.1481
 8322TIP3    H249162   4.563   5.271   2.509  1.2467 -0.6504 -1.3110
 8323TIP3   OH249163   2.281   6.190   2.357  0.1742 -0.4492  0.0454
 8323TIP3    H149164   2.284   6.193   2.452  0.8542 -0.8131  0.0487
 8323TIP3    H249165   2.362   6.234   2.329 -0.8572  1.2275 -0.4210
 8324TIP3   OH249166   6.257   0.425   2.083  0.0791 -0.2160  0.0969
 8324TIP3    H149167   6.166   0.395   2.090 -0.6011  1.8301  0.5999
 8324TIP3    H249168   6.255   0.491   2.014  1.3036 -0.4555 -0.1962
 8325TIP3   OH249169   4.280   1.606   3.913  0.2444 -0.3860 -0.6527
 8325TIP3    H149170   4.367   1.619   3.873  0.6748 -2.1444 -0.3772
 8325TIP3    H249171   4.270   1.511   3.918 -1.1704 -0.2109  0.5153
 8326TIP3   OH249172   6.035   6.941   2.282  0.0064 -0.0106 -0.7625
 8326TIP3    H149173   6.063   6.986   2.203  1.2377  0.9421  0.1850
 8326TIP3    H249174   6.089   6.863   2.287  0.5117  0.3570 -0.4347
 8327TIP3   OH249175   5.393   2.668   3.037  0.2957 -0.3499  0.1348
 8327TIP3    H149176   5.353   2.582   3.049 -0.2256 -0.0899  0.3215
 8327TIP3    H249177   5.451   2.678   3.112  0.3181 -0.5200  0.1403
 8328TIP3   OH249178   5.222   3.522   2.748 -0.4293 -0.0011  0.2122
 8328TIP3    H149179   5.302   3.563   2.715 -0.1670 -0.3354  0.4360
 8328TIP3    H249180   5.216   3.439   2.700 -0.4027 -0.1824  0.5240
 8329TIP3   OH249181   1.414   5.384   2.127 -0.2112 -0.1836  0.3387
 8329TIP3    H149182   1.504   5.387   2.094 -0.3081 -0.7347  0.0195
 8329TIP3    H249183   1.388   5.292   2.117 -0.6685 -0.1075  0.8053
 8330TIP3   OH249184   6.676   2.676   4.259  0.1254 -0.3848 -0.4671
 8330TIP3    H149185   6.684   2.676   4.163  0.4314 -0.0055 -0.4469
 8330TIP3    H249186   6.640   2.763   4.279 -0.2772 -0.5991 -0.2625
 8331TIP3   OH249187   5.661   7.131   5.183  0.5496 -0.0102  0.3988
 8331TIP3    H149188   5.689   7.153   5.094  0.1011  2.2180  0.7616
 8331TIP3    H249189   5.705   7.048   5.202  0.6919 -0.5008 -1.8647
 8332TIP3   OH249190   1.070   0.962   3.060  0.3904  0.6191  0.1428
 8332TIP3    H149191   0.992   1.000   3.100  0.4846  0.3920  0.5500
 8332TIP3    H249192   1.140   0.981   3.123  0.9676  2.1098 -0.8696
 8333TIP3   OH249193   4.488   2.050   3.043 -0.4845  0.0499 -0.4614
 8333TIP3    H149194   4.413   2.081   3.094 -0.1813  0.6272 -0.3607
 8333TIP3    H249195   4.555   2.029   3.108 -0.0637  0.8784 -0.6160
 8334TIP3   OH249196   4.721   7.080   3.057 -0.5463 -0.3376 -0.4995
 8334TIP3    H149197   4.702   7.174   3.062 -2.5311 -0.7901  2.3122
 8334TIP3    H249198   4.685   7.053   2.972  3.7875  1.9927 -3.4890
 8335TIP3   OH249199   6.502   1.433   3.809 -0.4826 -0.5956  0.5622
 8335TIP3    H149200   6.578   1.462   3.858 -0.1282 -0.4802 -0.0462
 8335TIP3    H249201   6.447   1.512   3.801 -0.6548 -0.6737  0.9800
 8336TIP3   OH249202   4.414   7.600   9.612 -0.0803  0.3394  0.5136
 8336TIP3    H149203   4.430   7.674   9.672  0.3715  0.4634  0.2437
 8336TIP3    H249204   4.396   7.526   9.671 -0.7428  0.6991  0.7847
 8337TIP3   OH249205   6.106   3.571   3.876 -0.2011  0.2854 -0.1451
 8337TIP3    H149206   6.142   3.605   3.794  0.3991 -0.7248 -0.3045
 8337TIP3    H249207   6.177   3.579   3.939 -0.8140  1.5281  0.4360
 8338TIP3   OH249208   5.227   3.958   2.473 -0.0043  0.1410  0.5894
 8338TIP3    H149209   5.151   3.968   2.530 -0.5199  1.6818 -0.2967
 8338TIP3    H249210   5.191   3.937   2.387  0.6041  0.1070  0.3384
 8339TIP3   OH249211   5.739   5.083   3.000 -0.0247  0.5742 -0.0946
 8339TIP3    H149212   5.698   5.076   2.914  1.1566  0.6617 -0.6825
 8339TIP3    H249213   5.681   5.033   3.058 -0.6701  0.2485 -0.9933
 8340TIP3   OH249214   6.116   0.012   4.276  0.4210  0.5302 -0.3428
 8340TIP3    H149215   6.205   0.017   4.240 -0.5212 -0.2872 -3.0654
 8340TIP3    H249216   6.098   0.101   4.306  1.4880  1.2288 -1.5963
 8341TIP3   OH249217   0.085   2.110   2.727  0.0686  0.0560  0.1667
 8341TIP3    H149218   0.099   2.181   2.790 -0.4596 -0.4519  0.8748
 8341TIP3    H249219   0.137   2.038   2.761  1.7750  0.5064 -1.3243
 8342TIP3   OH249220   3.825   1.316   4.855  0.7818  0.4345 -0.3492
 8342TIP3    H149221   3.791   1.402   4.880 -1.0629 -0.8046  1.8015
 8342TIP3    H249222   3.918   1.319   4.878  0.4184  1.3975  1.1103
 8343TIP3   OH249223   5.494   5.079   2.828  0.2252 -0.1602  0.6341
 8343TIP3    H149224   5.433   5.096   2.899 -2.0505  0.3122 -1.2952
 8343TIP3    H249225   5.443   5.094   2.748  2.7878 -0.0876 -1.1238
 8344TIP3   OH249226   3.249   3.962   3.806 -0.2064  0.3725 -0.3408
 8344TIP3    H149227   3.276   3.870   3.806 -0.3649  0.3267 -0.1254
 8344TIP3    H249228   3.168   3.964   3.857 -1.1863  0.3444 -1.8229
 8345TIP3   OH249229   4.581   2.633   2.520 -0.1333 -0.2348 -0.3741
 8345TIP3    H149230   4.599   2.567   2.587 -2.4479  0.8521  1.4760
 8345TIP3    H249231   4.509   2.595   2.468 -1.4392  0.7546  0.6683
 8346TIP3   OH249232   1.568   3.446   4.293 -0.9228 -0.1311 -0.8207
 8346TIP3    H149233   1.609   3.428   4.377 -1.1533 -0.6953 -0.8241
 8346TIP3    H249234   1.542   3.538   4.298 -0.3087  0.0296 -0.5482
 8347TIP3   OH249235   0.439   3.600   3.570 -0.3242  0.3641  0.8588
 8347TIP3    H149236   0.442   3.685   3.527 -0.6547 -0.7346 -1.5543
 8347TIP3    H249237   0.392   3.544   3.508  2.7260 -2.3958  0.7632
 8348TIP3   OH249238   3.007   6.376  10.388  0.2099  0.5351  0.2855
 8348TIP3    H149239   2.922   6.340  10.363 -0.2972  0.6656  1.7580
 8348TIP3    H249240   3.031   6.328  10.467  2.3816 -0.7694 -1.0712
 8349TIP3   OH249241   3.358   5.950   1.904  0.3841 -0.3933  0.4650
 8349TIP3    H149242   3.271   5.910   1.903  1.1205 -2.0793  0.8396
 8349TIP3    H249243   3.350   6.023   1.967 -1.2300  0.7126 -0.9365
 8350TIP3   OH249244   6.257   3.635   2.622 -0.0200 -0.1591 -0.2627
 8350TIP3    H149245   6.289   3.666   2.707  1.4496 -0.0312 -0.8325
 8350TIP3    H249246   6.276   3.541   2.622  1.5137  0.1103 -1.0525
 8351TIP3   OH249247   2.327   7.344   4.239  0.3310 -0.6799 -0.7429
 8351TIP3    H149248   2.408   7.371   4.196  0.2318  0.3575 -0.3042
 8351TIP3    H249249   2.316   7.405   4.312 -1.0915 -0.4893 -1.0836
 8352TIP3   OH249250   3.150   1.628   4.971  0.1051 -0.0194  0.2937
 8352TIP3    H149251   3.140   1.721   4.951 -1.0756 -0.2992 -0.5260
 8352TIP3    H249252   3.111   1.618   5.057  0.8104  0.3482  0.6620
 8353TIP3   OH249253   3.178   3.436   3.016  0.2615  0.5184 -0.1207
 8353TIP3    H149254   3.127   3.369   2.971  1.1266 -1.0231  1.0807
 8353TIP3    H249255   3.157   3.424   3.109  2.1280  0.3750  0.3373
 8354TIP3   OH249256   6.778   0.648   3.371  0.0933 -0.2043 -0.7328
 8354TIP3    H149257   6.736   0.733   3.356 -1.5898 -1.1229 -1.5125
 8354TIP3    H249258   6.777   0.637   3.466 -0.5765  0.2246 -0.6799
 8355TIP3   OH249259   3.796   7.241   4.874 -0.3005  0.0415 -0.0358
 8355TIP3    H149260   3.831   7.312   4.927 -3.1352  1.6643 -0.1240
 8355TIP3    H249261   3.733   7.197   4.931 -0.1798 -1.0193 -0.6875
 8356TIP3   OH249262   3.052   2.903   3.578  0.0231  0.0097  0.1123
 8356TIP3    H149263   2.997   2.906   3.500 -1.2118 -0.7857  0.9365
 8356TIP3    H249264   3.028   2.981   3.628  1.7989  1.2847 -0.9004
 8357TIP3   OH249265   0.465   3.169   3.665  0.6976  0.1198  0.3346
 8357TIP3    H149266   0.556   3.145   3.648  1.4882  2.8857  0.2145
 8357TIP3    H249267   0.466   3.206   3.754 -0.4204 -0.2518  0.5197
 8358TIP3   OH249268   6.138   5.054   2.492 -0.4866 -0.3488  0.2474
 8358TIP3    H149269   6.045   5.034   2.485 -0.8015  0.9973  0.3114
 8358TIP3    H249270   6.146   5.143   2.457  0.9743 -0.9166 -0.9846
 8359TIP3   OH249271   0.555   6.533   3.371 -0.5549  0.0267 -0.0643
 8359TIP3    H149272   0.566   6.628   3.364  1.0322 -0.1266 -0.2013
 8359TIP3    H249273   0.461   6.520   3.379 -0.7723  1.6380  0.4185
 8360TIP3   OH249274   7.073   4.945   3.950 -0.2708 -0.3458  0.3826
 8360TIP3    H149275   7.038   4.991   3.874  0.3676  0.4463  0.5506
 8360TIP3    H249276   7.033   4.990   4.025 -0.4220 -0.7221  0.5272
 8361TIP3   OH249277   1.453   0.367   4.073  0.2256  0.4174 -0.1679
 8361TIP3    H149278   1.536   0.330   4.102 -0.5547 -0.0094  1.7180
 8361TIP3    H249279   1.417   0.409   4.152 -2.2254 -1.1123 -0.3481
 8362TIP3   OH249280   2.908   0.394   2.258  0.2099  0.0120  0.2856
 8362TIP3    H149281   2.929   0.443   2.338  2.0769 -1.2875  0.6710
 8362TIP3    H249282   2.950   0.444   2.188 -0.9593  0.8601  0.1817
 8363TIP3   OH249283   0.503   5.461   4.705 -0.3734  0.0591  0.6465
 8363TIP3    H149284   0.575   5.522   4.720  0.0329  0.2513 -1.7077
 8363TIP3    H249285   0.433   5.492   4.764  0.8353  0.9285  1.6788
 8364TIP3   OH249286   5.923   4.021   4.199  0.2793 -0.4008  0.3025
 8364TIP3    H149287   5.828   4.027   4.205  0.2985 -1.0716  1.4853
 8364TIP3    H249288   5.942   3.928   4.213  1.2154  0.0010  1.9068
 8365TIP3   OH249289   4.742   1.314   2.542 -0.4670 -0.1773  0.5939
 8365TIP3    H149290   4.755   1.403   2.575  1.7060  1.2614 -3.4795
 8365TIP3    H249291   4.653   1.314   2.506  0.0354  0.8954 -0.7088
 8366TIP3   OH249292   2.078   2.982   4.183  0.3501 -0.0061  0.0971
 8366TIP3    H149293   2.127   2.900   4.177 -0.5124 -0.4060 -2.9926
 8366TIP3    H249294   2.005   2.972   4.122 -0.9094  2.3509  1.0662
 8367TIP3   OH249295   0.074   6.908   3.118 -0.0675  0.5624 -0.1402
 8367TIP3    H149296   0.123   6.850   3.177 -1.9507 -1.4262 -0.4078
 8367TIP3    H249297   0.110   6.889   3.031 -0.8853 -0.4844 -0.2672
 8368TIP3   OH249298   2.975   6.041   2.131  0.2958 -0.3373 -0.2421
 8368TIP3    H149299   2.976   5.960   2.181 -0.4006  0.1150  0.5490
 8368TIP3    H249300   2.893   6.084   2.158  1.1216  1.0810  0.1207
 8369TIP3   OH249301   7.438   2.941   2.545  0.2023  0.7180 -0.1997
 8369TIP3    H149302   7.466   2.850   2.535 -0.3210  0.6527 -1.1560
 8369TIP3    H249303   7.509   2.982   2.595  1.2224  0.1612 -1.1237
 8370TIP3   OH249304   3.585   0.971   2.356  0.2473  0.2168  0.3440
 8370TIP3    H149305   3.653   1.038   2.351 -1.6771  2.2976  0.3414
 8370TIP3    H249306   3.578   0.951   2.449  0.3028  0.6333  0.4397
 8371TIP3   OH249307   3.844   0.942   2.228  0.1495 -0.2351 -0.0104
 8371TIP3    H149308   3.811   0.854   2.249 -1.6727  0.8746  2.2833
 8371TIP3    H249309   3.937   0.929   2.211  0.0685 -2.5338  0.9025
 8372TIP3   OH249310   7.208   6.979   2.502 -0.3049 -0.1198  0.0539
 8372TIP3    H149311   7.220   6.924   2.580 -0.9920 -0.9350 -0.3943
 8372TIP3    H249312   7.294   6.980   2.460 -0.2743 -0.8660  0.0752
 8373TIP3   OH249313   6.400   7.003   2.416 -0.5426  0.5694  0.0363
 8373TIP3    H149314   6.440   7.082   2.381 -1.7746  1.3064  0.2507
 8373TIP3    H249315   6.321   7.033   2.461 -1.2436 -0.8209 -0.2005
 8374TIP3   OH249316   6.057   4.507   4.125  0.0851  0.1312 -0.0623
 8374TIP3    H149317   6.029   4.597   4.142  1.9500  0.3811  2.1361
 8374TIP3    H249318   5.984   4.468   4.077 -3.1453  1.2646  3.4490
 8375TIP3   OH249319   3.928   3.684   2.922  0.5740 -0.0743 -0.2226
 8375TIP3    H149320   3.924   3.698   2.828  0.8880  0.0686 -0.2155
 8375TIP3    H249321   4.022   3.685   2.943  0.4753  0.8882  0.2406
 8376TIP3   OH249322   6.593   5.746   3.211 -0.0727  0.2281  0.0538
 8376TIP3    H149323   6.644   5.798   3.274 -3.7567  2.6778  1.3792
 8376TIP3    H249324   6.632   5.658   3.215  3.2851  1.6140  1.5812
 8377TIP3   OH249325   2.590   0.007   2.933 -0.7638 -0.5170  0.2398
 8377TIP3    H149326   2.587   0.004   2.837  1.4382  1.2066  0.0144
 8377TIP3    H249327   2.620  -0.080   2.959 -2.7798 -1.4884 -0.4658
 8378TIP3   OH249328   7.083   0.473   3.027  0.4980 -0.2117  0.5532
 8378TIP3    H149329   7.163   0.460   3.078 -0.0444 -0.5642  1.3340
 8378TIP3    H249330   7.059   0.385   2.997 -0.9739 -0.5429  2.4728
 8379TIP3   OH249331   3.352   2.323   3.703 -0.0120 -0.6557  0.7170
 8379TIP3    H149332   3.312   2.407   3.722 -0.0428 -0.2276 -1.0590
 8379TIP3    H249333   3.317   2.264   3.770 -2.8668 -0.0704 -0.1133
 8380TIP3   OH249334   1.597   5.166   4.866 -0.0318  0.2637 -0.0050
 8380TIP3    H149335   1.569   5.249   4.827 -0.3094 -0.3513 -1.1502
 8380TIP3    H249336   1.686   5.154   4.834 -0.5351 -0.6282 -1.1107
 8381TIP3   OH249337   2.672   2.867   2.781  0.3299 -0.5021  0.5061
 8381TIP3    H149338   2.620   2.793   2.749  0.4287  0.4622 -2.1988
 8381TIP3    H249339   2.614   2.914   2.840 -0.5126 -1.5188  0.5127
 8382TIP3   OH249340   6.475   1.382   2.669  0.7096 -0.4065  0.4911
 8382TIP3    H149341   6.500   1.335   2.589  0.7970  1.4474 -0.6194
 8382TIP3    H249342   6.398   1.433   2.644  0.8973  0.4172  1.5258
 8383TIP3   OH249343   4.543   2.519   3.266 -0.2056  0.5378 -0.3219
 8383TIP3    H149344   4.591   2.522   3.183  0.2533 -0.4215 -0.1073
 8383TIP3    H249345   4.554   2.607   3.303 -0.1099  0.8634 -1.1045
 8384TIP3   OH249346   0.873   1.869   3.448  0.0640 -0.7597 -0.4196
 8384TIP3    H149347   0.967   1.852   3.449  0.1399 -0.3385 -0.3061
 8384TIP3    H249348   0.838   1.807   3.384  0.2054 -1.9899  0.6541
 8385TIP3   OH249349   3.959   5.747   4.932 -0.4179  0.2931 -0.2628
 8385TIP3    H149350   3.942   5.757   4.839  0.2113  0.1094 -0.3989
 8385TIP3    H249351   4.046   5.785   4.945  0.5405 -1.8311 -0.1853
 8386TIP3   OH249352   4.477   3.683   2.833  0.2306 -0.0907  0.1390
 8386TIP3    H149353   4.496   3.775   2.848  0.7134 -0.2827  0.7304
 8386TIP3    H249354   4.562   3.642   2.819  0.1444 -0.6673  1.1684
 8387TIP3   OH249355   6.908   4.033   4.822  0.1452  0.2859 -0.4738
 8387TIP3    H149356   6.817   4.033   4.793  0.2289 -0.9279 -0.7699
 8387TIP3    H249357   6.949   3.962   4.773  0.9459 -0.0208  0.6130
 8388TIP3   OH249358   0.800   7.541   2.974 -0.2778 -0.0789 -0.0337
 8388TIP3    H149359   0.888   7.575   2.960 -0.9623  1.7460 -0.1492
 8388TIP3    H249360   0.808   7.486   3.052  1.1328 -0.6960 -0.5847
 8389TIP3   OH249361   1.359   2.841   3.557 -0.5628  0.0381 -0.0377
 8389TIP3    H149362   1.430   2.866   3.497  0.1396  0.2042  0.8494
 8389TIP3    H249363   1.279   2.856   3.506 -0.1255  2.8744 -0.0380
 8390TIP3   OH249364   2.137   5.314   4.691  0.2985  0.3941 -0.0790
 8390TIP3    H149365   2.197   5.264   4.746 -0.9910 -0.9539  0.1764
 8390TIP3    H249366   2.123   5.258   4.615 -2.0012 -0.1710  0.6906
 8391TIP3   OH249367   2.291   3.765   2.734 -0.1570 -0.4077 -0.1106
 8391TIP3    H149368   2.345   3.698   2.693  1.4282  0.4043  0.5632
 8391TIP3    H249369   2.325   3.773   2.823 -0.3051  1.2584 -0.1639
 8392TIP3   OH249370   5.271   7.074   4.301  0.4378  0.2329  0.0765
 8392TIP3    H149371   5.260   7.021   4.380  0.0246 -0.1084 -0.2063
 8392TIP3    H249372   5.268   7.012   4.229  1.5311  0.4566 -0.1861
 8393TIP3   OH249373   2.305   7.555   2.764  0.2159  0.1860  0.0569
 8393TIP3    H149374   2.290   7.532   2.673 -1.3008  2.4339 -0.3450
 8393TIP3    H249375   2.384   7.609   2.762  1.5625 -1.6687  0.4702
 8394TIP3   OH249376   1.441   0.254   4.575 -0.2568 -0.1919  0.3161
 8394TIP3    H149377   1.355   0.260   4.532 -0.0666  1.5008  0.1197
 8394TIP3    H249378   1.430   0.183   4.639 -1.7225 -0.1814  0.1237
 8395TIP3   OH249379   5.882   4.974   2.466 -0.2292 -0.6283  0.1989
 8395TIP3    H149380   5.863   4.885   2.496  0.3016 -0.1660  1.9819
 8395TIP3    H249381   5.805   5.025   2.491  0.0059 -0.3358  0.3281
 8396TIP3   OH249382   2.988   3.005   2.111  0.3269 -0.1111  0.0317
 8396TIP3    H149383   3.079   3.001   2.140  0.5200 -1.3276 -0.6741
 8396TIP3    H249384   2.939   2.963   2.181  0.6942 -2.2731 -0.9325
 8397TIP3   OH249385   0.782   2.534   2.793 -0.2182 -0.2673 -0.3127
 8397TIP3    H149386   0.693   2.541   2.759 -0.2614  1.4735  0.0406
 8397TIP3    H249387   0.827   2.611   2.759  1.1472 -1.0839 -0.4283
 8398TIP3   OH249388   6.532   5.659   4.467  0.0064 -0.8090  0.1485
 8398TIP3    H149389   6.592   5.716   4.516  0.9711 -0.3668 -1.4587
 8398TIP3    H249390   6.478   5.719   4.416  2.3659 -1.1677 -3.1220
 8399TIP3   OH249391   7.478   0.629   3.992 -0.0960  0.4505  0.1309
 8399TIP3    H149392   7.568   0.657   4.007  0.8947 -1.6010 -1.3516
 8399TIP3    H249393   7.435   0.706   3.955  1.3116  1.2322  0.0264
 8400TIP3   OH249394   2.485   3.457   1.713 -0.2290  0.3254 -0.0913
 8400TIP3    H149395   2.477   3.361   1.715 -0.6038  0.3625  0.3674
 8400TIP3    H249396   2.470   3.480   1.622  1.3778 -0.1712 -0.5164
 8401TIP3   OH249397   1.821   7.171   3.293  0.3346 -0.1881  0.0279
 8401TIP3    H149398   1.784   7.142   3.376 -0.4517  1.2957  0.2372
 8401TIP3    H249399   1.850   7.261   3.310 -1.2889  0.7285 -1.6879
 8402TIP3   OH249400   7.275   4.640   4.337  0.4319 -0.3096 -0.0707
 8402TIP3    H149401   7.200   4.581   4.341 -1.4014  1.9172  2.6178
 8402TIP3    H249402   7.349   4.587   4.368 -0.1407 -2.2689 -1.8064
 8403TIP3   OH249403   3.272   0.021   4.521  0.0456 -0.2828 -0.1415
 8403TIP3    H149404   3.356   0.064   4.537  0.9610 -1.9252 -0.2932
 8403TIP3    H249405   3.268   0.012   4.426 -0.1047 -0.6015 -0.1053
 8404TIP3   OH249406   2.337   4.078   2.496  0.5398  0.2766 -0.9361
 8404TIP3    H149407   2.288   3.998   2.517 -1.3136  1.9093  1.6507
 8404TIP3    H249408   2.271   4.139   2.464  1.7965  1.0556 -2.1559
 8405TIP3   OH249409   7.554   2.768   4.632  0.6584  0.6306  0.4284
 8405TIP3    H149410   7.586   2.841   4.684  0.5063  0.7505  0.3529
 8405TIP3    H249411   7.628   2.707   4.628  0.6416  0.5848  0.8535
 8406TIP3   OH249412   4.177   3.142   4.155  0.5689 -0.2203  0.0730
 8406TIP3    H149413   4.246   3.076   4.149  0.2834 -0.6023  0.8712
 8406TIP3    H249414   4.175   3.166   4.247  1.8081  2.1378 -0.4379
 8407TIP3   OH249415   3.314   2.994   4.661 -0.5938 -0.1319 -0.3344
 8407TIP3    H149416   3.253   3.000   4.588 -0.5335 -1.5819 -0.5302
 8407TIP3    H249417   3.300   3.075   4.711 -0.3343  1.1153 -2.1602
 8408TIP3   OH249418   6.520   6.273   4.081  0.4198  0.1683 -0.2107
 8408TIP3    H149419   6.429   6.301   4.076  0.4351  0.1448 -0.6579
 8408TIP3    H249420   6.525   6.195   4.025  0.6067 -0.1218  0.2012
 8409TIP3   OH249421   5.251   4.541   4.195  0.0480 -0.2747 -0.2380
 8409TIP3    H149422   5.343   4.518   4.212  0.1591 -0.6851 -1.3344
 8409TIP3    H249423   5.206   4.457   4.190 -0.5269 -0.0554  0.9422
 8410TIP3   OH249424   5.150   4.432   3.781 -0.0984 -0.5176 -0.7482
 8410TIP3    H149425   5.167   4.356   3.836  0.3686 -0.8208 -1.2882
 8410TIP3    H249426   5.066   4.413   3.739  0.3832 -1.1162 -1.4781
 8411TIP3   OH249427   2.004   5.980   2.599 -0.1782  0.2948 -0.0572
 8411TIP3    H149428   1.954   6.039   2.543  0.8808  0.1020 -1.2450
 8411TIP3    H249429   1.977   5.892   2.573  0.2338  0.2041 -0.1848
 8412TIP3   OH249430   5.672   4.636   4.148  0.0966  0.6669  1.0211
 8412TIP3    H149431   5.653   4.661   4.057 -1.2674 -2.6271  0.2605
 8412TIP3    H249432   5.765   4.656   4.159  0.2474  1.3456 -1.0160
 8413TIP3   OH249433   1.380   3.276   4.207 -0.0241  0.0603 -0.4622
 8413TIP3    H149434   1.414   3.227   4.131  0.1325  0.3965 -0.6091
 8413TIP3    H249435   1.452   3.332   4.234  0.2618 -0.7806  0.5686
 8414TIP3   OH249436   3.399   3.673   3.101 -0.3140  0.0612  0.1486
 8414TIP3    H149437   3.422   3.724   3.024  0.5753 -3.0569 -1.8639
 8414TIP3    H249438   3.304   3.665   3.097 -0.3419  0.5565 -0.1934
 8415TIP3   OH249439   5.255   7.102   2.915 -0.4529  0.6448  0.1279
 8415TIP3    H149440   5.216   7.017   2.892  0.6479  0.5461 -1.6238
 8415TIP3    H249441   5.321   7.117   2.847 -0.3474  2.7411  0.6148
 8416TIP3   OH249442   1.989   4.134   2.042 -0.4874 -0.5258 -0.6159
 8416TIP3    H149443   1.964   4.052   2.000  0.3918  0.0239 -2.3142
 8416TIP3    H249444   2.054   4.108   2.108  0.8576 -1.0913 -2.1059
 8417TIP3   OH249445   5.261   2.599   4.456  0.0274 -0.5514  0.2928
 8417TIP3    H149446   5.347   2.582   4.494  0.2512 -1.2287 -0.4826
 8417TIP3    H249447   5.199   2.557   4.515  0.1364  0.6294  1.2999
 8418TIP3   OH249448   0.279   6.846   4.494  0.2720  0.4293 -0.0054
 8418TIP3    H149449   0.197   6.810   4.526  1.0141 -2.5967 -1.1650
 8418TIP3    H249450   0.346   6.813   4.554  1.0305 -0.5792 -1.3415
 8419TIP3   OH249451   2.011   3.986   3.532 -0.0229 -0.2166 -0.1620
 8419TIP3    H149452   2.061   3.982   3.613 -0.5399 -2.9196  0.1047
 8419TIP3    H249453   1.977   4.076   3.530 -0.4913 -0.1947  2.9524
 8420TIP3   OH249454   2.276   1.871   4.215  0.1804  0.1960  0.1518
 8420TIP3    H149455   2.316   1.958   4.205  0.4777  0.2755  1.6957
 8420TIP3    H249456   2.207   1.869   4.149  2.1598  0.3745 -2.0338
 8421TIP3   OH249457   7.026   6.125   4.963  0.1184  0.1134 -0.2069
 8421TIP3    H149458   7.121   6.108   4.966  0.4522  1.5691 -1.2023
 8421TIP3    H249459   7.019   6.209   4.917 -1.5316  1.2484  1.9522
 8422TIP3   OH249460   1.113   0.470   5.100  0.2275 -0.1036  0.1595
 8422TIP3    H149461   1.132   0.558   5.134 -0.2409  0.6086 -1.3245
 8422TIP3    H249462   1.147   0.411   5.167 -0.4536  1.1977  1.7380
 8423TIP3   OH249463   0.972   2.041   2.569 -0.2179 -0.0998 -0.1552
 8423TIP3    H149464   0.960   2.133   2.591  0.6303 -0.2626  1.0839
 8423TIP3    H249465   0.921   1.994   2.635 -0.4593 -0.5278 -0.6408
 8424TIP3   OH249466   1.157   1.558   5.426 -0.1152  0.0667  0.4477
 8424TIP3    H149467   1.062   1.571   5.421 -0.0668 -0.0487 -2.2426
 8424TIP3    H249468   1.194   1.631   5.377  0.8683 -2.2050 -2.5050
 8425TIP3   OH249469   7.047   7.444   4.355  0.3820 -0.3907  0.2681
 8425TIP3    H149470   7.100   7.402   4.423  0.5307 -0.4221  0.1344
 8425TIP3    H249471   7.095   7.524   4.334 -0.0796  0.0290  0.7697
 8426TIP3   OH249472   6.848   5.277   3.549  0.5865  0.0102  0.4409
 8426TIP3    H149473   6.781   5.326   3.502  0.8619  1.0005  1.0620
 8426TIP3    H249474   6.802   5.198   3.580  0.2434 -0.3342 -0.8835
 8427TIP3   OH249475   5.500   3.156   3.340 -0.1558 -0.0005 -0.0867
 8427TIP3    H149476   5.590   3.124   3.334 -0.5085 -0.7580 -2.5256
 8427TIP3    H249477   5.509   3.246   3.369  1.3637 -0.1919  0.1395
 8428TIP3   OH249478   1.465   1.133   4.461  0.3957 -0.3386 -0.3155
 8428TIP3    H149479   1.437   1.149   4.371 -0.4730  2.7244  0.3764
 8428TIP3    H249480   1.512   1.050   4.457  0.5511 -0.2267 -3.6050
 8429TIP3   OH249481   7.106   4.751   4.553  0.9139 -0.2323  0.4589
 8429TIP3    H149482   7.158   4.734   4.632  1.2021 -1.1683  0.0811
 8429TIP3    H249483   7.165   4.728   4.481  0.7010  0.7530 -0.0382
 8430TIP3   OH249484   3.312   6.949   3.635 -0.0554  0.0454 -0.5097
 8430TIP3    H149485   3.307   7.012   3.562 -2.2045  0.4338 -0.1159
 8430TIP3    H249486   3.312   7.004   3.713  2.0142 -0.3799 -0.1602
 8431TIP3   OH249487   0.751   1.861   3.935  0.2729  0.2450 -0.6533
 8431TIP3    H149488   0.735   1.954   3.921 -0.8546 -0.1487 -2.2765
 8431TIP3    H249489   0.817   1.838   3.870 -0.8409 -0.4482 -1.5890
 8432TIP3   OH249490   3.621   0.850   2.627 -0.6780 -0.0991 -0.3164
 8432TIP3    H149491   3.548   0.900   2.664 -0.0436  0.0639  0.7494
 8432TIP3    H249492   3.590   0.759   2.628 -1.6439  0.1842 -1.8063
 8433TIP3   OH249493   5.415   3.997   4.058 -0.1646  0.0380  0.7821
 8433TIP3    H149494   5.352   4.019   4.127 -0.8482  0.5525  0.0260
 8433TIP3    H249495   5.386   4.049   3.983  0.3493 -0.7632  0.0075
 8434TIP3   OH249496   3.974   6.959   2.734 -0.0572  0.5795 -0.1473
 8434TIP3    H149497   3.939   6.920   2.815  1.5716  1.2313  0.9124
 8434TIP3    H249498   3.920   7.037   2.720  0.3383  1.0550  0.9223
 8435TIP3   OH249499   2.199   7.092   3.758 -0.4030 -0.0776  0.1485
 8435TIP3    H149500   2.150   7.061   3.834  0.0644  0.2821  0.6124
 8435TIP3    H249501   2.203   7.187   3.770  1.0793 -0.1622  0.5573
 8436TIP3   OH249502   1.643   5.151   4.549  0.2195 -0.5827 -0.3632
 8436TIP3    H149503   1.639   5.181   4.640 -0.3395 -0.9294 -0.2689
 8436TIP3    H249504   1.737   5.146   4.529  0.3851 -1.7884  0.6285
 8437TIP3   OH249505   5.299   6.590   2.814 -0.2000 -1.0983  0.7293
 8437TIP3    H149506   5.342   6.507   2.792 -0.0474 -0.8146 -0.0624
 8437TIP3    H249507   5.208   6.579   2.786  0.2689 -0.2979 -1.2712
 8438TIP3   OH249508   6.791   4.500   4.198  0.4540 -0.3902  0.1158
 8438TIP3    H149509   6.802   4.427   4.138 -0.7480 -0.9585  0.5513
 8438TIP3    H249510   6.715   4.476   4.252  1.5713  0.0068  1.9743
 8439TIP3   OH249511   0.887   2.293   2.642  1.0932 -0.5388 -0.0505
 8439TIP3    H149512   0.904   2.371   2.695  1.5472 -0.4426 -0.3283
 8439TIP3    H249513   0.809   2.315   2.591  0.7643 -0.5645  0.4458
 8440TIP3   OH249514   6.192   3.511   3.281 -0.4768 -0.1656  0.1196
 8440TIP3    H149515   6.156   3.583   3.334  0.8434 -1.7216  3.4527
 8440TIP3    H249516   6.276   3.490   3.324 -0.5162 -3.2475 -1.0814
 8441TIP3   OH249517   2.069   1.801   4.046  0.1131  0.5001  0.0277
 8441TIP3    H149518   2.082   1.761   3.960 -0.7772  1.0398 -0.3681
 8441TIP3    H249519   2.037   1.729   4.101 -0.2265  0.3655 -0.3390
 8442TIP3   OH249520   2.060   5.597   2.110  0.6978  0.2926 -0.3184
 8442TIP3    H149521   2.027   5.522   2.159 -1.1545 -0.4076 -2.4858
 8442TIP3    H249522   2.150   5.573   2.088  1.1260  0.0647  1.5037
 8443TIP3   OH249523   4.250   5.537   3.222 -0.2975  0.1429  1.0337
 8443TIP3    H149524   4.197   5.481   3.165  1.3212  0.2022 -0.6220
 8443TIP3    H249525   4.234   5.504   3.310 -0.8691 -1.6796  0.2952
 8444TIP3   OH249526   1.671   1.249   3.361  0.0825 -0.4927  0.4695
 8444TIP3    H149527   1.593   1.280   3.314  0.4303 -1.3161 -0.6905
 8444TIP3    H249528   1.713   1.330   3.393  0.5672  0.2502 -1.8424
 8445TIP3   OH249529   5.444   1.355   3.853  0.1571 -0.2740  0.0333
 8445TIP3    H149530   5.382   1.324   3.920 -0.1391  0.4175  0.0852
 8445TIP3    H249531   5.512   1.288   3.852  0.9286  0.3845  2.0528
 8446TIP3   OH249532   0.484   5.106   2.193 -0.6169  0.7651  0.0134
 8446TIP3    H149533   0.512   5.173   2.255  0.1768  1.4158 -1.0369
 8446TIP3    H249534   0.397   5.079   2.225 -0.1558  0.9526  1.5000
 8447TIP3   OH249535   6.650   3.431   3.213  0.1461  0.2092  0.3679
 8447TIP3    H149536   6.738   3.466   3.203  0.5984 -0.9655  0.0221
 8447TIP3    H249537   6.598   3.504   3.246  0.8360  1.4446 -1.1670
 8448TIP3   OH249538   7.660   2.107   4.767  0.4943 -0.5286  0.2195
 8448TIP3    H149539   7.628   2.168   4.701  0.6616 -1.7555 -1.0421
 8448TIP3    H249540   7.754   2.098   4.748  0.6513 -0.5141  0.9458
 8449TIP3   OH249541   3.061   2.127   2.989  0.1216 -0.0225  0.1586
 8449TIP3    H149542   3.019   2.041   2.986 -1.0816  0.4457  1.9603
 8449TIP3    H249543   3.128   2.123   2.921 -0.5590 -2.0257 -0.4733
 8450TIP3   OH249544   1.985   3.978   2.916 -0.1642  0.3018  0.2461
 8450TIP3    H149545   1.904   3.964   2.867  0.7833  0.6800 -1.5073
 8450TIP3    H249546   2.020   4.060   2.881  0.9426  0.1823  1.0205
 8451TIP3   OH249547   3.883   5.890   3.563 -0.7673 -0.3764 -0.1898
 8451TIP3    H149548   3.953   5.901   3.628 -0.5983  0.5806 -0.5179
 8451TIP3    H249549   3.878   5.796   3.548  0.3893 -0.4628 -0.0896
 8452TIP3   OH249550   1.957   3.351   1.788  0.0214  0.0475  0.0159
 8452TIP3    H149551   2.024   3.297   1.830  0.3736  0.2100 -0.3313
 8452TIP3    H249552   1.875   3.324   1.829  0.3015 -0.1396  0.4588
 8453TIP3   OH249553   4.109   3.668   3.618 -0.1357 -0.3683 -0.4952
 8453TIP3    H149554   4.026   3.705   3.589 -0.1162 -0.5773 -0.8261
 8453TIP3    H249555   4.176   3.711   3.564 -0.2193 -1.8654 -1.9080
 8454TIP3   OH249556   1.893   6.528   3.225 -0.4850  0.2807 -0.0794
 8454TIP3    H149557   1.863   6.482   3.146  3.7736  0.1110 -1.8484
 8454TIP3    H249558   1.954   6.467   3.267 -1.9605  0.7242  3.0109
 8455TIP3   OH249559   3.225   0.776   4.177  0.4388 -0.0449 -0.1943
 8455TIP3    H149560   3.173   0.696   4.165 -1.3760  1.1499 -0.7002
 8455TIP3    H249561   3.189   0.816   4.257 -0.1248  1.2960 -1.0884
 8456TIP3   OH249562   0.862   0.531   2.694  0.2252  0.3337  0.2089
 8456TIP3    H149563   0.940   0.573   2.659  0.0078 -0.5986 -1.4724
 8456TIP3    H249564   0.879   0.437   2.686 -1.0100  0.1133 -0.0804
 8457TIP3   OH249565   2.730   3.505   2.131  0.4858  0.1214  0.1964
 8457TIP3    H149566   2.694   3.536   2.048  1.3775 -0.1417 -0.2957
 8457TIP3    H249567   2.777   3.425   2.108  0.4797 -0.1203  1.0105
 8458TIP3   OH249568   0.280   0.440   4.064 -0.5412 -0.0769  0.4394
 8458TIP3    H149569   0.229   0.426   3.984  0.8055  1.0811 -0.6999
 8458TIP3    H249570   0.347   0.372   4.062 -2.3670 -2.0452  2.3057
 8459TIP3   OH249571   6.103   6.692   2.343 -0.4007 -0.3030  0.4090
 8459TIP3    H149572   6.025   6.640   2.321 -0.5556  0.2695 -0.4786
 8459TIP3    H249573   6.167   6.628   2.375 -0.7940 -0.9528 -0.0782
 8460TIP3   OH249574   6.009   6.625   4.178 -0.4029  0.2682  0.2219
 8460TIP3    H149575   6.069   6.605   4.106 -0.2670  0.9181  0.1467
 8460TIP3    H249576   5.922   6.605   4.143 -0.2255 -1.0005  0.4442
 8461TIP3   OH249577   0.955   1.314   2.528  0.1331  0.3783 -0.6723
 8461TIP3    H149578   0.871   1.335   2.569  0.7929  2.1522 -0.1201
 8461TIP3    H249579   0.984   1.397   2.490  0.3952 -0.7804 -3.2607
 8462TIP3   OH249580   2.299   6.224   3.156 -0.5918  0.3318 -0.1113
 8462TIP3    H149581   2.348   6.151   3.195 -0.7835 -0.4517 -1.2631
 8462TIP3    H249582   2.211   6.188   3.141 -0.4821  0.5553 -1.3570
 8463TIP3   OH249583   4.680   6.621   3.092  0.2218 -0.3231  0.5191
 8463TIP3    H149584   4.699   6.557   3.024  0.4804 -1.7961  1.9122
 8463TIP3    H249585   4.591   6.652   3.073 -0.2398 -1.7429  0.2914
 8464TIP3   OH249586   5.731   1.740   2.112 -0.6401 -0.1775 -0.3941
 8464TIP3    H149587   5.660   1.712   2.168 -1.0330  1.7933  0.1736
 8464TIP3    H249588   5.711   1.831   2.091  1.5825  0.3671 -0.4130
 8465TIP3   OH249589   6.746   3.644   3.474  0.2160 -0.0398  0.1866
 8465TIP3    H149590   6.819   3.605   3.522 -0.4805  1.2001  2.3760
 8465TIP3    H249591   6.785   3.720   3.429  0.2933  0.7325  1.5015
 8466TIP3   OH249592   6.932   1.381   2.952  0.1219  0.0410 -0.4919
 8466TIP3    H149593   6.968   1.464   2.921  0.3780  0.5392  1.0672
 8466TIP3    H249594   7.006   1.338   2.996 -1.0429  1.0570  2.7241
 8467TIP3   OH249595   5.389   5.915   4.710 -0.0100  0.1175  0.2130
 8467TIP3    H149596   5.340   5.833   4.704 -0.1423  0.2114 -0.0198
 8467TIP3    H249597   5.428   5.926   4.624 -1.8891  1.4636 -0.5463
 8468TIP3   OH249598   4.059   4.788   2.687 -0.0204 -1.2366  0.2255
 8468TIP3    H149599   4.025   4.800   2.775 -1.9412 -0.2123 -0.6015
 8468TIP3    H249600   4.109   4.868   2.670 -0.8765 -0.7561 -0.1113
 8469TIP3   OH249601   5.249   5.094   3.887 -0.4808  0.7544  0.2191
 8469TIP3    H149602   5.235   5.084   3.793  0.4663 -0.6138  0.1843
 8469TIP3    H249603   5.341   5.068   3.900 -1.5236 -2.6583  1.9515
 8470TIP3   OH249604   3.616   0.047   3.972  0.2757  0.2893 -0.1748
 8470TIP3    H149605   3.623   0.118   4.037 -1.2012 -0.1802  0.5464
 8470TIP3    H249606   3.530   0.060   3.932  0.8966  0.1694 -1.5953
 8471TIP3   OH249607   3.422   5.148   2.747  0.1898  0.2134  0.6065
 8471TIP3    H149608   3.333   5.151   2.713  0.5579 -0.2643 -0.4334
 8471TIP3    H249609   3.412   5.158   2.842 -1.0016 -0.3818  0.5582
 8472TIP3   OH249610   4.781   1.072   2.358 -0.0855  0.7592 -0.1689
 8472TIP3    H149611   4.742   1.138   2.415 -1.6085 -0.6076  0.4331
 8472TIP3    H249612   4.711   1.009   2.342  2.0197 -2.2563  1.6128
 8473TIP3   OH249613   1.288   4.919   4.763 -0.6421 -0.7959  0.3245
 8473TIP3    H149614   1.342   4.940   4.839 -0.6347  0.4805 -0.0275
 8473TIP3    H249615   1.210   4.973   4.773  0.3079  1.0607 -1.6868
 8474TIP3   OH249616   6.555   0.980   2.840 -0.2736 -0.3596 -0.4639
 8474TIP3    H149617   6.607   1.002   2.763 -1.8312  0.9206 -1.2067
 8474TIP3    H249618   6.486   0.922   2.807 -1.1751  0.4983 -0.1429
 8475TIP3   OH249619   1.599   0.995   5.024  0.1588  0.4386 -0.5472
 8475TIP3    H149620   1.519   1.035   4.990  1.3086  2.8147 -0.7086
 8475TIP3    H249621   1.669   1.049   4.989  2.0700 -2.7127 -2.0177
 8476TIP3   OH249622   5.440   3.221   2.837  0.0385 -0.2275  0.8218
 8476TIP3    H149623   5.439   3.128   2.859 -0.0047 -0.5363 -0.3672
 8476TIP3    H249624   5.441   3.266   2.921  0.2001 -1.3033  1.4189
 8477TIP3   OH249625   5.990   5.778   4.375  1.1741 -0.2930 -0.0632
 8477TIP3    H149626   5.915   5.717   4.375  0.9852 -0.0724  0.9611
 8477TIP3    H249627   5.967   5.844   4.440  2.2202 -0.1607  0.1843
 8478TIP3   OH249628   2.830   5.595   4.830  0.0965 -0.2655  0.2559
 8478TIP3    H149629   2.857   5.651   4.757  2.1488 -0.7830  0.5389
 8478TIP3    H249630   2.790   5.519   4.788  0.2394 -0.0465 -0.2876
 8479TIP3   OH249631   5.696   3.385   3.050 -0.5951 -0.4904 -0.4649
 8479TIP3    H149632   5.737   3.299   3.055  1.6834  0.5432 -0.3385
 8479TIP3    H249633   5.695   3.406   2.957 -3.7532 -1.7297 -0.8607
 8480TIP3   OH249634   1.370   2.491   4.920 -0.0255  0.2044  1.0334
 8480TIP3    H149635   1.438   2.549   4.956 -1.5820  2.4896  0.4906
 8480TIP3    H249636   1.371   2.415   4.978  3.7065 -0.4233  0.4154
 8481TIP3   OH249637   7.265   6.691   3.744  0.0509 -0.4556  0.0795
 8481TIP3    H149638   7.226   6.673   3.659 -0.8038 -0.9984  0.5649
 8481TIP3    H249639   7.216   6.766   3.779 -0.7712 -1.2964  0.7979
 8482TIP3   OH249640   0.716   0.916   4.094  0.2136 -0.2749 -0.1981
 8482TIP3    H149641   0.699   0.823   4.081  1.5583 -0.6029  0.1766
 8482TIP3    H249642   0.705   0.930   4.188 -2.1359  0.4581 -0.5202
 8483TIP3   OH249643   2.140   1.138   2.586 -0.1959  0.0330  0.0115
 8483TIP3    H149644   2.219   1.085   2.581 -1.2337 -1.5260 -0.7055
 8483TIP3    H249645   2.069   1.075   2.595 -1.3304  1.4207  1.2465
 8484TIP3   OH249646   4.978   4.238   2.602  0.1945 -0.4951  0.2751
 8484TIP3    H149647   4.882   4.246   2.610  0.3442 -0.2565  2.4098
 8484TIP3    H249648   4.998   4.155   2.645  0.8231 -1.4711 -1.7825
 8485TIP3   OH249649   7.276   0.956   4.121  0.1109 -0.1021  0.3076
 8485TIP3    H149650   7.369   0.945   4.142  0.0743 -0.2195  0.4171
 8485TIP3    H249651   7.252   0.874   4.077 -0.3348 -0.7697  1.7414
 8486TIP3   OH249652   6.031   6.284   3.367  0.0075 -0.2973  0.7817
 8486TIP3    H149653   6.088   6.320   3.299 -0.0418  0.9975  1.3945
 8486TIP3    H249654   6.021   6.191   3.344  2.7811 -0.7191  0.9321
 8487TIP3   OH249655   0.900   4.219   2.424  0.1009 -0.3138  0.1431
 8487TIP3    H149656   0.857   4.304   2.433 -1.4262 -1.2212  2.3492
 8487TIP3    H249657   0.862   4.182   2.345 -1.2216  0.0196  0.5880
 8488TIP3   OH249658   6.384   5.163   3.682  0.8533  0.4354 -0.1776
 8488TIP3    H149659   6.443   5.196   3.750  1.3218  1.1256 -0.9035
 8488TIP3    H249660   6.388   5.229   3.613 -1.1887  0.7635 -0.0313
 8489TIP3   OH249661   2.258   3.234   4.008  0.0979 -0.3927  0.1626
 8489TIP3    H149662   2.233   3.159   3.956 -3.1728  0.6410  0.0277
 8489TIP3    H249663   2.264   3.201   4.098  2.0001 -1.3913 -0.2742
 8490TIP3   OH249664   2.779   2.772   4.553 -0.9458 -0.4672 -0.6762
 8490TIP3    H149665   2.747   2.697   4.603 -0.6680  1.2972  2.4631
 8490TIP3    H249666   2.836   2.819   4.615 -0.0031  1.5915 -2.9384
 8491TIP3   OH249667   0.578   2.370   4.374  0.0737 -0.0899 -0.5797
 8491TIP3    H149668   0.547   2.362   4.284 -2.8755 -1.6512  0.4319
 8491TIP3    H249669   0.591   2.279   4.403  1.5234  0.4045  0.4337
 8492TIP3   OH249670   1.625   2.861   3.495 -0.1963 -0.3261  0.3990
 8492TIP3    H149671   1.666   2.941   3.461 -1.6031 -0.3585 -1.5569
 8492TIP3    H249672   1.645   2.861   3.589  1.0007  1.5860  0.1885
 8493TIP3   OH249673   1.009   4.804   3.934  0.2794 -0.2796  0.4659
 8493TIP3    H149674   1.066   4.878   3.951  0.7333 -0.1687 -1.3587
 8493TIP3    H249675   1.066   4.727   3.939  0.4984 -0.2177 -0.7718
 8494TIP3   OH249676   3.859   3.165   3.826  0.3206  0.3594  0.4368
 8494TIP3    H149677   3.931   3.221   3.798  1.7170 -1.1061  0.9778
 8494TIP3    H249678   3.811   3.217   3.890  0.2206  1.7500 -0.7128
 8495TIP3   OH249679   1.158   0.147   2.599  0.6641  0.2244  0.6335
 8495TIP3    H149680   1.234   0.138   2.657  1.1706 -0.5625 -0.1397
 8495TIP3    H249681   1.194   0.178   2.516  0.1561 -0.2217  0.2345
 8496TIP3   OH249682   4.260   2.553   2.110 -0.9436  0.9853  0.6459
 8496TIP3    H149683   4.290   2.589   2.027 -1.0386  1.8843  0.9988
 8496TIP3    H249684   4.214   2.472   2.086  0.0614  0.6029 -0.0642
 8497TIP3   OH249685   1.657   4.344   4.540  0.5461  0.1953 -0.0300
 8497TIP3    H149686   1.666   4.249   4.551  0.6238 -0.0439 -1.9100
 8497TIP3    H249687   1.564   4.357   4.521  0.3604  0.6162  1.0951
 8498TIP3   OH249688   7.077   4.452   4.259  0.3900 -0.1040  0.2817
 8498TIP3    H149689   6.985   4.476   4.257  0.5216  0.3986  0.1667
 8498TIP3    H249690   7.079   4.361   4.229  0.0788  0.3567 -1.2142
 8499TIP3   OH249691   6.954   0.122   2.956  0.2943 -0.1799 -0.2559
 8499TIP3    H149692   6.880   0.180   2.975  0.0997 -0.5456  0.1145
 8499TIP3    H249693   6.973   0.138   2.863 -1.1629 -1.0836 -0.7528
 8500TIP3   OH249694   4.660   6.611   4.445  0.0075  0.2324  0.6838
 8500TIP3    H149695   4.685   6.520   4.459 -0.2310  0.0175 -0.1939
 8500TIP3    H249696   4.639   6.645   4.532  2.5053  0.2013  1.3478
 8501TIP3   OH249697   2.291   1.323   2.484 -0.7620 -0.2072  0.5544
 8501TIP3    H149698   2.324   1.282   2.405 -0.8702 -0.3802  0.5982
 8501TIP3    H249699   2.232   1.258   2.522 -0.5568 -0.2058  0.8834
 8502TIP3   OH249700   7.184   6.655   3.459 -0.3111  0.0934  0.4078
 8502TIP3    H149701   7.207   6.570   3.423  0.0404  0.2450  0.2668
 8502TIP3    H249702   7.264   6.707   3.449 -0.3048  0.2240  1.1429
 8503TIP3   OH249703   6.738   1.189   3.016  0.1814 -0.2217  0.9839
 8503TIP3    H149704   6.799   1.252   2.977  0.3321 -0.8226  0.2342
 8503TIP3    H249705   6.653   1.212   2.978  0.0606  0.1223  1.4412
 8504TIP3   OH249706   6.006   6.753   4.417  0.0572 -0.4973  0.1849
 8504TIP3    H149707   6.035   6.685   4.479 -0.9120 -2.0858 -1.0250
 8504TIP3    H249708   5.980   6.704   4.339 -0.8354  1.2846 -0.6820
 8505TIP3   OH249709   1.837   0.713   2.823  0.3927  0.0429  0.0562
 8505TIP3    H149710   1.802   0.629   2.849  0.9092  0.3080  1.7037
 8505TIP3    H249711   1.766   0.775   2.836  0.5468  0.1251  0.5035
 8506TIP3   OH249712   1.786   5.679   2.691 -0.0082 -0.5058 -0.0039
 8506TIP3    H149713   1.850   5.634   2.636  0.4138  0.3709 -0.2560
 8506TIP3    H249714   1.734   5.730   2.629 -0.5158 -0.6907  0.2686
 8507TIP3   OH249715   4.629   2.205   2.867 -0.1167 -0.2904 -0.5170
 8507TIP3    H149716   4.601   2.133   2.924 -0.2854 -0.2898 -0.5978
 8507TIP3    H249717   4.696   2.167   2.810  0.3131 -0.1995 -0.0784
 8508TIP3   OH249718   6.339   2.287   3.386 -0.4808 -0.4977  0.1395
 8508TIP3    H149719   6.260   2.328   3.422 -0.8082  0.3398 -1.4671
 8508TIP3    H249720   6.316   2.194   3.379 -1.0078 -0.3999  0.4993
 8509TIP3   OH249721   1.714   5.816   4.257 -0.3064 -0.5566  0.2668
 8509TIP3    H149722   1.654   5.891   4.253  0.1793 -0.0160  2.2374
 8509TIP3    H249723   1.656   5.740   4.256 -0.8263 -0.1922 -1.4111
 8510TIP3   OH249724   6.255   6.338   4.077 -0.0088  0.5217 -0.2393
 8510TIP3    H149725   6.181   6.318   4.018  0.2632  0.7941 -0.6725
 8510TIP3    H249726   6.226   6.304   4.162  0.0720 -0.9629 -0.7643
 8511TIP3   OH249727   1.267   5.571   3.902  0.0662 -0.1711 -0.1705
 8511TIP3    H149728   1.176   5.547   3.919  0.1392 -0.4261 -0.1341
 8511TIP3    H249729   1.283   5.647   3.957  0.2117 -0.8058  0.6901
 8512TIP3   OH249730   4.897   6.001   2.220  0.1841 -0.9297 -0.1236
 8512TIP3    H149731   4.810   6.037   2.205  0.7982 -0.0878 -2.0202
 8512TIP3    H249732   4.908   6.003   2.315 -1.4276 -0.0032  0.0765
 8513TIP3   OH249733   3.892   5.965   4.557  0.1290 -0.4053 -0.1959
 8513TIP3    H149734   3.889   5.888   4.613  0.9183 -0.9000 -0.8166
 8513TIP3    H249735   3.973   6.010   4.582  0.0221 -0.1441 -0.3129
 8514TIP3   OH249736   5.037   0.054   1.990  0.2552  0.2560 -0.0506
 8514TIP3    H149737   4.946   0.037   2.017  0.8959  0.8394  2.8037
 8514TIP3    H249738   5.040   0.148   1.973 -0.0684 -0.0618 -2.0405
 8515TIP3   OH249739   3.635   7.330   3.110  0.3843 -0.4311 -0.1039
 8515TIP3    H149740   3.697   7.331   3.183 -0.7869  0.0941  0.9193
 8515TIP3    H249741   3.626   7.422   3.085 -0.7540 -0.3831  0.4469
 8516TIP3   OH249742   2.154   0.136   2.224  0.5269 -0.4765  0.0956
 8516TIP3    H149743   2.224   0.074   2.240  0.6559 -0.1188  0.9828
 8516TIP3    H249744   2.075   0.083   2.214  0.8120 -0.8370 -0.2441
 8517TIP3   OH249745   6.787   5.942   4.190 -0.9191  0.1115 -0.2163
 8517TIP3    H149746   6.764   5.957   4.098 -2.3786 -1.5050 -0.1711
 8517TIP3    H249747   6.779   5.848   4.201 -1.8742  0.3849  1.8442
 8518TIP3   OH249748   4.496   5.694   4.363  0.4315 -0.0161 -0.0133
 8518TIP3    H149749   4.443   5.634   4.415  0.7104 -0.2428  0.0129
 8518TIP3    H249750   4.442   5.773   4.355 -0.1153 -0.4191 -0.4012
 8519TIP3   OH249751   2.127   6.726   4.095 -0.1542  0.4438  0.3159
 8519TIP3    H149752   2.121   6.781   4.016  1.7515  0.2488 -0.0006
 8519TIP3    H249753   2.075   6.648   4.073 -0.4404  0.8166 -0.3778
 8520TIP3   OH249754   1.709   1.616   4.904 -0.5646  0.2019 -0.1956
 8520TIP3    H149755   1.725   1.710   4.890 -0.3186  0.0073 -1.3010
 8520TIP3    H249756   1.706   1.579   4.816  1.1377 -1.1280  0.2491
 8521TIP3   OH249757   4.227   0.916   2.112  0.0621 -0.2588  0.3658
 8521TIP3    H149758   4.209   0.822   2.099 -0.2765 -0.0362 -0.8947
 8521TIP3    H249759   4.305   0.933   2.058 -0.4884  0.3881 -0.2511
 8522TIP3   OH249760   0.749   3.574   2.920 -0.4366  0.5165 -0.6790
 8522TIP3    H149761   0.709   3.500   2.966  0.3548  1.5543  1.9158
 8522TIP3    H249762   0.839   3.544   2.901 -0.7253  0.1308 -1.4761
 8523TIP3   OH249763   4.068   3.921   3.184  0.1498  0.3923  0.3240
 8523TIP3    H149764   4.056   3.843   3.239  2.4863  0.0857  0.4949
 8523TIP3    H249765   4.112   3.984   3.240 -1.4067  1.7746  0.0740
 8524TIP3   OH249766   2.112   3.822   2.229 -0.2574  0.1602  0.5553
 8524TIP3    H149767   2.189   3.879   2.234  0.8110 -1.2568  1.0069
 8524TIP3    H249768   2.088   3.807   2.321 -0.0295 -0.7448  0.4721
 8525TIP3   OH249769   0.542   0.143   5.039 -0.8034 -0.2099  0.0756
 8525TIP3    H149770   0.505   0.084   4.974 -1.0727 -0.9795  0.9047
 8525TIP3    H249771   0.579   0.215   4.988 -1.6639 -0.4197 -0.8840
 8526TIP3   OH249772   0.960   0.127   3.535 -0.4285 -0.2585  0.1498
 8526TIP3    H149773   0.956   0.161   3.446 -0.5701 -1.0263 -0.1422
 8526TIP3    H249774   1.025   0.182   3.579  0.4737 -0.5834 -0.7376
 8527TIP3   OH249775   4.064   0.742   3.495  0.2115  0.0787 -0.6561
 8527TIP3    H149776   4.042   0.650   3.477 -0.0866  0.1012 -0.4066
 8527TIP3    H249777   4.098   0.742   3.584  0.2972  0.1991 -0.6880
 8528TIP3   OH249778   2.233   4.513   2.253  0.3589 -0.2424  0.2129
 8528TIP3    H149779   2.312   4.486   2.205  0.8500 -0.4833  1.1293
 8528TIP3    H249780   2.169   4.534   2.185  0.5003 -2.1300 -0.5482
 8529TIP3   OH249781   7.110   3.256   2.926 -0.3994  0.4672 -0.1063
 8529TIP3    H149782   7.132   3.205   3.004  1.9332  1.6199  0.0859
 8529TIP3    H249783   7.038   3.208   2.885  0.2540 -1.7703  1.1904
 8530TIP3   OH249784   5.349   2.234   3.156 -0.0203 -0.4328 -0.0430
 8530TIP3    H149785   5.436   2.200   3.133  0.4421 -0.8488  2.1624
 8530TIP3    H249786   5.311   2.168   3.214 -1.0097  0.6600  0.6067
 8531TIP3   OH249787   6.494   7.145   4.014  0.2755  0.0888 -0.6793
 8531TIP3    H149788   6.527   7.234   4.027 -0.3274  0.3649 -0.9726
 8531TIP3    H249789   6.548   7.109   3.943 -0.0257  0.5303 -1.1432
 8532TIP3   OH249790   2.758   0.447   4.460 -0.4287 -0.0940  0.3007
 8532TIP3    H149791   2.725   0.363   4.429 -1.7045  0.3672  0.3482
 8532TIP3    H249792   2.729   0.452   4.551  1.4154 -0.4859  0.9421
 8533TIP3   OH249793   0.610   5.227   4.605  0.0040  0.9539 -0.1292
 8533TIP3    H149794   0.570   5.140   4.602 -0.0041  0.9848 -2.1053
 8533TIP3    H249795   0.549   5.279   4.658 -1.6482  0.5156 -1.4804
 8534TIP3   OH249796   5.585   6.940   3.088 -0.4099 -0.4566  0.2062
 8534TIP3    H149797   5.664   6.993   3.096 -0.1980 -0.3492 -2.0866
 8534TIP3    H249798   5.513   7.000   3.107 -0.0017 -0.5322  2.2094
 8535TIP3   OH249799   2.547   1.691   3.992 -0.6180 -0.3938  0.6970
 8535TIP3    H149800   2.611   1.751   4.030  2.4913 -1.1661 -2.7335
 8535TIP3    H249801   2.478   1.748   3.958 -0.0719  0.8087  1.5267
 8536TIP3   OH249802   6.438   6.322   3.445  0.0915  0.2413  0.0539
 8536TIP3    H149803   6.517   6.290   3.401  0.0502 -1.7989  1.3148
 8536TIP3    H249804   6.471   6.363   3.526 -0.0854  0.1760  0.1596
 8537TIP3   OH249805   4.326   6.694   3.423  0.1394  0.0991  0.1818
 8537TIP3    H149806   4.416   6.682   3.392  0.2822  0.1852  0.5541
 8537TIP3    H249807   4.328   6.665   3.514 -0.6008 -1.4779 -0.2687
 8538TIP3   OH249808   3.205   5.975   2.774  0.1713  0.7850  0.4426
 8538TIP3    H149809   3.145   5.977   2.700  1.5822 -0.2482 -0.7860
 8538TIP3    H249810   3.172   5.904   2.830 -0.0318  0.5614  0.0396
 8539TIP3   OH249811   5.649   4.705   3.891  0.2733 -0.4447 -0.2555
 8539TIP3    H149812   5.678   4.760   3.819 -0.3038 -1.4754 -1.3084
 8539TIP3    H249813   5.554   4.712   3.890  0.2740 -0.1073  0.7160
 8540TIP3   OH249814   4.039   0.112   2.787  0.2542  0.2460 -0.0292
 8540TIP3    H149815   4.052   0.034   2.841 -0.3206  0.9360  1.1349
 8540TIP3    H249816   4.104   0.104   2.718  1.0323 -0.6467  0.7805
 8541TIP3   OH249817   4.235   6.721   2.400  0.4947  0.6226 -0.2251
 8541TIP3    H149818   4.183   6.747   2.324  0.5565  0.4506 -0.3253
 8541TIP3    H249819   4.172   6.715   2.471  0.3539  0.2861 -0.3750
 8542TIP3   OH249820   7.531   0.063   5.224  0.2326  0.0834  0.8945
 8542TIP3    H149821   7.508   0.068   5.131  0.2085  0.5270  0.9230
 8542TIP3    H249822   7.608   0.119   5.232 -0.7099  1.3220  1.4421
 8543TIP3   OH249823   5.418   6.360   3.950 -0.4024  0.2311 -1.0304
 8543TIP3    H149824   5.439   6.453   3.941  3.0010 -0.4015 -1.0192
 8543TIP3    H249825   5.455   6.320   3.872 -0.0071 -1.3418 -0.0719
 8544TIP3   OH249826   4.002   2.612   3.145 -0.6159 -0.4638  0.0544
 8544TIP3    H149827   4.078   2.569   3.184 -0.8279  0.8740  2.0251
 8544TIP3    H249828   3.941   2.540   3.127  0.2959 -1.3192  0.2952
 8545TIP3   OH249829   6.890   7.363   2.805 -0.2039  0.2495  0.3912
 8545TIP3    H149830   6.867   7.395   2.892 -0.5161  1.9766 -0.2983
 8545TIP3    H249831   6.840   7.418   2.745  1.1140  0.0468 -0.9436
 8546TIP3   OH249832   2.343   1.384   4.709  0.1630 -0.0968  0.0064
 8546TIP3    H149833   2.322   1.310   4.766  0.4112  0.5590  0.9852
 8546TIP3    H249834   2.286   1.373   4.633  0.5866 -1.5801 -0.1167
 8547TIP3   OH249835   3.576   1.212   2.552 -0.1801  0.0958  0.1721
 8547TIP3    H149836   3.599   1.211   2.645 -0.1080  0.6723  0.1597
 8547TIP3    H249837   3.660   1.217   2.506 -0.2776  1.4089  0.1115
 8548TIP3   OH249838   5.484   6.827   4.673  0.0100  0.0454  0.0380
 8548TIP3    H149839   5.541   6.852   4.745 -0.6667 -0.0665  0.6161
 8548TIP3    H249840   5.398   6.816   4.712 -1.0452  2.8735 -1.2605
 8549TIP3   OH249841   5.194   0.370   2.305 -0.5051  0.1520 -0.3207
 8549TIP3    H149842   5.286   0.373   2.332 -0.5735 -1.1091  0.1075
 8549TIP3    H249843   5.193   0.416   2.221  0.3362  1.0214  0.1177
 8550TIP3   OH249844   2.210   4.636  10.238  0.1275  0.1190  0.1736
 8550TIP3    H149845   2.245   4.616  10.151  2.3358  0.6728  0.8750
 8550TIP3    H249846   2.169   4.722  10.229 -0.0870 -0.0431 -0.4292
 8551TIP3   OH249847   2.471   3.050   4.894 -0.2098 -0.5456  0.2556
 8551TIP3    H149848   2.530   3.006   4.955 -0.9989  1.5180  2.6659
 8551TIP3    H249849   2.384   3.035   4.931 -0.5714  2.1218  0.6302
 8552TIP3   OH249850   1.027   6.838   3.060  0.4616  0.4268 -0.6304
 8552TIP3    H149851   0.958   6.779   3.090  1.8986  0.1382  2.5374
 8552TIP3    H249852   0.980   6.919   3.038 -0.9515  0.3361  1.6695
 8553TIP3   OH249853   1.320   1.934   3.809  0.4385  0.3878  0.5355
 8553TIP3    H149854   1.414   1.940   3.795  0.2797 -1.4760 -2.0429
 8553TIP3    H249855   1.284   1.911   3.723 -2.1443 -0.9795  1.8479
 8554TIP3   OH249856   0.766   4.654   4.045  0.1236  0.3938 -0.0613
 8554TIP3    H149857   0.772   4.594   3.971 -0.9693  0.0500  0.1175
 8554TIP3    H249858   0.839   4.715   4.032  0.7686 -0.4720 -0.6797
 8555TIP3   OH249859   1.061   0.490   4.485 -0.0747  0.1964  0.1695
 8555TIP3    H149860   1.105   0.478   4.569 -0.7622 -1.6113  0.3202
 8555TIP3    H249861   0.974   0.452   4.498 -0.3438  0.2904 -1.2297
 8556TIP3   OH249862   4.126   7.057   4.187 -0.7251  0.0320 -0.3548
 8556TIP3    H149863   4.175   6.983   4.152  0.3360  0.3084  0.4705
 8556TIP3    H249864   4.042   7.020   4.214  0.0381 -1.0475  0.6771
 8557TIP3   OH249865   4.745   6.964   3.840 -0.4633 -0.0220 -0.0145
 8557TIP3    H149866   4.840   6.976   3.846 -0.2946 -0.3470 -1.6017
 8557TIP3    H249867   4.709   7.051   3.856 -0.0168 -0.1556  2.0761
 8558TIP3   OH249868   1.311   4.369   2.197 -0.1363  0.0233  0.2238
 8558TIP3    H149869   1.271   4.320   2.125  0.2905 -0.4757  0.3148
 8558TIP3    H249870   1.343   4.449   2.157  0.1170 -0.2610 -0.1479
 8559TIP3   OH249871   5.801   1.934   2.662 -0.4489 -0.1661 -0.0171
 8559TIP3    H149872   5.885   1.919   2.619  0.8363  1.1430  1.8679
 8559TIP3    H249873   5.762   1.847   2.669  2.0051 -1.2583  1.4655
 8560TIP3   OH249874   3.236   1.392   4.068  0.0013 -0.6615 -0.2637
 8560TIP3    H149875   3.209   1.350   4.150 -0.0577 -1.6665 -0.7855
 8560TIP3    H249876   3.325   1.422   4.084 -1.1794  2.4192  1.3802
 8561TIP3   OH249877   2.520   5.288   2.697  0.4573  0.3791  0.1530
 8561TIP3    H149878   2.497   5.196   2.709  0.3076  0.3523 -0.3270
 8561TIP3    H249879   2.487   5.332   2.775  1.8925 -0.2080  1.1351
 8562TIP3   OH249880   4.837   7.312  10.895  0.3433 -0.7727 -0.0204
 8562TIP3    H149881   4.777   7.380  10.926  1.1169 -0.7814  1.6182
 8562TIP3    H249882   4.784   7.233  10.893 -0.4933 -0.2328 -1.6780
 8563TIP3   OH249883   1.972   0.915   2.685 -0.3322 -0.4352  0.6433
 8563TIP3    H149884   2.023   0.841   2.651  0.5567  0.3509  0.1932
 8563TIP3    H249885   1.888   0.877   2.711 -0.2608 -1.4316 -0.4864
 8564TIP3   OH249886   2.000   7.115   3.074 -0.3092 -0.0936 -0.0382
 8564TIP3    H149887   1.927   7.152   3.125  0.4150  2.9450 -1.0188
 8564TIP3    H249888   1.957   7.056   3.012 -2.1948  2.4764 -1.3649
 8565TIP3   OH249889   6.185   6.031   3.967  0.4650 -0.4697  0.3691
 8565TIP3    H149890   6.116   6.096   3.957  1.1021  0.6749  2.5474
 8565TIP3    H249891   6.142   5.955   4.006  0.1451 -0.3690  0.2090
 8566TIP3   OH249892   3.266   5.475   3.455 -1.1403 -0.4577 -0.2051
 8566TIP3    H149893   3.213   5.548   3.487 -0.4526 -0.2841  0.5816
 8566TIP3    H249894   3.356   5.498   3.480 -0.8830 -1.4648 -0.1561
 8567TIP3   OH249895   0.821   5.157   4.012  0.1954  0.2214 -0.4890
 8567TIP3    H149896   0.762   5.231   4.001 -0.0975  0.0184 -0.2792
 8567TIP3    H249897   0.768   5.080   3.990 -0.7385 -0.3321  3.0996
 8568TIP3   OH249898   0.098   7.532   3.020  0.1283 -0.4823 -0.1758
 8568TIP3    H149899   0.026   7.469   3.011 -1.4619  1.3299 -0.7173
 8568TIP3    H249900   0.104   7.574   2.935  1.0467  0.2619  0.2345
 8569TIP3   OH249901   4.380   0.443   2.376 -0.2376 -0.6447  0.1521
 8569TIP3    H149902   4.465   0.457   2.416 -0.6546  0.8770  0.5630
 8569TIP3    H249903   4.330   0.394   2.441  0.2123 -1.2739  0.0308
 8570TIP3   OH249904   6.487   6.916   2.740  0.1747  0.1781  0.3269
 8570TIP3    H149905   6.415   6.898   2.801 -0.6312 -0.6485 -0.8181
 8570TIP3    H249906   6.455   6.885   2.656  1.9010 -0.2496 -0.2111
 8571TIP3   OH249907   1.070   2.607   2.657 -0.5094  0.1586 -0.3234
 8571TIP3    H149908   1.089   2.515   2.635 -1.9223 -0.8618  2.2840
 8571TIP3    H249909   1.137   2.657   2.612  0.6506 -2.2032 -1.3912
 8572TIP3   OH249910   0.308   4.577   2.436 -0.3413 -0.2459  0.1769
 8572TIP3    H149911   0.362   4.651   2.463  1.8386 -0.4541 -3.0763
 8572TIP3    H249912   0.368   4.504   2.429 -0.9227 -0.5611 -3.3226
 8573TIP3   OH249913   5.549   2.709   3.277 -0.2395  0.6844 -0.0225
 8573TIP3    H149914   5.629   2.664   3.251  0.1121  0.1217  1.8661
 8573TIP3    H249915   5.491   2.640   3.308 -0.9850  1.2139 -0.1970
 8574TIP3   OH249916   2.785   2.668   4.308 -0.4860 -0.2176 -0.1301
 8574TIP3    H149917   2.694   2.673   4.278 -0.4304  0.8804 -0.1766
 8574TIP3    H249918   2.791   2.735   4.376  0.7718  1.1149 -1.4813
 8575TIP3   OH249919   5.377   4.290   4.289  0.2935  0.0521 -0.4573
 8575TIP3    H149920   5.336   4.204   4.299 -0.0593  0.2462 -0.2224
 8575TIP3    H249921   5.332   4.346   4.352  3.2594 -0.5382  2.4676
 8576TIP3   OH249922   5.574   5.926   3.279  0.0643  0.4040 -0.1676
 8576TIP3    H149923   5.632   5.892   3.211  0.1107  0.9876 -0.4291
 8576TIP3    H249924   5.590   6.021   3.277  1.1203  0.3076  1.6061
 8577TIP3   OH249925   5.390   1.459   2.357  0.1235 -0.2947  0.2940
 8577TIP3    H149926   5.441   1.452   2.438 -1.8154 -0.5907  1.5669
 8577TIP3    H249927   5.396   1.372   2.318  1.8723  0.1140 -0.4524
 8578TIP3   OH249928   3.172   6.603   3.200  0.1132  0.1217 -0.3733
 8578TIP3    H149929   3.162   6.652   3.282 -1.6985 -0.2851 -0.2957
 8578TIP3    H249930   3.197   6.515   3.228 -1.4116 -0.2737 -0.1399
 8579TIP3   OH249931   0.812   0.711   2.880 -0.3014  0.1804 -0.0994
 8579TIP3    H149932   0.824   0.651   2.806  0.4815  0.3841 -0.1531
 8579TIP3    H249933   0.718   0.715   2.893 -0.3696 -1.0578 -0.0989
 8580TIP3   OH249934   5.397   4.481   3.072 -0.0334  0.2019 -0.1841
 8580TIP3    H149935   5.363   4.400   3.034  0.0821 -0.6347  1.4176
 8580TIP3    H249936   5.487   4.461   3.095  0.5104  1.3179 -1.2191
 8581TIP3   OH249937   4.446   3.564   4.029  0.0425  0.0968  0.0155
 8581TIP3    H149938   4.470   3.544   4.119  2.2574  2.2479 -0.0079
 8581TIP3    H249939   4.375   3.502   4.009 -0.0219 -0.9298  2.9441
 8582TIP3   OH249940   4.887   6.761   2.974 -0.0663 -0.1747 -0.3409
 8582TIP3    H149941   4.815   6.720   3.023  0.9973 -0.4261  1.0916
 8582TIP3    H249942   4.843   6.810   2.904 -1.9544  2.4207  2.3897
 8583TIP3   OH249943   4.513   2.299   2.107 -0.3022  0.7560 -0.3908
 8583TIP3    H149944   4.468   2.328   2.027  0.5880  0.7998 -0.8989
 8583TIP3    H249945   4.457   2.328   2.178 -1.2516  0.4904 -1.0039
 8584TIP3   OH249946   5.372   1.532   4.167  0.1961  0.6161  0.1849
 8584TIP3    H149947   5.320   1.570   4.237 -1.3116  0.2239 -0.6769
 8584TIP3    H249948   5.415   1.607   4.125  0.7850  0.8866  1.2478
 8585TIP3   OH249949   0.482   5.580   2.908 -0.5310  0.0167 -0.1112
 8585TIP3    H149950   0.492   5.675   2.905 -0.3096 -0.0286 -1.0585
 8585TIP3    H249951   0.535   5.553   2.983  0.3765  0.5329 -0.5512
 8586TIP3   OH249952   4.650   7.010   3.525 -0.2687 -0.1754  0.2780
 8586TIP3    H149953   4.661   6.947   3.597 -0.0457 -0.1393  0.2781
 8586TIP3    H249954   4.710   6.978   3.457 -0.2224 -0.0139  0.2432
 8587TIP3   OH249955   2.290   1.764   3.486  0.2361 -0.0747 -0.3628
 8587TIP3    H149956   2.248   1.785   3.402  0.0475 -0.5089 -0.3806
 8587TIP3    H249957   2.360   1.703   3.463 -0.8284 -1.4632 -0.0344
 8588TIP3   OH249958   1.088   0.063   3.946 -0.4198  0.7328 -0.2316
 8588TIP3    H149959   1.116   0.028   4.031  1.1199 -0.1412 -1.0662
 8588TIP3    H249960   1.164   0.109   3.912 -1.4553  2.2750 -0.5572
 8589TIP3   OH249961   3.211   3.924   3.422  0.0633 -0.1105 -0.5353
 8589TIP3    H149962   3.257   3.985   3.480  0.1599 -1.7448  1.2076
 8589TIP3    H249963   3.271   3.850   3.415 -1.3351 -1.3163 -0.0473
 8590TIP3   OH249964   4.236   3.153   2.798 -0.3938  0.8217  0.1497
 8590TIP3    H149965   4.233   3.113   2.711  0.1574  0.9347  0.0730
 8590TIP3    H249966   4.156   3.123   2.841 -0.8221  1.0156 -0.5020
 8591TIP3   OH249967   7.185   4.509   2.146 -0.1281  0.5171  0.2160
 8591TIP3    H149968   7.280   4.506   2.158 -0.2019  1.5901  1.2683
 8591TIP3    H249969   7.154   4.424   2.179  0.4158  0.3634  0.3508
 8592TIP3   OH249970   4.168   3.265   3.477 -0.1240 -0.3176 -0.1112
 8592TIP3    H149971   4.249   3.218   3.498 -1.1265 -1.8119  0.5747
 8592TIP3    H249972   4.144   3.308   3.559  0.3917  0.8333 -0.5405
 8593TIP3   OH249973   3.748   7.663   3.706  0.4478  0.0461 -0.3473
 8593TIP3    H149974   3.811   7.719   3.661  0.6919 -1.1401 -1.5549
 8593TIP3    H249975   3.699   7.722   3.762  2.5250  1.0457  0.5401
 8594TIP3   OH249976   7.458   6.507   4.827 -0.2715 -0.1571  0.0829
 8594TIP3    H149977   7.484   6.487   4.737 -0.6371 -0.0906 -0.0382
 8594TIP3    H249978   7.384   6.449   4.844 -1.6700  1.3989 -0.4416
 8595TIP3   OH249979   4.290   4.636   2.659  0.2723  0.8427  0.0127
 8595TIP3    H149980   4.196   4.647   2.672  0.2785  0.3911  0.4819
 8595TIP3    H249981   4.316   4.571   2.725  0.5550 -0.5491 -1.4157
 8596TIP3   OH249982   0.545   7.469   2.838 -0.2944 -0.5581 -0.2149
 8596TIP3    H149983   0.628   7.482   2.883 -0.0652  1.2545 -1.0759
 8596TIP3    H249984   0.561   7.499   2.748 -1.6441 -1.0183 -0.6462
 8597TIP3   OH249985   0.791   7.321   3.725 -0.2106  0.3522  0.1319
 8597TIP3    H149986   0.832   7.404   3.698 -0.2109  0.0370 -0.9009
 8597TIP3    H249987   0.703   7.345   3.752 -0.0048  0.7754  0.4276
 8598TIP3   OH249988   4.267   6.558   4.449  0.1717 -0.1828  0.1218
 8598TIP3    H149989   4.233   6.495   4.513  0.9176  1.0069  1.7471
 8598TIP3    H249990   4.306   6.627   4.502  1.1184  0.6917 -1.6486
 8599TIP3   OH249991   6.236   7.361   4.264  0.6105 -0.4816  0.5783
 8599TIP3    H149992   6.321   7.329   4.232  0.1442 -0.8262 -0.3324
 8599TIP3    H249993   6.224   7.445   4.220 -0.4538 -1.3766 -0.9043
 8600TIP3   OH249994   1.933   7.350   2.501  0.3646  0.3433  0.0352
 8600TIP3    H149995   1.845   7.322   2.475  1.5833 -2.1010 -1.9916
 8600TIP3    H249996   1.937   7.443   2.479 -3.2200  2.0585  4.9822
 8601TIP3   OH249997   6.511   2.670   3.252  0.8014 -0.1330 -0.2677
 8601TIP3    H149998   6.549   2.662   3.339  2.3727 -0.7211 -0.9798
 8601TIP3    H249999   6.526   2.585   3.211 -2.5130 -0.9021 -0.1614
 8602TIP3   OH250000   7.496   1.233   3.615  0.6551  0.1421 -0.0982
 8602TIP3    H150001   7.461   1.166   3.674  0.9307 -0.5540 -0.7076
 8602TIP3    H250002   7.534   1.184   3.542  2.5971  0.8825  0.3477
 8603TIP3   OH250003   2.054   4.737   2.414  0.6306 -0.4896  0.3211
 8603TIP3    H150004   1.962   4.711   2.408  0.6918 -0.5192 -0.5124
 8603TIP3    H250005   2.063   4.809   2.352  1.0957 -0.2724  0.6369
 8604TIP3   OH250006   2.661   1.811   3.679 -0.0243 -0.1761  0.1641
 8604TIP3    H150007   2.719   1.851   3.744 -0.3046 -0.1224  0.3815
 8604TIP3    H250008   2.663   1.718   3.700 -0.4782 -0.1062  0.5479
 8605TIP3   OH250009   2.298   2.281   2.399 -0.0459  0.3825 -0.1520
 8605TIP3    H150010   2.320   2.331   2.477  0.6261  0.5116 -0.4168
 8605TIP3    H250011   2.341   2.328   2.328 -0.3590  0.0686 -0.5524
 8606TIP3   OH250012   2.496   7.128   4.757  0.0966  0.6265  0.6505
 8606TIP3    H150013   2.491   7.089   4.670  1.3923 -0.5040  1.0333
 8606TIP3    H250014   2.476   7.220   4.744  0.1677  0.4575 -0.8265
 8607TIP3   OH250015   1.844   5.608   3.964  0.4583 -0.2986  0.1009
 8607TIP3    H150016   1.896   5.528   3.954 -0.0939 -0.5747 -0.6238
 8607TIP3    H250017   1.753   5.578   3.958  0.2649  0.5105 -1.1788
 8608TIP3   OH250018   6.440   5.961   3.978 -0.2240 -0.2878  0.1122
 8608TIP3    H150019   6.351   5.994   3.987  0.4205  1.2216  1.5384
 8608TIP3    H250020   6.473   6.003   3.899 -0.8124 -0.9883 -0.5190
 8609TIP3   OH250021   2.977   4.922   3.198  0.4371  0.0150  0.5324
 8609TIP3    H150022   3.063   4.951   3.229  0.0940 -1.3842  3.0720
 8609TIP3    H250023   2.919   4.997   3.213  1.4044  1.6277 -2.8467
 8610TIP3   OH250024   1.599   0.874   2.813 -0.0840 -0.6326  0.1220
 8610TIP3    H150025   1.551   0.793   2.795 -1.0631  0.2724 -1.6897
 8610TIP3    H250026   1.594   0.923   2.731  2.6571  0.2015  0.3466
 8611TIP3   OH250027   1.592   7.162   4.399  0.3698  0.3207  0.3444
 8611TIP3    H150028   1.594   7.127   4.310 -0.5225  1.0084  0.0341
 8611TIP3    H250029   1.536   7.239   4.393  0.2670  0.3593  1.5108
 8612TIP3   OH250030   4.387   6.542   2.764 -0.2731 -0.1514  0.3328
 8612TIP3    H150031   4.307   6.532   2.713 -0.4902  0.4595  0.5428
 8612TIP3    H250032   4.446   6.475   2.730 -0.1093  0.7745 -1.3099
 8613TIP3   OH250033   6.046   2.597   3.499  0.7266 -0.2081  0.1384
 8613TIP3    H150034   5.997   2.657   3.555  0.9892 -0.3224  0.4928
 8613TIP3    H250035   6.077   2.652   3.427 -0.6743 -0.3148 -0.5668
 8614TIP3   OH250036   0.951   4.652   2.531 -0.6304  0.2185 -0.5063
 8614TIP3    H150037   0.941   4.580   2.469  0.8009 -0.1237 -0.3629
 8614TIP3    H250038   0.912   4.619   2.612 -0.4550 -0.2024 -0.5888
 8615TIP3   OH250039   7.612   3.929   2.863 -0.2328 -0.3211 -0.6065
 8615TIP3    H150040   7.607   4.021   2.890 -0.5849 -0.5146  0.0107
 8615TIP3    H250041   7.627   3.881   2.944 -2.4798 -1.0236 -0.5241
 8616TIP3   OH250042   0.834   6.230   2.581  0.5568  0.4779 -0.5816
 8616TIP3    H150043   0.843   6.204   2.490  0.1659  0.0329 -0.4925
 8616TIP3    H250044   0.923   6.225   2.616  0.6980  0.5915 -0.9151
 8617TIP3   OH250045   5.729   2.354   3.689  0.1778 -0.4483 -0.2250
 8617TIP3    H150046   5.756   2.272   3.731 -0.2167 -0.2526  0.4055
 8617TIP3    H250047   5.778   2.422   3.735  1.4964 -0.4138 -1.5846
 8618TIP3   OH250048   3.370   4.695   2.173  0.1392 -0.2129  0.4661
 8618TIP3    H150049   3.387   4.601   2.178 -0.8976 -0.4249  0.1772
 8618TIP3    H250050   3.275   4.703   2.178  0.0746  0.6872 -1.3219
 8619TIP3   OH250051   0.212   1.611   3.253  0.4535  0.2271 -0.0344
 8619TIP3    H150052   0.223   1.639   3.162 -0.4842  0.3197 -0.1333
 8619TIP3    H250053   0.297   1.576   3.278  0.7382  0.2538 -0.9274
 8620TIP3   OH250054   3.867   3.112   4.145 -0.0242  0.1609  0.2324
 8620TIP3    H150055   3.836   3.194   4.106 -1.1973 -0.6548 -0.6441
 8620TIP3    H250056   3.962   3.116   4.137 -0.0373  1.5824  0.5396
 8621TIP3   OH250057   6.647   6.568   4.615  0.0461  0.3501 -0.1049
 8621TIP3    H150058   6.692   6.604   4.539  1.9005 -2.3368 -0.4182
 8621TIP3    H250059   6.671   6.626   4.687  0.6601  1.2871 -1.0354
 8622TIP3   OH250060   3.244   7.583   2.290  0.5870 -0.5324 -0.3074
 8622TIP3    H150061   3.331   7.616   2.312  1.0842 -2.5613  0.9960
 8622TIP3    H250062   3.184   7.646   2.330  1.4835 -0.4804  0.9976
 8623TIP3   OH250063   1.256   1.208   3.860 -0.6402 -0.7100  0.0365
 8623TIP3    H150064   1.245   1.300   3.834 -0.6319 -0.5659  0.5360
 8623TIP3    H250065   1.268   1.162   3.777  0.8287 -0.0552 -0.1533
 8624TIP3   OH250066   5.700   7.544   4.223 -0.0259  0.3173  0.6419
 8624TIP3    H150067   5.723   7.629   4.260 -0.6842  0.5623  0.4946
 8624TIP3    H250068   5.757   7.536   4.146 -2.0811  2.0355 -1.1878
 8625TIP3   OH250069   6.730   6.708   4.393 -0.2363  0.4822  0.0194
 8625TIP3    H150070   6.785   6.781   4.421  2.1242 -1.4188  0.6387
 8625TIP3    H250071   6.791   6.637   4.373 -2.3336 -0.8976 -2.0130
 8626TIP3   OH250072   5.190   7.317   2.496 -0.0681  0.6189  0.1232
 8626TIP3    H150073   5.151   7.397   2.461 -0.3288  0.6973  0.5825
 8626TIP3    H250074   5.257   7.347   2.557  1.1112  0.4910 -1.0431
 8627TIP3   OH250075   2.772   0.341   4.101  0.0057 -0.4371 -0.1937
 8627TIP3    H150076   2.809   0.429   4.092  1.0558 -0.9467 -1.0277
 8627TIP3    H250077   2.772   0.325   4.195 -0.3650  0.5284 -0.0240
 8628TIP3   OH250078   4.319   4.488   4.460  0.4785  0.5510  0.3749
 8628TIP3    H150079   4.306   4.407   4.411  0.6897  1.0456 -0.5245
 8628TIP3    H250080   4.232   4.527   4.466  0.7321  1.5419 -1.5217
 8629TIP3   OH250081   6.542   4.616   4.045 -0.6558  0.2533  0.5397
 8629TIP3    H150082   6.465   4.560   4.049 -0.3800 -0.0634  1.6341
 8629TIP3    H250083   6.524   4.687   4.107  0.4838 -0.5420  1.8155
 8630TIP3   OH250084   5.826   0.835   3.072  0.1681 -0.5075  0.2260
 8630TIP3    H150085   5.904   0.779   3.072 -0.3555 -1.2626  0.0470
 8630TIP3    H250086   5.813   0.858   2.980 -1.2587 -2.5131 -0.1640
 8631TIP3   OH250087   2.867   2.436   3.421  0.5788 -0.4606  0.0375
 8631TIP3    H150088   2.887   2.456   3.512  2.6497 -2.6432  0.1685
 8631TIP3    H250089   2.785   2.481   3.403 -1.0720 -1.7334  3.6398
 8632TIP3   OH250090   7.018   6.546   3.118 -0.0107 -0.0673  0.3193
 8632TIP3    H150091   7.022   6.641   3.111  1.4103 -0.0679  0.8071
 8632TIP3    H250092   6.929   6.523   3.090 -0.6067  1.4518  0.8747
 8633TIP3   OH250093   1.058   7.593   2.878 -0.3916 -0.0772  0.1265
 8633TIP3    H150094   1.153   7.589   2.867 -0.1537 -0.4689  2.0425
 8633TIP3    H250095   1.041   7.683   2.907 -0.7139  0.2003 -0.8674
 8634TIP3   OH250096   1.264   3.781   3.850  0.0233 -0.2198  0.3240
 8634TIP3    H150097   1.289   3.731   3.928  0.2752  0.3093  0.5949
 8634TIP3    H250098   1.345   3.791   3.801 -0.0716 -0.2778  0.1552
 8635TIP3   OH250099   6.331   3.715   4.615  0.3648 -0.4468  0.5226
 8635TIP3    H150100   6.382   3.786   4.654  3.0773 -1.8745 -0.2240
 8635TIP3    H250101   6.327   3.736   4.522  0.2522 -0.7461  0.4583
 8636TIP3   OH250102   0.638   2.582   4.969  0.1308  0.5273  0.8844
 8636TIP3    H150103   0.626   2.677   4.969 -0.7345  0.4363  1.9593
 8636TIP3    H250104   0.716   2.568   4.915 -0.0546  1.7954  0.2428
 8637TIP3   OH250105   2.732   5.984   3.301 -0.2320  0.4115 -0.0992
 8637TIP3    H150106   2.748   5.908   3.244  1.8343  0.5032  0.2759
 8637TIP3    H250107   2.734   5.948   3.390  0.1492  0.8074  0.0542
 8638TIP3   OH250108   4.358   4.433   2.872 -0.3146  0.1563 -0.1497
 8638TIP3    H150109   4.335   4.449   2.964  1.1434  1.4190  0.0347
 8638TIP3    H250110   4.453   4.443   2.868 -0.1892 -1.1697 -1.5760
 8639TIP3   OH250111   0.235   3.961   3.051 -0.0126 -0.4703 -0.2796
 8639TIP3    H150112   0.283   3.879   3.045  0.4808 -0.2644  0.6148
 8639TIP3    H250113   0.241   4.000   2.964  0.0080 -1.2370 -0.6214
 8640TIP3   OH250114   2.947   3.989   2.042  0.6183  0.0598  0.7250
 8640TIP3    H150115   2.901   3.984   2.125 -0.5379 -0.0902  0.1029
 8640TIP3    H250116   2.884   4.029   1.982  0.6488 -1.6847 -0.5678
 8641TIP3   OH250117   2.932   4.445   2.841 -0.3674 -0.5478 -0.0027
 8641TIP3    H150118   2.950   4.414   2.929 -1.1132 -0.3417  0.2265
 8641TIP3    H250119   3.012   4.426   2.792  1.4213  2.4531  1.5084
 8642TIP3   OH250120   2.007   4.531   3.884  0.1646  0.0356 -0.4186
 8642TIP3    H150121   1.966   4.597   3.940  1.5615  1.1126 -0.5823
 8642TIP3    H250122   1.988   4.448   3.926  0.2333  0.7317  1.0549
 8643TIP3   OH250123   4.874   4.506   2.709  0.0452 -0.7373  0.1323
 8643TIP3    H150124   4.862   4.502   2.614 -0.0771 -3.2587  0.1833
 8643TIP3    H250125   4.948   4.447   2.726  0.3076 -0.0416  1.5829
 8644TIP3   OH250126   0.435   7.571   4.170 -0.2252 -0.3830 -0.1439
 8644TIP3    H150127   0.354   7.520   4.180 -0.3417 -0.5871 -1.9196
 8644TIP3    H250128   0.448   7.579   4.076  0.1052  2.3880  0.0314
 8645TIP3   OH250129   5.270   2.996   2.667 -0.2830  0.7991 -0.2262
 8645TIP3    H150130   5.272   2.914   2.618 -0.6725  1.0754 -0.7079
 8645TIP3    H250131   5.273   2.969   2.759 -0.0419  0.2609 -0.3921
 8646TIP3   OH250132   6.135   2.933   2.230 -0.2361  0.3710 -0.2792
 8646TIP3    H150133   6.065   2.916   2.293 -0.6870 -2.1404 -1.3259
 8646TIP3    H250134   6.093   2.985   2.161 -0.3576  1.0908  0.3232
 8647TIP3   OH250135   4.859   2.256   3.779  0.0056  0.3719 -0.1738
 8647TIP3    H150136   4.862   2.352   3.776 -2.9600  0.6392  1.6887
 8647TIP3    H250137   4.847   2.236   3.872 -0.0236 -1.8074 -0.6140
 8648TIP3   OH250138   4.761   5.897   4.118  0.8108  0.0774 -0.2441
 8648TIP3    H150139   4.689   5.891   4.055  0.5741 -0.2490  0.0491
 8648TIP3    H250140   4.802   5.981   4.100 -0.3546  0.8029  0.3268
 8649TIP3   OH250141   0.687   2.817   4.054 -0.5025 -0.3514  0.9126
 8649TIP3    H150142   0.719   2.727   4.039  1.0881  0.3140  0.0915
 8649TIP3    H250143   0.758   2.873   4.024 -2.6295  1.2771 -1.4329
 8650TIP3   OH250144   3.981   3.726   2.638  0.5247 -0.2408  0.5634
 8650TIP3    H150145   4.062   3.680   2.616  1.0801  0.5232  1.0095
 8650TIP3    H250146   3.998   3.817   2.615 -0.5249 -0.2065 -0.1844
 8651TIP3   OH250147   4.276   1.798   3.581  0.1596 -0.0426 -0.1827
 8651TIP3    H150148   4.303   1.726   3.523  2.6922 -0.2133  1.0749
 8651TIP3    H250149   4.308   1.877   3.536  0.6693 -0.0375  0.1823
 8652TIP3   OH250150   0.009   0.160   4.318 -0.2053  0.1295 -0.6269
 8652TIP3    H150151   0.053   0.131   4.398 -0.5208 -1.1995 -0.9125
 8652TIP3    H250152  -0.076   0.117   4.320 -0.3110  0.2721 -1.5585
 8653TIP3   OH250153   1.017   1.843   2.391 -0.5256 -0.0014  0.0603
 8653TIP3    H150154   1.012   1.902   2.466  0.2701  0.9385 -0.5931
 8653TIP3    H250155   0.937   1.862   2.340 -0.6128  0.0154  0.2029
 8654TIP3   OH250156   4.367   4.108   2.281  0.0000  0.4037 -0.0890
 8654TIP3    H150157   4.324   4.119   2.365  0.3485  0.4963  0.0773
 8654TIP3    H250158   4.373   4.196   2.244  0.2053  0.4160 -0.0310
 8655TIP3   OH250159   0.492   0.372   3.254 -0.4088 -0.2061 -0.6905
 8655TIP3    H150160   0.551   0.362   3.329 -0.8503  1.7953 -0.0011
 8655TIP3    H250161   0.494   0.287   3.210  3.5766 -0.0893 -1.1387
 8656TIP3   OH250162   1.230   3.144   3.980  0.3613 -0.1827  0.2563
 8656TIP3    H150163   1.219   3.073   4.044  0.4229 -1.0714 -0.6838
 8656TIP3    H250164   1.299   3.112   3.921 -0.8939 -0.1739 -1.2750
 8657TIP3   OH250165   2.712   2.505   2.718  0.0823  0.5432 -0.4179
 8657TIP3    H150166   2.713   2.452   2.638 -1.6092 -2.0137  1.1264
 8657TIP3    H250167   2.773   2.461   2.777  0.6610  1.9024  0.0396
 8658TIP3   OH250168   7.367   1.574   2.781 -0.2846 -0.4940  0.0748
 8658TIP3    H150169   7.284   1.527   2.784  0.3870 -1.7978 -0.7545
 8658TIP3    H250170   7.352   1.653   2.832 -1.3436 -1.7959  1.8955
 8659TIP3   OH250171   6.271   4.780   4.046 -0.3610  0.2971 -0.2236
 8659TIP3    H150172   6.247   4.839   3.974  0.5217  0.4814 -0.3760
 8659TIP3    H250173   6.224   4.814   4.122 -0.5714  0.6512 -0.5069
 8660TIP3   OH250174   5.176   5.884   3.340 -0.1154 -0.0609 -0.2745
 8660TIP3    H150175   5.125   5.907   3.417  0.3380 -0.5833  0.1885
 8660TIP3    H250176   5.120   5.907   3.266 -0.6156  0.2954  0.2139
 8661TIP3   OH250177   2.240   3.538   2.506  0.3970 -0.6876 -0.0259
 8661TIP3    H150178   2.277   3.470   2.449  3.5011  0.9810 -0.2322
 8661TIP3    H250179   2.312   3.561   2.565 -1.1662  1.0843  1.3095
 8662TIP3   OH250180   3.949   1.621   2.549 -0.2997  0.1463 -0.1660
 8662TIP3    H150181   3.919   1.712   2.539 -0.7032  0.2914  1.8837
 8662TIP3    H250182   4.037   1.628   2.585  0.9812 -0.3237 -2.9313
 8663TIP3   OH250183   0.006   6.272   3.309 -0.0258 -0.6586  0.4415
 8663TIP3    H150184  -0.058   6.203   3.297 -0.1557 -0.4527 -0.1095
 8663TIP3    H250185   0.023   6.273   3.403  0.7999 -2.1598  0.3315
 8664TIP3   OH250186   1.046   4.704   2.116  0.2454  0.5370 -0.0983
 8664TIP3    H150187   1.077   4.674   2.201  0.4193  1.5323  0.1987
 8664TIP3    H250188   0.953   4.719   2.128  0.1941  0.2995 -0.1953
 8665TIP3   OH250189   4.476   5.049   3.008  0.2432 -0.1673  0.1096
 8665TIP3    H150190   4.521   5.052   2.924 -0.2457 -1.1773 -0.2085
 8665TIP3    H250191   4.542   5.016   3.069 -0.2638 -2.6403 -0.5520
 8666TIP3   OH250192   2.520   7.408   2.228 -0.4777  0.0381 -0.4350
 8666TIP3    H150193   2.497   7.320   2.256 -0.6732 -0.6539 -2.6013
 8666TIP3    H250194   2.594   7.397   2.168  0.0499  1.4359 -0.0944
 8667TIP3   OH250195   1.069   2.613   4.381 -0.7287 -0.0647 -0.1014
 8667TIP3    H150196   0.980   2.623   4.414 -0.3819  0.7048  0.6496
 8667TIP3    H250197   1.105   2.702   4.381  0.4231 -0.5003  0.7595
 8668TIP3   OH250198   1.915   6.905   3.639 -0.5184  0.4887 -0.0230
 8668TIP3    H150199   1.847   6.962   3.604  1.4344  2.4897 -0.7853
 8668TIP3    H250200   1.938   6.846   3.567  1.7897  2.9968 -1.5221
 8669TIP3   OH250201   7.209   3.433   3.946  0.3727  0.4431  0.8296
 8669TIP3    H150202   7.193   3.342   3.971 -0.0747  0.4725  0.6666
 8669TIP3    H250203   7.133   3.457   3.893  0.7816  0.7213  0.3609
 8670TIP3   OH250204   0.801   5.368   3.582 -0.4199  0.1644  0.3419
 8670TIP3    H150205   0.842   5.286   3.611  0.0772 -0.0210 -0.8081
 8670TIP3    H250206   0.870   5.434   3.592 -0.8667  0.4955  1.4095
 8671TIP3   OH250207   6.521   6.825   5.093 -0.3570 -0.3695  0.0943
 8671TIP3    H150208   6.593   6.881   5.066 -0.4880  0.5490  1.5774
 8671TIP3    H250209   6.529   6.747   5.037  0.3567  0.7160 -1.3790
 8672TIP3   OH250210   4.105   1.653   3.244  0.1461  0.8264  0.4025
 8672TIP3    H150211   4.059   1.585   3.294  0.2953 -0.4969 -1.1766
 8672TIP3    H250212   4.193   1.654   3.282 -0.2126  1.0435  1.2603
 8673TIP3   OH250213   3.050   2.731   4.849  0.3219  0.0462 -0.6190
 8673TIP3    H150214   2.982   2.681   4.894  1.4122  1.1640  2.5383
 8673TIP3    H250215   3.010   2.816   4.831  0.3537  0.1151 -0.3632
 8674TIP3   OH250216   4.488   7.130   3.331  0.4014 -0.4211  0.1972
 8674TIP3    H150217   4.437   7.061   3.290  0.6128  0.0855 -0.9457
 8674TIP3    H250218   4.544   7.084   3.394  0.6147 -1.3182 -0.6207
 8675TIP3   OH250219   0.636   4.068   4.043 -0.0801  0.1039 -0.4593
 8675TIP3    H150220   0.570   4.012   4.002  0.6933  1.2384 -3.4479
 8675TIP3    H250221   0.589   4.149   4.063 -0.1029  0.0988 -0.4921
 8676TIP3   OH250222   1.919   2.380   2.477  0.1929 -0.0898  0.9224
 8676TIP3    H150223   1.966   2.296   2.477 -1.5255 -1.1122  0.4086
 8676TIP3    H250224   1.832   2.358   2.511 -0.5302  1.3468  0.0747
 8677TIP3   OH250225   1.862   2.658   4.718  0.0573  0.0592  0.2210
 8677TIP3    H150226   1.797   2.727   4.733 -0.8188 -1.0116  1.5996
 8677TIP3    H250227   1.880   2.623   4.805  2.2573  0.0777 -0.1667
 8678TIP3   OH250228   0.491   5.759   3.510  0.9615 -0.1293  0.2191
 8678TIP3    H150229   0.506   5.788   3.600  1.9621  0.0106  0.0157
 8678TIP3    H250230   0.526   5.670   3.507  0.5859 -0.2751  0.0640
 8679TIP3   OH250231   2.437   0.821   4.946 -0.0480  0.3930 -0.5947
 8679TIP3    H150232   2.439   0.912   4.918 -0.8275  0.5168 -0.2732
 8679TIP3    H250233   2.528   0.801   4.970  0.1037  1.1181 -0.5470
 8680TIP3   OH250234   2.231   6.979   2.399  0.5086 -0.0429  0.1549
 8680TIP3    H150235   2.165   6.911   2.412  1.2241 -0.7459  0.2082
 8680TIP3    H250236   2.294   6.965   2.470 -0.3003  1.8864  1.3256
 8681TIP3   OH250237   1.089   4.738   2.911 -0.2415 -0.2785  0.3266
 8681TIP3    H150238   1.075   4.643   2.910 -0.1724 -0.3294  1.8204
 8681TIP3    H250239   1.080   4.763   3.003 -0.7928  1.2581 -0.1054
 8682TIP3   OH250240   2.855   7.433   3.116  0.3850  0.3073 -0.8439
 8682TIP3    H150241   2.787   7.420   3.050 -0.4063  1.5002 -0.2942
 8682TIP3    H250242   2.875   7.344   3.147 -2.0329  0.0055  0.0583
 8683TIP3   OH250243   2.934   5.366   4.963 -0.5751  0.0612  0.0744
 8683TIP3    H150244   2.958   5.458   4.953 -0.2623  0.0315  0.5058
 8683TIP3    H250245   2.890   5.343   4.881  0.2875  0.3087 -0.4759
 8684TIP3   OH250246   5.797   3.557   3.251  0.1301  0.2062  0.0916
 8684TIP3    H150247   5.767   3.646   3.232  1.2037  0.6910  0.5447
 8684TIP3    H250248   5.759   3.503   3.182 -0.1649  1.0930 -0.4569
 8685TIP3   OH250249   1.236   5.786   4.074  0.1569 -0.0167 -0.1643
 8685TIP3    H150250   1.213   5.756   4.163  0.7275  0.3401  0.1081
 8685TIP3    H250251   1.309   5.847   4.087 -0.0573  0.3954 -0.8432
 8686TIP3   OH250252   1.796   1.591   3.879 -0.0385 -0.2553 -0.2707
 8686TIP3    H150253   1.822   1.509   3.920 -0.1880  0.1093  0.5695
 8686TIP3    H250254   1.704   1.579   3.856  0.3268 -0.8537 -1.5191
 8687TIP3   OH250255   7.662   4.576   3.100  0.2427  0.2031 -0.6024
 8687TIP3    H150256   7.706   4.500   3.139  0.0753  0.7219  0.6387
 8687TIP3    H250257   7.600   4.606   3.167 -1.5017 -0.0564 -2.0309
 8688TIP3   OH250258   1.177   3.367   2.279  0.0536  0.4169  0.1452
 8688TIP3    H150259   1.167   3.277   2.250  1.4977  0.5746 -0.9444
 8688TIP3    H250260   1.268   3.374   2.307 -0.1617  1.4124  0.6546
 8689TIP3   OH250261   2.106   6.334   4.479 -0.1303  0.3351  0.2217
 8689TIP3    H150262   2.139   6.377   4.401 -1.0436  0.0077 -0.3570
 8689TIP3    H250263   2.105   6.240   4.457 -2.4281  0.3923 -0.2152
 8690TIP3   OH250264   2.671   0.242   2.322  0.1115 -0.2877  0.2099
 8690TIP3    H150265   2.749   0.266   2.272  1.1442  0.3249  2.0418
 8690TIP3    H250266   2.616   0.320   2.318  0.8145  0.2839  1.1404
 8691TIP3   OH250267   0.941   5.176   3.404 -0.0188  0.2207  0.3330
 8691TIP3    H150268   0.892   5.258   3.412 -1.9663 -0.7969 -0.6882
 8691TIP3    H250269   0.948   5.161   3.309  1.5829 -0.0966  0.4679
 8692TIP3   OH250270   6.785   1.187   2.638  0.1650  0.0716  0.1158
 8692TIP3    H150271   6.791   1.095   2.615  0.1854  0.1506 -0.1932
 8692TIP3    H250272   6.711   1.221   2.587  1.5074  0.7314 -1.4587
 8693TIP3   OH250273   0.213   7.426   4.066 -0.1720  0.4447  0.6220
 8693TIP3    H150274   0.268   7.424   3.988 -0.7274  0.4767  0.2284
 8693TIP3    H250275   0.127   7.452   4.034 -0.2062  1.2732  1.3659
 8694TIP3   OH250276   6.537   2.395   3.220 -0.3426 -0.5447  0.4159
 8694TIP3    H150277   6.458   2.355   3.256 -0.1042 -0.9518  0.4888
 8694TIP3    H250278   6.607   2.368   3.279 -0.3343  0.8908  1.1062
 8695TIP3   OH250279   4.001   1.459   4.095  0.4397  0.1470 -0.0551
 8695TIP3    H150280   3.945   1.413   4.033  0.4095  0.4289 -0.2380
 8695TIP3    H250281   4.030   1.391   4.156 -0.8904  0.1540  0.6372
 8696TIP3   OH250282   4.015   0.607   2.283 -0.0834  0.1800  0.2264
 8696TIP3    H150283   4.027   0.531   2.339  1.5684 -1.4771 -2.2123
 8696TIP3    H250284   3.921   0.623   2.285 -0.5419 -2.1928  0.5117
 8697TIP3   OH250285   0.486   5.547   2.390  0.3434 -0.6475  0.3593
 8697TIP3    H150286   0.443   5.629   2.366  2.0631  0.2677  0.2684
 8697TIP3    H250287   0.430   5.510   2.459  1.0888  2.1655  2.6926
 8698TIP3   OH250288   6.298   3.071   3.011  0.4739 -0.2911 -0.3147
 8698TIP3    H150289   6.374   3.110   3.054 -1.1670  1.1914  1.3951
 8698TIP3    H250290   6.307   2.977   3.026  1.7033 -0.0909  0.2921
 8699TIP3   OH250291   1.980   2.629   2.979  0.0779  0.3623 -0.1328
 8699TIP3    H150292   1.986   2.668   3.066  0.2513  2.2398 -0.9419
 8699TIP3    H250293   1.893   2.590   2.976  0.6583 -1.1528  1.4161
 8700TIP3   OH250294   3.777   2.649   2.426 -0.0720 -0.0994  0.0332
 8700TIP3    H150295   3.870   2.652   2.404 -0.1975  0.1852 -0.4983
 8700TIP3    H250296   3.774   2.626   2.518  0.5982  1.8092  0.5753
 8701TIP3   OH250297   1.579   0.998   2.574  0.1264  0.2912 -0.2646
 8701TIP3    H150298   1.501   1.003   2.518 -0.8933 -0.6412  0.9917
 8701TIP3    H250299   1.652   0.997   2.513 -0.9603 -1.4758 -1.6682
 8702TIP3   OH250300   2.780   5.829   4.145  0.4262 -0.0712  0.0087
 8702TIP3    H150301   2.860   5.827   4.093  0.6064 -0.4622  0.2930
 8702TIP3    H250302   2.809   5.849   4.234  0.3531 -1.3953  0.3516
 8703TIP3   OH250303   3.097   4.804   4.364 -0.2938  0.1440 -0.3995
 8703TIP3    H150304   3.067   4.824   4.276 -0.2014  2.4940  0.0321
 8703TIP3    H250305   3.188   4.833   4.366 -0.9854  2.5599  1.0930
 8704TIP3   OH250306   5.065   0.465   4.051  0.1326  0.1013  0.4261
 8704TIP3    H150307   5.124   0.520   4.104  0.2379 -0.1151  0.5335
 8704TIP3    H250308   5.076   0.497   3.962  0.1745  0.2739  0.4915
 8705TIP3   OH250309   6.296   5.641   4.140  0.0055 -0.2524  0.0192
 8705TIP3    H150310   6.223   5.692   4.105 -1.7014 -1.4128  1.6791
 8705TIP3    H250311   6.260   5.598   4.218  2.2196 -1.5849  0.3954
 8706TIP3   OH250312   2.313   6.491   2.567  0.0319  0.6916 -0.3923
 8706TIP3    H150313   2.327   6.396   2.574 -0.4863  0.5186 -1.4627
 8706TIP3    H250314   2.304   6.521   2.657  0.2766 -0.2663 -0.0366
 8707TIP3   OH250315   4.129   7.627   3.674  0.3983 -0.6387  0.1106
 8707TIP3    H150316   4.185   7.550   3.665  1.6119  0.2617 -0.3658
 8707TIP3    H250317   4.122   7.641   3.769  1.8959 -0.1647  0.1859
 8708TIP3   OH250318   4.102   7.180   2.906 -0.3725 -0.0270  0.3263
 8708TIP3    H150319   4.126   7.169   2.814  2.6645 -0.4119  1.0438
 8708TIP3    H250320   4.107   7.091   2.942 -0.9216  0.2046  0.9824
 8709TIP3   OH250321   3.987   0.391   4.775  0.0871 -0.0097  0.0294
 8709TIP3    H150322   3.933   0.334   4.830  0.2957 -0.4842 -0.2470
 8709TIP3    H250323   3.995   0.472   4.824 -2.7850  0.9544 -0.8765
 8710TIP3   OH250324   7.404   1.188   3.010 -0.3346 -0.1894  0.6186
 8710TIP3    H150325   7.362   1.102   3.016 -0.4350 -0.0769  1.7587
 8710TIP3    H250326   7.434   1.206   3.099 -0.2940  0.9541  0.3847
 8711TIP3   OH250327   4.127   3.388   3.732 -0.0353 -0.3594 -0.2716
 8711TIP3    H150328   4.178   3.402   3.812  0.1880  1.4663 -0.6769
 8711TIP3    H250329   4.125   3.474   3.691 -0.1766 -1.2491 -2.2193
 8712TIP3   OH250330   5.069   2.811   3.684  0.0831 -0.3432  0.9056
 8712TIP3    H150331   5.003   2.866   3.728 -0.0063  0.3860 -0.1169
 8712TIP3    H250332   5.058   2.830   3.591  0.6147 -1.4909  0.5885
 8713TIP3   OH250333   5.705   7.148   3.191  0.4794  0.7131 -0.8228
 8713TIP3    H150334   5.719   7.237   3.223  1.2422 -0.0108  1.0608
 8713TIP3    H250335   5.707   7.094   3.271  0.7201 -1.0603 -1.9743
 8714TIP3   OH250336   3.948   0.984   3.850  0.8250 -0.1050  0.1188
 8714TIP3    H150337   3.974   0.937   3.929  0.5049 -1.8739 -0.7634
 8714TIP3    H250338   4.021   1.042   3.830  0.3792  1.3749  2.3972
 8715TIP3   OH250339   3.726   0.701   4.259 -0.4167 -0.0085  0.1222
 8715TIP3    H150340   3.808   0.750   4.264 -1.3883  1.5661  2.2647
 8715TIP3    H250341   3.687   0.730   4.176  0.8166 -0.2328 -0.5693
 8716TIP3   OH250342   5.333   4.520   2.182  0.7857  0.0241  0.1187
 8716TIP3    H150343   5.351   4.516   2.088  0.7421  0.4204  0.0910
 8716TIP3    H250344   5.293   4.606   2.195  0.9837  0.0570  0.5320
 8717TIP3   OH250345   3.092   7.115   4.278  0.6423  0.0532 -0.0582
 8717TIP3    H150346   3.045   7.199   4.282  2.0845  0.9933 -1.3751
 8717TIP3    H250347   3.047   7.066   4.210  0.7279  0.3889 -0.3597
 8718TIP3   OH250348   0.938   1.909   4.560 -0.4776 -0.4850  0.3553
 8718TIP3    H150349   0.855   1.924   4.513 -1.0639  0.2995  1.5957
 8718TIP3    H250350   0.972   1.996   4.576  0.3805 -0.7951  0.2588
 8719TIP3   OH250351   7.281   3.904   4.334 -0.4714  0.3489 -0.0609
 8719TIP3    H150352   7.318   3.963   4.269 -0.2793  2.0851  1.5370
 8719TIP3    H250353   7.320   3.933   4.417 -0.8575 -1.6489  0.8779
 8720TIP3   OH250354   0.907   2.749   3.718 -0.0765 -0.0065 -0.2475
 8720TIP3    H150355   0.918   2.767   3.812 -0.8737  1.2693 -0.3789
 8720TIP3    H250356   0.952   2.666   3.705  1.1881  0.4256  1.0132
 8721TIP3   OH250357   5.582   0.734   3.690 -0.6094 -0.1690 -0.5623
 8721TIP3    H150358   5.583   0.811   3.634 -1.0457 -0.5550 -1.1101
 8721TIP3    H250359   5.513   0.751   3.754 -2.3177 -1.0485 -2.0690
 8722TIP3   OH250360   5.309   4.049   3.209 -0.4732  0.6109  0.5596
 8722TIP3    H150361   5.216   4.052   3.184 -0.4012  0.9678  0.3376
 8722TIP3    H250362   5.307   4.043   3.305 -0.7171  1.0498  0.5840
 8723TIP3   OH250363   0.496   1.589   3.318 -0.1339  0.3767 -0.3575
 8723TIP3    H150364   0.492   1.494   3.313 -1.0879  0.4515 -1.2358
 8723TIP3    H250365   0.545   1.606   3.399 -1.5252 -0.8514  0.8112
 8724TIP3   OH250366   7.678   1.293   4.254 -0.0310  0.6533  0.0289
 8724TIP3    H150367   7.746   1.349   4.293  0.9491 -0.5628  0.1328
 8724TIP3    H250368   7.668   1.221   4.316 -1.3157  0.7317 -0.0733
 8725TIP3   OH250369   6.910   3.460   3.866 -0.9967  0.4119  0.8754
 8725TIP3    H150370   6.917   3.398   3.939  0.4365 -0.5148  0.0023
 8725TIP3    H250371   6.832   3.431   3.818 -0.8585 -0.1587  0.9849
 8726TIP3   OH250372   0.670   0.340   4.905  0.4155 -0.1152  0.1848
 8726TIP3    H150373   0.764   0.328   4.919  0.1978 -0.5030  1.4070
 8726TIP3    H250374   0.662   0.431   4.877  1.1932 -0.2252 -0.4560
 8727TIP3   OH250375   2.019   0.448   3.457 -0.4374 -0.2162 -0.0594
 8727TIP3    H150376   2.030   0.542   3.469 -0.7925  0.1291 -2.0903
 8727TIP3    H250377   2.106   0.417   3.430 -0.4976 -0.3412 -0.1103
 8728TIP3   OH250378   3.913   3.523   2.060  0.2282  0.3203  0.4200
 8728TIP3    H150379   3.817   3.517   2.061  0.2690 -0.7117  0.1452
 8728TIP3    H250380   3.934   3.592   2.122 -0.6889  0.3742  0.6813
 8729TIP3   OH250381   5.091   1.775   3.311 -0.1332 -0.2992 -0.4267
 8729TIP3    H150382   5.025   1.783   3.242 -2.3412 -1.6255  1.3590
 8729TIP3    H250383   5.071   1.691   3.353  1.1116  0.4310  1.7865
 8730TIP3   OH250384   6.106   4.580   3.837 -0.0750 -0.3741 -0.1684
 8730TIP3    H150385   6.015   4.595   3.864 -0.0410 -0.5609  0.0523
 8730TIP3    H250386   6.151   4.557   3.919  0.5033  1.2808  0.0138
 8731TIP3   OH250387   1.355   0.842   4.204  0.1272 -0.0141 -0.3374
 8731TIP3    H150388   1.275   0.812   4.160  0.4971 -0.4663 -0.7096
 8731TIP3    H250389   1.415   0.768   4.198  0.3687  0.1021  0.4789
 8732TIP3   OH250390   6.454   2.513   2.882 -0.1318  0.8554  0.1894
 8732TIP3    H150391   6.394   2.503   2.956 -0.6322 -0.6336 -0.3825
 8732TIP3    H250392   6.526   2.566   2.916  0.2121 -0.7355  2.0806
 8733TIP3   OH250393   0.289   2.201   4.397 -0.3145 -0.0153  0.0695
 8733TIP3    H150394   0.382   2.182   4.408  0.2873  0.4718 -3.1064
 8733TIP3    H250395   0.255   2.126   4.348 -2.1123 -1.0453  2.6644
 8734TIP3   OH250396   5.948   6.899   3.121 -0.0851  0.5662 -0.6410
 8734TIP3    H150397   5.981   6.927   3.207  2.0906  1.6058 -1.7455
 8734TIP3    H250398   5.937   6.804   3.130  1.5269  0.4353  0.3620
 8735TIP3   OH250399   2.663   0.851   2.752  0.1196 -0.3726  0.1876
 8735TIP3    H150400   2.643   0.780   2.813 -0.0483 -0.0116  0.5615
 8735TIP3    H250401   2.756   0.867   2.765  0.1881 -0.6205  0.0003
 8736TIP3   OH250402   0.238   2.998   3.652  0.3090 -0.5814  0.3196
 8736TIP3    H150403   0.324   3.040   3.657  0.3243 -0.6413  0.6097
 8736TIP3    H250404   0.256   2.905   3.666  0.5694 -1.0737 -2.7223
 8737TIP3   OH250405   3.035   3.697   3.385  0.1053  0.0035 -0.5460
 8737TIP3    H150406   2.997   3.736   3.464  1.6815 -0.8818  0.7210
 8737TIP3    H250407   3.104   3.758   3.359 -0.4813  0.3498 -1.3383
 8738TIP3   OH250408   2.592   3.672   3.636 -0.2142  0.0846 -0.0621
 8738TIP3    H150409   2.678   3.680   3.676 -0.2341  0.7171 -0.1337
 8738TIP3    H250410   2.533   3.647   3.707  0.2089 -1.4536 -0.2188
 8739TIP3   OH250411   1.147   3.199   4.345  0.2728 -0.4669 -0.9252
 8739TIP3    H150412   1.217   3.223   4.284 -0.2531 -0.9484 -1.7425
 8739TIP3    H250413   1.073   3.178   4.288 -0.3545 -0.5459 -0.0938
 8740TIP3   OH250414   5.800   5.950   1.936 -0.0828 -0.0723 -0.1453
 8740TIP3    H150415   5.784   6.035   1.895  0.8368  0.7934  1.2118
 8740TIP3    H250416   5.717   5.903   1.928 -0.6410  0.9997 -0.8041
 8741TIP3   OH250417   2.886   4.791   4.795 -0.0077 -0.2465 -0.2047
 8741TIP3    H150418   2.809   4.789   4.850 -0.4779 -0.5989 -0.8678
 8741TIP3    H250419   2.895   4.883   4.769 -0.4146 -0.2674 -0.4178
 8742TIP3   OH250420   3.446   6.507   3.030 -0.2365  0.4200 -0.4094
 8742TIP3    H150421   3.360   6.515   2.990 -0.8271 -1.0545  0.4972
 8742TIP3    H250422   3.429   6.503   3.124  0.8147 -0.0554 -0.2214
 8743TIP3   OH250423   1.616   3.351   3.533 -0.2794 -0.0734  0.5026
 8743TIP3    H150424   1.566   3.431   3.550 -2.4978 -0.8986 -1.5832
 8743TIP3    H250425   1.559   3.281   3.566  1.1139 -0.9057  1.2307
 8744TIP3   OH250426   5.972   0.373   2.083  0.3936  0.0235 -0.1525
 8744TIP3    H150427   5.975   0.364   1.988  0.6186  1.2659 -0.2891
 8744TIP3    H250428   5.886   0.338   2.108  1.1509 -2.2669 -0.5351
 8745TIP3   OH250429   5.502   5.509   3.298  0.3028 -0.0145  0.8745
 8745TIP3    H150430   5.554   5.434   3.325 -2.4672 -2.1066  0.8585
 8745TIP3    H250431   5.448   5.531   3.374 -1.0926 -0.0992 -0.0356
 8746TIP3   OH250432   2.487   3.889   4.703  0.9833 -0.2859  0.0412
 8746TIP3    H150433   2.433   3.849   4.635  0.5656  2.0083 -1.1045
 8746TIP3    H250434   2.428   3.898   4.778 -0.1186  1.5343 -0.9598
 8747TIP3   OH250435   6.730   0.156   3.857 -0.3292 -0.0258 -0.0194
 8747TIP3    H150436   6.758   0.092   3.791 -0.8017  0.8694 -1.1298
 8747TIP3    H250437   6.763   0.240   3.824  0.2552  0.3319  1.3912
 8748TIP3   OH250438   1.641   0.980   3.046  0.0487  0.0247 -0.2872
 8748TIP3    H150439   1.551   0.973   3.077 -0.1809  0.0033 -0.9415
 8748TIP3    H250440   1.643   0.928   2.966 -0.1821  2.5625 -2.0540
 8749TIP3   OH250441   0.752   2.045   2.408 -0.3344  0.2588  0.6093
 8749TIP3    H150442   0.837   2.057   2.452  0.3600 -1.6548 -0.0969
 8749TIP3    H250443   0.705   2.127   2.424  0.9261  0.6705  2.5850
 8750TIP3   OH250444   1.681   2.345   3.549 -0.3111  1.0293  0.2375
 8750TIP3    H150445   1.756   2.353   3.608 -1.1944  1.1160  1.3828
 8750TIP3    H250446   1.651   2.435   3.536 -1.6110  0.8416  1.6758
 8751TIP3   OH250447   6.721   2.556   2.989 -0.3695 -0.2325  0.2398
 8751TIP3    H150448   6.806   2.551   2.946  0.0145  0.2636  0.9162
 8751TIP3    H250449   6.736   2.524   3.077 -0.8635 -0.0633  0.3945
 8752TIP3   OH250450   3.943   1.909   2.507  0.2515 -0.0075  0.2390
 8752TIP3    H150451   3.950   1.963   2.429 -0.2947 -0.9048 -0.4515
 8752TIP3    H250452   4.030   1.869   2.517  0.0748 -0.5684 -0.4247
 8753TIP3   OH250453   2.444   2.410   2.628 -0.0512 -0.1407 -0.7408
 8753TIP3    H150454   2.522   2.446   2.669  0.1832 -0.4775 -0.8787
 8753TIP3    H250455   2.424   2.470   2.556 -1.0672  1.0195  0.4688
 8754TIP3   OH250456   1.265   3.755   2.886 -0.1350  0.3084  0.0066
 8754TIP3    H150457   1.328   3.700   2.931 -2.3766 -1.4338  1.2043
 8754TIP3    H250458   1.279   3.737   2.793  1.2194  0.1114  0.2356
 8755TIP3   OH250459   1.725   2.068   5.646  0.1819 -0.8127 -0.1893
 8755TIP3    H150460   1.717   2.158   5.617  0.4933 -0.1890  1.5258
 8755TIP3    H250461   1.754   2.020   5.569  1.1241  0.7547 -0.8573
 8756TIP3   OH250462   1.903   3.628   2.157  0.0006 -0.0326  0.1291
 8756TIP3    H150463   1.949   3.712   2.168 -0.1549 -0.0853  1.2897
 8756TIP3    H250464   1.935   3.574   2.229  0.3433 -1.1032 -0.7956
 8757TIP3   OH250465   3.997   1.457   3.417  0.2999  0.1253 -0.4160
 8757TIP3    H150466   3.990   1.364   3.397  0.3287 -0.0464  0.3241
 8757TIP3    H250467   4.029   1.459   3.507  0.1336  0.8513 -0.3702
 8758TIP3   OH250468   0.484   7.468   3.593 -0.5390 -0.3411 -0.0007
 8758TIP3    H150469   0.417   7.400   3.597 -0.2777 -0.5484  2.2265
 8758TIP3    H250470   0.491   7.500   3.683  0.4877  1.5285 -0.6909
 8759TIP3   OH250471   0.937   7.634   3.225  0.0559 -0.2850  0.1241
 8759TIP3    H150472   0.943   7.712   3.169  0.6657  0.7644  1.5586
 8759TIP3    H250473   0.981   7.661   3.307 -0.4130 -1.8884  0.9398
 8760TIP3   OH250474   2.477   2.823   4.721 -0.1599 -0.0019  0.1211
 8760TIP3    H150475   2.468   2.919   4.719  1.0020  0.1244 -1.6008
 8760TIP3    H250476   2.547   2.808   4.784 -1.9527  0.0550  2.2324
 8761TIP3   OH250477   5.816   1.623   2.699  0.6169 -0.5824  0.2123
 8761TIP3    H150478   5.844   1.586   2.783 -0.1276  0.3705  0.9065
 8761TIP3    H250479   5.864   1.572   2.634  1.1823 -1.3785  1.2053
 8762TIP3   OH250480   5.729   1.278   2.752  0.0695 -0.3858 -0.6464
 8762TIP3    H150481   5.716   1.198   2.803 -0.5436 -0.4674 -0.9172
 8762TIP3    H250482   5.780   1.251   2.676 -1.7741 -0.9510 -1.7584
 8763TIP3   OH250483   0.450   2.085   2.621  0.3056 -0.1625 -0.0396
 8763TIP3    H150484   0.402   2.040   2.690  0.2299  0.6750  0.4624
 8763TIP3    H250485   0.426   2.038   2.541 -0.2201 -0.6457  0.3942
 8764TIP3   OH250486   7.578   6.607  10.850  0.2876 -0.1247  0.0695
 8764TIP3    H150487   7.549   6.516  10.858  0.7235 -0.2314  0.4572
 8764TIP3    H250488   7.516   6.646  10.788  1.8442 -1.4657 -2.5330
 8765TIP3   OH250489   4.464   4.039   4.478  0.3612  0.1863  0.0631
 8765TIP3    H150490   4.381   4.013   4.437  0.1837 -0.0064  0.5319
 8765TIP3    H250491   4.518   3.960   4.476  0.2625  0.1101  0.4180
 8766TIP3   OH250492   3.659   5.983   4.398  0.4151  0.4296 -0.0382
 8766TIP3    H150493   3.587   5.937   4.441 -1.3359  2.6338 -0.4634
 8766TIP3    H250494   3.735   5.967   4.455 -1.0382  0.3577  1.9662
 8767TIP3   OH250495   3.730   3.401   2.451 -0.1078 -0.4306  0.6558
 8767TIP3    H150496   3.688   3.434   2.371  0.9805  1.4161  0.8011
 8767TIP3    H250497   3.657   3.372   2.506 -1.0240  0.3863 -0.1007
 8768TIP3   OH250498   1.032   5.514   3.618  0.3888  0.3126  0.1377
 8768TIP3    H150499   1.061   5.508   3.710  0.8591 -0.0254 -0.0302
 8768TIP3    H250500   1.110   5.492   3.567  0.2313  0.8670 -0.3555
 8769TIP3   OH250501   4.232   5.835   2.843  0.3361  0.3353  0.4016
 8769TIP3    H150502   4.212   5.755   2.794 -1.1635  1.7959 -1.5291
 8769TIP3    H250503   4.156   5.849   2.899  0.2836  0.7456  0.2344
 8770TIP3   OH250504   0.084   5.307   4.662 -0.4063 -0.1581 -0.2577
 8770TIP3    H150505   0.067   5.245   4.592  0.8753 -0.3059 -0.4462
 8770TIP3    H250506   0.023   5.281   4.732 -1.3282 -0.3274 -1.0969
 8771TIP3   OH250507   1.411   0.938   3.169  0.3050  0.0931 -1.0256
 8771TIP3    H150508   1.369   0.933   3.255 -1.7579  0.1298 -1.9704
 8771TIP3    H250509   1.395   1.028   3.140  0.7180 -0.0054 -1.5645
 8772TIP3   OH250510   0.276   4.743   3.576  0.7298  0.0250 -0.4628
 8772TIP3    H150511   0.277   4.697   3.492  0.6978  0.3576 -0.6433
 8772TIP3    H250512   0.336   4.817   3.564 -0.2754  0.8306 -0.6151
 8773TIP3   OH250513   7.001   5.188   2.786  0.6824  0.2268 -0.6548
 8773TIP3    H150514   6.944   5.119   2.820 -1.1077  1.6558 -0.6508
 8773TIP3    H250515   7.074   5.192   2.848  1.8549 -2.8771 -1.6272
 8774TIP3   OH250516   4.406   5.768   4.987  0.2578  0.6141  0.0359
 8774TIP3    H150517   4.323   5.797   5.024  0.3146  0.5098  0.2435
 8774TIP3    H250518   4.385   5.685   4.944 -0.0443  1.2684 -1.1160
 8775TIP3   OH250519   5.679   5.547   3.545 -0.0367 -0.2318  0.1998
 8775TIP3    H150520   5.650   5.635   3.523 -1.2188  0.2650  3.2404
 8775TIP3    H250521   5.774   5.552   3.545 -0.0948  1.3428  1.2698
 8776TIP3   OH250522   4.164   1.897   8.258  0.1443  0.0064 -0.9594
 8776TIP3    H150523   4.183   1.990   8.265  0.7711 -0.0741 -1.5332
 8776TIP3    H250524   4.222   1.865   8.189 -0.7003 -0.6280 -1.4046
 8777TIP3   OH250525   2.737   2.159   3.465  0.4013  0.9094 -0.3543
 8777TIP3    H150526   2.797   2.221   3.424  2.5621 -2.3205 -2.5741
 8777TIP3    H250527   2.772   2.146   3.553  0.6297  1.8785 -0.2883
 8778TIP3   OH250528   3.817   4.696   3.699  0.7757 -0.2238 -0.1005
 8778TIP3    H150529   3.742   4.658   3.653  1.0765 -1.5836  0.4750
 8778TIP3    H250530   3.782   4.723   3.784  0.7588 -0.0189 -0.1707
 8779TIP3   OH250531   5.527   0.819   4.657 -0.3166  0.0496 -0.1163
 8779TIP3    H150532   5.470   0.830   4.733  0.3739  2.7881  0.1262
 8779TIP3    H250533   5.603   0.772   4.690 -1.6096 -2.1210 -0.0567
 8780TIP3   OH250534   3.041   1.651   3.154 -0.0517  0.6757  0.0888
 8780TIP3    H150535   3.022   1.571   3.203  1.2792  0.2029 -0.1254
 8780TIP3    H250536   2.962   1.704   3.162 -2.0117 -1.6863 -1.8012
 8781TIP3   OH250537   0.122   2.261   3.679  0.7814  0.0575 -0.1495
 8781TIP3    H150538   0.172   2.331   3.638  0.2068  0.5071 -0.0835
 8781TIP3    H250539   0.177   2.183   3.668  0.9985  0.3308 -1.0539
 8782TIP3   OH250540   6.979   3.835   4.013 -0.1203 -0.4342 -0.4005
 8782TIP3    H150541   6.904   3.799   3.965 -0.4968  0.4690 -0.4974
 8782TIP3    H250542   6.968   3.929   4.008  0.1125 -0.3087  1.0234
 8783TIP3   OH250543   6.696   2.082   2.479 -0.1227 -0.3173  0.1658
 8783TIP3    H150544   6.697   2.010   2.416  0.9022 -0.7113  0.6001
 8783TIP3    H250545   6.605   2.110   2.483 -0.7206 -2.2064  0.6637
 8784TIP3   OH250546   0.447   3.502   3.958  0.1591  0.3501  0.5938
 8784TIP3    H150547   0.504   3.522   3.884 -0.2570  0.8412  0.3993
 8784TIP3    H250548   0.493   3.433   4.005  0.6435  0.3427  0.1273
 8785TIP3   OH250549   0.230   5.180   4.001 -0.0126  0.5245 -0.2937
 8785TIP3    H150550   0.313   5.185   3.954  0.8170 -0.3687  1.0237
 8785TIP3    H250551   0.171   5.135   3.939 -0.2555  3.1610 -2.1368
 8786TIP3   OH250552   4.531   0.827   4.317  0.3034 -0.2784  0.3977
 8786TIP3    H150553   4.610   0.816   4.369 -0.3953 -1.9702  1.2006
 8786TIP3    H250554   4.537   0.915   4.281  2.1480 -0.0855  1.0908
 8787TIP3   OH250555   2.323   0.637   2.937  0.1573  0.2187 -0.2650
 8787TIP3    H150556   2.236   0.676   2.946  0.2799  0.8108 -1.4347
 8787TIP3    H250557   2.307   0.542   2.943 -0.2245  0.3678  1.9615
 8788TIP3   OH250558   7.171   0.774   4.621 -0.1355  0.1622 -0.8061
 8788TIP3    H150559   7.091   0.740   4.581 -0.2443  0.9413 -1.2588
 8788TIP3    H250560   7.179   0.863   4.587  0.4834  0.3735 -0.1240
 8789TIP3   OH250561   5.866   2.155   3.825 -0.4161 -0.3064  0.3020
 8789TIP3    H150562   5.949   2.147   3.779 -1.1451 -2.6217 -0.7362
 8789TIP3    H250563   5.883   2.117   3.912 -0.2516 -0.2292  0.3040
 8790TIP3   OH250564   1.816   0.016   2.374 -0.4382  0.4361  0.0372
 8790TIP3    H150565   1.734  -0.032   2.367  0.7609 -1.5199 -2.6694
 8790TIP3    H250566   1.872  -0.039   2.427  0.0880  0.1628 -0.7837
 8791TIP3   OH250567   3.112   3.409   3.280 -0.0511  0.1221 -0.4204
 8791TIP3    H150568   3.208   3.409   3.284 -0.0516 -1.0398  3.1524
 8791TIP3    H250569   3.088   3.501   3.288  0.7989  0.3522 -0.4169
 8792TIP3   OH250570   4.414   6.683   3.023 -0.7346  0.0149  0.2065
 8792TIP3    H150571   4.370   6.767   3.011 -0.3600  0.5239  2.0911
 8792TIP3    H250572   4.416   6.644   2.935 -0.3866  2.2212 -0.8221
 8793TIP3   OH250573   4.254   3.609   2.650  0.5733  0.1524  0.3446
 8793TIP3    H150574   4.325   3.641   2.706 -0.3799  1.7366  0.7083
 8793TIP3    H250575   4.219   3.534   2.698  2.1039 -0.7977  0.0508
 8794TIP3   OH250576   5.820   5.991   2.823 -0.5193  0.2145 -0.1959
 8794TIP3    H150577   5.913   5.997   2.845 -0.6201 -2.0034  1.1073
 8794TIP3    H250578   5.800   6.075   2.782  1.1616  2.2739  2.8023
 8795TIP3   OH250579   4.076   5.978   3.181 -0.1066  0.2872  0.2018
 8795TIP3    H150580   4.116   6.023   3.255  0.7847  1.4988 -0.9839
 8795TIP3    H250581   4.013   6.040   3.145 -3.3068 -1.5866  2.0615
 8796TIP3   OH250582   4.683   6.677   3.878  0.1441 -0.0529 -0.1936
 8796TIP3    H150583   4.677   6.704   3.786  1.4370  0.5477 -0.1282
 8796TIP3    H250584   4.697   6.758   3.926 -0.7837 -0.3343  0.5783
 8797TIP3   OH250585   4.954   5.318   3.576 -0.5113  0.1606 -0.2562
 8797TIP3    H150586   5.043   5.284   3.579 -1.0538 -1.3470 -0.1131
 8797TIP3    H250587   4.930   5.311   3.483 -1.0342 -1.0332 -0.0500
 8798TIP3   OH250588   5.975   5.534   3.110  0.0108 -0.6479 -0.1977
 8798TIP3    H150589   5.889   5.572   3.129  0.8609  0.8245  0.9799
 8798TIP3    H250590   6.018   5.599   3.054  0.8036 -0.7520  0.2691
 8799TIP3   OH250591   6.396   4.490   3.195  0.7121 -1.2465  0.2000
 8799TIP3    H150592   6.490   4.503   3.206  0.5637 -0.5955  0.7633
 8799TIP3    H250593   6.357   4.574   3.218  0.1911 -0.2289 -3.7413
 8800TIP3   OH250594   1.404   7.079   4.156  0.0100  0.2906  0.5626
 8800TIP3    H150595   1.498   7.090   4.142 -0.3232  0.1615 -2.4539
 8800TIP3    H250596   1.365   7.160   4.123 -0.9708  0.3185  1.7177
 8801TIP3   OH250597   7.568   6.506   4.063  0.2024 -0.3004 -0.0379
 8801TIP3    H150598   7.516   6.526   4.141  0.4592  0.0797  0.0354
 8801TIP3    H250599   7.653   6.479   4.097 -0.2613 -1.9990 -0.1048
 8802TIP3   OH250600   3.324   7.182   3.495 -0.2117 -0.0062  0.2348
 8802TIP3    H150601   3.240   7.225   3.506 -0.4915 -0.5977  0.4573
 8802TIP3    H250602   3.334   7.173   3.400 -0.7516 -0.6026  0.2268
 8803TIP3   OH250603   0.244   6.428   4.594  0.1896  0.0559  0.0911
 8803TIP3    H150604   0.310   6.493   4.618 -1.0088  1.3264  0.1109
 8803TIP3    H250605   0.193   6.416   4.674  0.5083 -1.0709  0.1365
 8804TIP3   OH250606   2.634   2.290   3.830 -0.1253  0.2946  0.3477
 8804TIP3    H150607   2.712   2.323   3.875  2.2383 -1.3614 -2.2102
 8804TIP3    H250608   2.589   2.369   3.799  2.3964  1.3348 -0.9480
 8805TIP3   OH250609   5.036   2.172   3.533 -0.2227 -0.0064 -0.4137
 8805TIP3    H150610   5.074   2.085   3.546  0.0655  0.1854  0.0415
 8805TIP3    H250611   4.965   2.177   3.598  0.0045  0.2417 -0.1847
 8806TIP3   OH250612   6.237   3.728   2.928  0.0394 -0.0165  0.3208
 8806TIP3    H150613   6.319   3.730   2.977  1.7335 -0.5948 -2.2775
 8806TIP3    H250614   6.191   3.650   2.961  0.8247 -0.0467  1.3683
 8807TIP3   OH250615   7.613   3.047   4.051  0.4762 -0.3019 -0.4592
 8807TIP3    H150616   7.684   2.984   4.039 -1.0319 -2.1860  0.0601
 8807TIP3    H250617   7.542   3.014   3.996 -0.6597  0.4548  0.5078
 8808TIP3   OH250618   0.829   5.731   3.214  0.0236 -0.1701 -0.7717
 8808TIP3    H150619   0.860   5.658   3.267  2.0125  2.5796  2.2801
 8808TIP3    H250620   0.892   5.739   3.142  1.5198  0.1789  0.5232
 8809TIP3   OH250621   4.402   1.128   4.476 -0.0285  0.4205 -0.0742
 8809TIP3    H150622   4.335   1.137   4.544  1.0769  0.9480  0.9974
 8809TIP3    H250623   4.485   1.128   4.525  0.7930  0.7038 -1.4287
 8810TIP3   OH250624   0.903   6.968   4.993  0.6357 -0.1890  0.5750
 8810TIP3    H150625   0.967   7.039   5.003  0.3161  0.5193 -1.8909
 8810TIP3    H250626   0.819   7.010   5.010  0.4531  0.0341 -0.8051
 8811TIP3   OH250627   3.072   1.625   3.789  0.4932  0.3135 -0.8002
 8811TIP3    H150628   3.048   1.536   3.812 -0.3473  0.6325 -0.4083
 8811TIP3    H250629   3.035   1.638   3.701 -0.5233  0.6943 -0.3316
 8812TIP3   OH250630   6.467   1.744   3.104 -0.1033 -0.2681  0.5715
 8812TIP3    H150631   6.491   1.777   3.018  0.0144  0.0243  0.7149
 8812TIP3    H250632   6.528   1.673   3.121 -0.2283 -0.4287  0.3476
 8813TIP3   OH250633   1.031   0.899   3.520  0.0611  0.6548  0.4302
 8813TIP3    H150634   0.990   0.982   3.496 -2.3046 -0.3238  0.8175
 8813TIP3    H250635   1.002   0.882   3.609  1.4000 -0.0988  0.7555
 8814TIP3   OH250636   0.616   6.005   4.304 -0.6647  0.3205 -0.0032
 8814TIP3    H150637   0.562   5.972   4.376 -1.0216 -0.0302 -0.4326
 8814TIP3    H250638   0.591   5.952   4.229  1.1716 -0.6998  0.0608
 8815TIP3   OH250639   6.040   6.122   4.857  0.1334  0.2915  0.1349
 8815TIP3    H150640   6.044   6.043   4.910 -0.3621 -0.8080 -1.3984
 8815TIP3    H250641   5.966   6.172   4.893  0.8052  0.3576  1.4698
 8816TIP3   OH250642   7.298   3.035   3.723  0.0213 -0.6806  0.1585
 8816TIP3    H150643   7.348   3.082   3.656 -0.7693 -1.3556 -0.9410
 8816TIP3    H250644   7.206   3.046   3.697 -0.4801  0.7111  2.2470
 8817TIP3   OH250645   7.107   5.734   4.316 -0.8414  0.0080  0.1997
 8817TIP3    H150646   7.040   5.724   4.384 -0.1642 -0.8074  0.7497
 8817TIP3    H250647   7.190   5.736   4.363 -0.4627  1.1510 -0.4734
 8818TIP3   OH250648   3.222   2.186   3.905 -0.3909 -0.3504 -0.0331
 8818TIP3    H150649   3.137   2.228   3.890 -0.1021  0.3945  0.4154
 8818TIP3    H250650   3.223   2.112   3.843 -0.5188  0.8113 -1.4662
 8819TIP3   OH250651   0.696   3.918   3.659 -0.2013  0.1628  1.0360
 8819TIP3    H150652   0.697   4.008   3.691  1.2099  1.4724 -2.2623
 8819TIP3    H250653   0.628   3.918   3.591  1.6176 -0.4048 -0.8921
 8820TIP3   OH250654   5.574   0.061   2.331  0.0202  0.2223  0.2443
 8820TIP3    H150655   5.489   0.079   2.371 -0.6360  0.7021 -1.2571
 8820TIP3    H250656   5.571  -0.031   2.307 -0.3656  0.3934 -0.3996
 8821TIP3   OH250657   5.907   5.857   3.259  0.3549  0.1410 -0.1466
 8821TIP3    H150658   5.993   5.823   3.235  0.2483 -0.4580  0.2955
 8821TIP3    H250659   5.845   5.787   3.235  0.2070 -0.3198  1.4288
 8822TIP3   OH250660   6.585   4.567   2.602  0.5125 -0.5156 -0.0826
 8822TIP3    H150661   6.540   4.606   2.677  2.8581  2.5312 -0.0624
 8822TIP3    H250662   6.554   4.616   2.526  2.8470  1.0118 -0.1755
 8823TIP3   OH250663   2.333   0.014   3.831 -0.0851  0.1726 -0.2898
 8823TIP3    H150664   2.281   0.094   3.822 -1.3720 -0.5068  0.6101
 8823TIP3    H250665   2.335  -0.024   3.744 -0.4494  0.6071 -0.4895
 8824TIP3   OH250666   1.822   2.803   4.278  0.2953 -0.6325 -0.6428
 8824TIP3    H150667   1.843   2.809   4.185 -0.4028  0.6534 -0.7288
 8824TIP3    H250668   1.892   2.851   4.322  0.2676 -0.6776 -0.5490
 8825TIP3   OH250669   7.654   5.947   3.161  0.4294  0.3047  0.3015
 8825TIP3    H150670   7.569   5.968   3.200 -0.1680 -1.9503  0.4009
 8825TIP3    H250671   7.700   5.899   3.229  1.7059  1.2817  0.1506
 8826TIP3   OH250672   1.096   1.211   5.620  0.1539  0.4954 -0.0149
 8826TIP3    H150673   1.052   1.292   5.646  2.0428  1.6215 -0.1324
 8826TIP3    H250674   1.056   1.187   5.537 -1.8068  0.1676  0.9718
 8827TIP3   OH250675   4.923   5.340   3.288 -0.1779 -0.5992  0.2492
 8827TIP3    H150676   4.943   5.430   3.260  1.4521 -0.6724  1.0620
 8827TIP3    H250677   4.880   5.300   3.212 -1.2804  0.9477 -0.0058
 8828TIP3   OH250678   0.977   2.556   3.394 -0.2804 -0.1649  0.2212
 8828TIP3    H150679   0.993   2.520   3.481  1.2598  1.6857  0.7885
 8828TIP3    H250680   1.037   2.509   3.336 -1.0965 -1.1890  0.1691
 8829TIP3   OH250681   4.010   7.576   3.987  0.1514  0.0694 -0.3093
 8829TIP3    H150682   4.034   7.506   3.926 -0.4676 -2.0691  1.7562
 8829TIP3    H250683   3.914   7.573   3.991  0.1823 -0.0659  0.9542
 8830TIP3   OH250684   6.702   3.729   2.791 -0.1831  0.1636 -0.0989
 8830TIP3    H150685   6.652   3.664   2.840 -0.9650 -0.3474 -1.5153
 8830TIP3    H250686   6.704   3.695   2.702  2.1809  0.4914 -0.2257
 8831TIP3   OH250687   1.743   2.547   2.310  0.5297 -0.3224 -0.3559
 8831TIP3    H150688   1.764   2.465   2.356 -1.3104 -1.4349 -1.3555
 8831TIP3    H250689   1.791   2.614   2.357  0.1499 -1.6345  2.0863
 8832TIP3   OH250690   5.594   4.662   2.649  0.1923  0.1362 -0.4189
 8832TIP3    H150691   5.551   4.615   2.577  0.9658 -1.3328  0.0495
 8832TIP3    H250692   5.525   4.717   2.685 -1.1823 -1.7046 -0.0843
 8833TIP3   OH250693   2.141   7.541   3.657 -1.1009  0.5708  0.8804
 8833TIP3    H150694   2.076   7.588   3.710 -1.3566  2.4663 -1.0030
 8833TIP3    H250695   2.105   7.541   3.569 -0.4211 -2.0287  0.5193
 8834TIP3   OH250696   0.892   5.587   4.612  0.1398 -0.4229 -0.0385
 8834TIP3    H150697   0.885   5.508   4.558 -1.1679  1.0704 -2.2175
 8834TIP3    H250698   0.812   5.588   4.664 -0.5152  0.0773 -1.0039
 8835TIP3   OH250699   2.480   1.885   3.228  0.5037  0.4279 -0.6223
 8835TIP3    H150700   2.438   1.870   3.143 -0.1333 -0.0857 -0.2245
 8835TIP3    H250701   2.497   1.797   3.262 -0.5948  0.5890  0.4243
 8836TIP3   OH250702   3.144   6.937   2.250 -0.6616 -0.3708 -0.7401
 8836TIP3    H150703   3.223   6.987   2.229 -0.6895 -1.1150 -2.8705
 8836TIP3    H250704   3.157   6.853   2.205 -1.8818 -1.1976  0.3882
 8837TIP3   OH250705   3.207   4.891   4.847 -0.2489  0.0899 -0.3417
 8837TIP3    H150706   3.151   4.883   4.925  1.8273  0.9051  1.3283
 8837TIP3    H250707   3.185   4.977   4.811  0.3199  0.6869  0.6793
 8838TIP3   OH250708   4.306   0.762   3.309 -0.3449 -0.3823  0.6530
 8838TIP3    H150709   4.359   0.755   3.388 -0.5141  1.7647  1.0337
 8838TIP3    H250710   4.219   0.786   3.341  0.1153  2.8463 -0.1855
 8839TIP3   OH250711   0.688   4.578   4.720 -0.5241 -0.3018 -0.0340
 8839TIP3    H150712   0.706   4.528   4.640 -1.1057 -0.0045 -0.3591
 8839TIP3    H250713   0.764   4.634   4.731 -0.0539 -0.9554  0.1010
 8840TIP3   OH250714   2.366   6.006   4.182 -0.7669  0.3373  0.2893
 8840TIP3    H150715   2.361   6.101   4.176 -2.3387  0.2815  0.4588
 8840TIP3    H250716   2.313   5.984   4.258  1.3456 -0.5500  1.6138
 8841TIP3   OH250717   3.024   6.842   2.905  0.1791  0.0024 -0.0161
 8841TIP3    H150718   2.941   6.841   2.953 -0.4932  0.8793 -1.1185
 8841TIP3    H250719   3.039   6.934   2.884 -0.3755 -0.4553 -2.8346
 8842TIP3   OH250720   5.005   6.036   2.474  0.4065 -0.1762  0.2436
 8842TIP3    H150721   5.094   6.018   2.443  0.2318 -2.2833  0.8067
 8842TIP3    H250722   5.015   6.050   2.569  0.0182 -1.6889  0.5277
 8843TIP3   OH250723   1.922   4.355   2.966 -0.3292  0.1044 -0.2410
 8843TIP3    H150724   1.979   4.305   2.908  0.7454  0.2166  0.6785
 8843TIP3    H250725   1.840   4.307   2.967  0.4900 -1.3210  0.1779
 8844TIP3   OH250726   6.667   2.178   3.989  0.4673 -0.1833  0.7472
 8844TIP3    H150727   6.573   2.175   3.975  0.6681  3.2260 -3.9590
 8844TIP3    H250728   6.679   2.237   4.063 -1.1043  0.0597  0.8303
 8845TIP3   OH250729   1.049   7.334   2.882 -0.2321  0.3035 -0.7401
 8845TIP3    H150730   1.038   7.367   2.971 -0.6570  0.2858 -0.7834
 8845TIP3    H250731   1.034   7.411   2.826 -0.3062  0.2395 -0.8084
 8846TIP3   OH250732   2.554   2.526   3.686  0.1281 -0.0708  0.0402
 8846TIP3    H150733   2.598   2.552   3.605  1.0055  0.8404  0.7943
 8846TIP3    H250734   2.546   2.607   3.736  3.1969 -1.1170  2.5853
 8847TIP3   OH250735   7.580   6.356   5.026 -0.2049  0.1702 -0.0447
 8847TIP3    H150736   7.579   6.402   5.110 -1.8596  1.1738 -0.5645
 8847TIP3    H250737   7.534   6.414   4.966 -0.2140 -1.1085 -1.3445
 8848TIP3   OH250738   3.331   5.951   2.477 -0.1507 -0.4969  0.2177
 8848TIP3    H150739   3.320   5.893   2.401 -1.0197 -1.2989  0.9264
 8848TIP3    H250740   3.242   5.973   2.503  0.1173 -0.8298  1.4505
 8849TIP3   OH250741   2.540   7.439   4.121 -0.2654  0.1360 -0.3012
 8849TIP3    H150742   2.545   7.447   4.026 -2.8424 -0.4646 -0.5630
 8849TIP3    H250743   2.590   7.360   4.141  2.0859  1.4073 -0.8546
 8850TIP3   OH250744   0.910   4.770   4.667 -0.2126  0.9000  0.2604
 8850TIP3    H150745   0.978   4.834   4.686 -0.4877  0.5004  2.9917
 8850TIP3    H250746   0.956   4.697   4.625  1.3311  0.2614  2.8218
 8851TIP3   OH250747   4.444   1.436   4.444 -0.3072  0.1222  0.4144
 8851TIP3    H150748   4.369   1.435   4.504 -0.4094 -1.7394  0.3097
 8851TIP3    H250749   4.434   1.357   4.391  1.5824 -0.0279  0.2137
 8852TIP3   OH250750   4.487   2.443   4.375  0.2598  0.0786 -0.1601
 8852TIP3    H150751   4.408   2.449   4.430  1.3383 -2.7491  1.9048
 8852TIP3    H250752   4.458   2.393   4.298 -0.0459 -0.7074  0.4525
 8853TIP3   OH250753   1.404   6.460   4.555  0.6368  0.0161  0.3066
 8853TIP3    H150754   1.373   6.549   4.542 -0.2837 -0.5141 -1.5735
 8853TIP3    H250755   1.484   6.469   4.606  0.3357  1.8732  0.5161
 8854TIP3   OH250756   2.152   2.976   4.539  0.1229 -0.3969 -0.0035
 8854TIP3    H150757   2.104   2.896   4.519  0.7442 -0.8143  0.1388
 8854TIP3    H250758   2.243   2.955   4.520  0.2845  0.3054 -0.0426
 8855TIP3   OH250759   0.496   4.014   2.361  0.1629 -0.1089 -0.0379
 8855TIP3    H150760   0.419   3.961   2.340 -0.3469  0.9999 -1.1875
 8855TIP3    H250761   0.478   4.049   2.448 -0.8892  0.5225 -0.4893
 8856TIP3   OH250762   2.909   5.278   2.776  0.2950  0.6538  0.4508
 8856TIP3    H150763   2.993   5.253   2.738 -1.1189 -1.4231 -1.5887
 8856TIP3    H250764   2.846   5.265   2.706 -2.0309  0.1747  2.4878
 8857TIP3   OH250765   5.553   2.933   3.098 -0.1070  0.0889 -0.0195
 8857TIP3    H150766   5.546   2.880   3.177 -0.3606 -1.8843 -1.2877
 8857TIP3    H250767   5.647   2.955   3.093 -0.3301  1.6996  1.6518
 8858TIP3   OH250768   5.421   2.136   3.838  0.3506 -0.2458  0.2305
 8858TIP3    H150769   5.335   2.178   3.833  0.6443  0.2803 -0.7395
 8858TIP3    H250770   5.427   2.085   3.757  1.4121  0.6502 -0.2824
 8859TIP3   OH250771   0.877   1.661   3.248 -0.0310  0.0558  0.1579
 8859TIP3    H150772   0.840   1.662   3.160  0.0248 -2.4490  0.0528
 8859TIP3    H250773   0.968   1.635   3.236  0.4239  1.2007  0.8718
 8860TIP3   OH250774   5.027   1.502   2.416 -0.2370 -0.0651  0.1412
 8860TIP3    H150775   5.080   1.567   2.462 -1.8223 -0.1501  2.2503
 8860TIP3    H250776   5.036   1.524   2.323  3.2827  0.0032  0.3728
 8861TIP3   OH250777   2.909   2.936   4.779 -0.0704 -0.0689 -0.1543
 8861TIP3    H150778   2.952   3.016   4.810 -0.0470  0.1111 -0.6397
 8861TIP3    H250779   2.831   2.928   4.834 -0.9749  1.2131 -1.1850
 8862TIP3   OH250780   7.276   2.282   4.042 -0.7230  0.0782 -0.0402
 8862TIP3    H150781   7.202   2.249   3.993  0.4868  0.7338 -2.4461
 8862TIP3    H250782   7.339   2.210   4.043 -0.6847  0.1096  0.4928
 8863TIP3   OH250783   1.267   6.201   4.652  0.4490  0.0265  0.3997
 8863TIP3    H150784   1.224   6.125   4.612  1.9342 -0.2448 -0.7798
 8863TIP3    H250785   1.222   6.276   4.614  0.4676 -0.2563 -0.1967
 8864TIP3   OH250786   2.927   3.872   2.726  0.1844 -0.8158  0.5000
 8864TIP3    H150787   2.833   3.878   2.709  0.6423  0.9172 -2.1244
 8864TIP3    H250788   2.954   3.962   2.742  1.7793 -0.7813 -1.8136
 8865TIP3   OH250789   4.723   5.342   3.091  0.1148  0.2851 -0.3339
 8865TIP3    H150790   4.648   5.369   3.039  0.4486  2.0519  0.0289
 8865TIP3    H250791   4.692   5.346   3.182  0.5254  0.6701 -0.2058
 8866TIP3   OH250792   0.226   7.201   4.291 -0.3492 -0.1717 -0.3973
 8866TIP3    H150793   0.224   7.227   4.199 -0.2824 -0.3315 -0.4453
 8866TIP3    H250794   0.138   7.218   4.324 -0.3543 -0.0527 -0.4738
 8867TIP3   OH250795   5.084   0.541   2.649  0.6657 -0.3001  0.0411
 8867TIP3    H150796   5.116   0.451   2.660 -1.0818 -0.9352  0.2242
 8867TIP3    H250797   4.989   0.534   2.658  0.5104  1.6130  0.2997
 8868TIP3   OH250798   2.072   5.338   3.609  0.1328  0.0988 -0.4550
 8868TIP3    H150799   2.091   5.417   3.558  1.4552  0.5844  0.7116
 8868TIP3    H250800   2.158   5.298   3.624 -0.4874 -1.4447 -0.8032
 8869TIP3   OH250801   3.524   1.010   2.086 -0.4441  0.1893  0.0829
 8869TIP3    H150802   3.525   1.011   2.182 -1.1397  0.2859  0.0948
 8869TIP3    H250803   3.616   1.015   2.061 -0.2285 -0.3584  0.7479
 8870TIP3   OH250804   2.436   7.220   2.860 -0.1720  0.1060 -0.6598
 8870TIP3    H150805   2.515   7.169   2.881  1.7599  3.2531  0.3630
 8870TIP3    H250806   2.372   7.192   2.925  1.1412 -0.2981  0.5137
 8871TIP3   OH250807   6.827   5.910   3.904 -0.0754 -0.2471  0.1746
 8871TIP3    H150808   6.868   5.936   3.822  1.6351 -0.5658  0.8800
 8871TIP3    H250809   6.794   5.822   3.888  1.1738 -0.7248  0.1066
 8872TIP3   OH250810   3.659   6.571   3.950  0.1088  0.2897 -0.0476
 8872TIP3    H150811   3.603   6.606   4.019 -0.2575  1.4557 -0.9056
 8872TIP3    H250812   3.715   6.644   3.924  0.3250 -0.1580 -0.8973
 8873TIP3   OH250813   2.117   3.651   4.005  0.0833 -0.3283  0.2847
 8873TIP3    H150814   2.159   3.595   4.071  0.3080  1.4777  1.7500
 8873TIP3    H250815   2.146   3.740   4.027 -0.8036  0.4639 -1.5481
 8874TIP3   OH250816   3.320   5.176   3.015  0.4709 -0.5718  0.1189
 8874TIP3    H150817   3.331   5.179   3.110  1.7685  0.9444 -0.0290
 8874TIP3    H250818   3.258   5.247   2.996  1.7191  0.4567 -0.2922
 8875TIP3   OH250819   3.538   6.775   3.261 -0.3485 -0.3928 -0.0786
 8875TIP3    H150820   3.446   6.754   3.247 -0.6728  0.4756  0.7080
 8875TIP3    H250821   3.562   6.829   3.185  0.1838 -2.4960 -1.5155
 8876TIP3   OH250822   2.476   2.111   3.419  0.0237 -0.3085 -0.0398
 8876TIP3    H150823   2.453   2.027   3.379  0.3893  0.2977 -1.5884
 8876TIP3    H250824   2.571   2.115   3.412  0.1581 -0.4605  1.5039
 8877TIP3   OH250825   1.373   5.619   3.647  0.6027 -0.2773 -0.1749
 8877TIP3    H150826   1.335   5.619   3.735  0.0898  0.0831 -0.3948
 8877TIP3    H250827   1.413   5.706   3.639  2.0365 -0.8614  0.2857
 8878TIP3   OH250828   2.869   2.865   3.350  0.0146  0.1628 -0.5111
 8878TIP3    H150829   2.819   2.869   3.268 -0.1793  1.5388 -0.3507
 8878TIP3    H250830   2.806   2.891   3.417  0.8639  1.7250 -0.2822
 8879TIP3   OH250831   1.545   4.437   8.889 -0.0500  0.0488 -0.3869
 8879TIP3    H150832   1.540   4.371   8.820 -1.1799 -0.9974  0.6382
 8879TIP3    H250833   1.523   4.389   8.969  0.6745  1.3474  0.6156
 8880TIP3   OH250834   1.732   3.569   2.562 -0.8023  0.0118 -0.5618
 8880TIP3    H150835   1.726   3.661   2.534 -2.3035 -0.2071 -1.0334
 8880TIP3    H250836   1.796   3.530   2.502  0.0545  0.7926 -0.1824
 8881TIP3   OH250837   5.422   4.450   3.799 -0.0102 -0.5195 -0.3887
 8881TIP3    H150838   5.428   4.390   3.873  2.1550 -0.7078 -0.6608
 8881TIP3    H250839   5.331   4.442   3.770 -0.1404 -2.6995  0.3970
 8882TIP3   OH250840   5.717   7.073   4.681  0.5734 -0.5366 -0.2141
 8882TIP3    H150841   5.668   7.066   4.599 -0.8630  1.9595  0.3166
 8882TIP3    H250842   5.787   7.008   4.674  1.9986  1.1413 -4.4403
 8883TIP3   OH250843   4.614   5.966   3.896 -0.1433 -0.0956  0.0272
 8883TIP3    H150844   4.618   5.896   3.831  0.1989  1.9735 -2.3562
 8883TIP3    H250845   4.682   6.028   3.869  0.0476  0.8419  2.4356
 8884TIP3   OH250846   3.117   0.539   4.057  0.6621  0.3588 -0.4544
 8884TIP3    H150847   3.094   0.463   4.003  1.0800 -0.0284 -0.1000
 8884TIP3    H250848   3.133   0.502   4.144 -1.6356  1.1970  0.3693
 8885TIP3   OH250849   2.705   2.241   5.254 -0.4539 -0.5288 -0.1656
 8885TIP3    H150850   2.611   2.234   5.264 -0.8282  2.9463 -0.0090
 8885TIP3    H250851   2.740   2.227   5.342 -1.0614  0.3469  0.2304
 8886TIP3   OH250852   0.786   3.791   3.100 -0.4347  0.5542 -0.1865
 8886TIP3    H150853   0.867   3.840   3.085 -0.8215  1.8167  1.5053
 8886TIP3    H250854   0.786   3.722   3.034  1.1988  1.5499 -1.2753
 8887TIP3   OH250855   6.903   4.646   2.442 -0.2352  0.2084  0.3519
 8887TIP3    H150856   6.988   4.617   2.476  1.0348  2.2762 -0.8399
 8887TIP3    H250857   6.852   4.669   2.519  1.2132  1.2827  1.0264
 8888TIP3   OH250858   4.322   6.869   3.850  0.8452  0.3873 -0.2795
 8888TIP3    H150859   4.292   6.831   3.933  3.0197 -0.0344  0.4022
 8888TIP3    H250860   4.331   6.962   3.867  0.7607  0.3787 -0.1947
 8889TIP3   OH250861   1.146   4.886   4.212  0.1639  0.0464 -0.7956
 8889TIP3    H150862   1.180   4.967   4.174  1.6457 -0.9731 -1.7345
 8889TIP3    H250863   1.223   4.830   4.222 -1.0094 -1.7598 -1.4368
 8890TIP3   OH250864   7.231   7.534   2.161  0.2846 -0.2006 -0.4373
 8890TIP3    H150865   7.198   7.529   2.250 -0.4690  0.1904 -0.6842
 8890TIP3    H250866   7.314   7.486   2.163 -0.6019 -1.7734  0.0650
 8891TIP3   OH250867   6.632   6.671   3.462 -0.1559 -0.5810 -0.1153
 8891TIP3    H150868   6.646   6.665   3.368  0.9110  5.1857 -0.7058
 8891TIP3    H250869   6.717   6.651   3.501 -0.2478 -1.6556 -0.4408
 8892TIP3   OH250870   0.247   6.584   4.090  0.0984  0.1846  0.2543
 8892TIP3    H150871   0.229   6.585   3.996 -2.3287  0.4666  0.6414
 8892TIP3    H250872   0.272   6.673   4.111  0.3053  0.2040 -0.0772
 8893TIP3   OH250873   0.483   1.403   3.956 -0.3625 -0.1762 -0.0242
 8893TIP3    H150874   0.390   1.423   3.971 -0.4809 -0.2843 -0.6086
 8893TIP3    H250875   0.498   1.425   3.864  0.2007 -0.1381  0.0723
 8894TIP3   OH250876   3.078   7.411   3.361  0.0460  0.1025  0.0041
 8894TIP3    H150877   3.104   7.373   3.277  2.1733 -0.0868  0.6979
 8894TIP3    H250878   3.089   7.505   3.350 -0.0654  0.1097 -0.0499
 8895TIP3   OH250879   1.737   3.252   1.958 -0.2228  0.2859  0.1714
 8895TIP3    H150880   1.751   3.170   2.005  2.0861  0.4642 -0.0869
 8895TIP3    H250881   1.642   3.266   1.960 -0.6390 -2.2192  0.4852
 8896TIP3   OH250882   4.961   0.563   4.510 -0.4467  0.3574  0.2684
 8896TIP3    H150883   4.868   0.580   4.526 -1.2217 -1.7248 -1.4988
 8896TIP3    H250884   4.971   0.469   4.520  1.5011  0.5377  0.4218
 8897TIP3   OH250885   4.605   2.766   3.381  0.2401  0.2197  0.0571
 8897TIP3    H150886   4.666   2.794   3.313 -0.6981  0.5643 -0.6601
 8897TIP3    H250887   4.657   2.770   3.462  1.0291  0.9762 -0.4622
 8898TIP3   OH250888   1.065   7.384   4.261 -0.0028  0.0095 -0.2943
 8898TIP3    H150889   1.116   7.424   4.331 -1.2854  0.6222  0.3204
 8898TIP3    H250890   1.030   7.304   4.300 -0.4018  0.1533 -0.3486
 8899TIP3   OH250891   5.564   2.055   3.184 -0.4840 -0.2104  0.9881
 8899TIP3    H150892   5.626   2.013   3.123 -0.3355 -1.0176  1.6694
 8899TIP3    H250893   5.615   2.071   3.263 -0.8821  0.0688  1.1913
 8900TIP3   OH250894   7.123   6.386   4.375 -0.1305  0.2865  0.0130
 8900TIP3    H150895   7.182   6.312   4.360  0.2601  0.7116 -0.5968
 8900TIP3    H250896   7.136   6.409   4.467  1.0294  0.6913 -0.2356
 8901TIP3   OH250897   0.268   0.883   4.584  0.1508  0.2593 -0.6215
 8901TIP3    H150898   0.315   0.927   4.654 -1.3144 -0.9286  1.1893
 8901TIP3    H250899   0.336   0.840   4.533  1.1705 -0.2181  1.0681
 8902TIP3   OH250900   2.319   1.482   3.371 -0.7319 -0.0214  0.0943
 8902TIP3    H150901   2.249   1.510   3.311  0.0515  0.0569 -0.8162
 8902TIP3    H250902   2.398   1.523   3.335 -0.1258 -0.5797  0.7712
 8903TIP3   OH250903   3.377   3.424   3.307 -0.0260 -0.3637  0.4466
 8903TIP3    H150904   3.391   3.449   3.215 -0.4137  0.1838  0.5344
 8903TIP3    H250905   3.465   3.407   3.340  0.2456  0.8273  0.3629
 8904TIP3   OH250906   6.577   0.565   3.775 -0.0512  0.1765  0.2618
 8904TIP3    H150907   6.558   0.484   3.727  0.5239 -1.1188  2.1401
 8904TIP3    H250908   6.500   0.619   3.761 -0.3023 -0.5156 -1.3243
 8905TIP3   OH250909   1.479   5.089   2.655 -0.0935  0.0158 -0.3039
 8905TIP3    H150910   1.435   5.143   2.719 -1.7255  0.1643 -1.4964
 8905TIP3    H250911   1.417   5.082   2.582  1.4346 -0.6489 -1.6057
 8906TIP3   OH250912   7.193   6.431   3.309 -0.1720  0.3190  0.1825
 8906TIP3    H150913   7.102   6.408   3.289 -0.5168  0.6027  1.3963
 8906TIP3    H250914   7.238   6.422   3.225 -0.9660 -1.5041 -0.1043
 8907TIP3   OH250915   0.841   6.233   3.390  0.3604 -0.0005  0.2747
 8907TIP3    H150916   0.830   6.139   3.405  2.3752 -0.2169  0.7142
 8907TIP3    H250917   0.915   6.239   3.330  2.2129  1.3381  2.5227
 8908TIP3   OH250918   7.068   1.405   2.610 -0.1824 -0.5221  0.2074
 8908TIP3    H150919   6.995   1.343   2.610  0.3200 -1.2026 -1.7144
 8908TIP3    H250920   7.119   1.383   2.687 -0.6273 -1.7742  0.1660
 8909TIP3   OH250921   4.640   0.069   3.493  0.0006  0.3440  0.1385
 8909TIP3    H150922   4.712   0.012   3.466 -0.2592  0.9531 -1.9876
 8909TIP3    H250923   4.680   0.155   3.505 -0.2634  0.5571 -0.4809
 8910TIP3   OH250924   4.473   0.813   3.557  0.5787 -0.0496  0.0365
 8910TIP3    H150925   4.562   0.792   3.583  1.2920  1.0716 -1.4018
 8910TIP3    H250926   4.481   0.894   3.507 -1.2961  0.2624  0.1709
 8911TIP3   OH250927   2.899   1.833   5.062 -0.3309 -1.0073 -0.1988
 8911TIP3    H150928   2.944   1.850   4.979  1.3469  1.4604  1.0662
 8911TIP3    H250929   2.817   1.882   5.055 -0.5852 -1.5067 -0.7161
 8912TIP3   OH250930   4.833   2.248   4.852  0.0699  0.1657  0.2350
 8912TIP3    H150931   4.870   2.336   4.838 -1.5892  0.6866 -1.1657
 8912TIP3    H250932   4.884   2.192   4.794 -0.3612  0.6160 -0.5912
 8913TIP3   OH250933   5.544   1.401   2.928 -0.4633 -0.3976  0.1078
 8913TIP3    H150934   5.456   1.431   2.905  0.3463  1.0220 -1.3079
 8913TIP3    H250935   5.594   1.406   2.847  1.2066 -0.1842  1.0914
 8914TIP3   OH250936   1.410   6.164   2.349  0.6724 -0.4301 -0.2329
 8914TIP3    H150937   1.479   6.184   2.411  0.4682 -1.1219  0.2306
 8914TIP3    H250938   1.439   6.085   2.304  0.0077 -0.9767  0.2656
 8915TIP3   OH250939   3.526   2.357   4.480  0.1166  0.2649  0.2313
 8915TIP3    H150940   3.528   2.274   4.529  4.4275  1.5589  2.8040
 8915TIP3    H250941   3.609   2.358   4.433 -0.1142  2.8730 -0.2354
 8916TIP3   OH250942   1.717   5.645   2.966  0.0517  0.0465  0.5088
 8916TIP3    H150943   1.753   5.616   3.050  1.0003 -0.2371  0.0192
 8916TIP3    H250944   1.771   5.719   2.940 -0.7371  0.6340  0.5170
 8917TIP3   OH250945   5.233   2.863   4.407 -0.9152  0.0561  0.1264
 8917TIP3    H150946   5.232   2.767   4.408 -2.2522  0.0452  0.1916
 8917TIP3    H250947   5.191   2.886   4.324  1.3270  0.6170 -0.9226
 8918TIP3   OH250948   0.605   7.009   2.716 -0.3282  0.2418 -0.4971
 8918TIP3    H150949   0.628   7.042   2.629  0.0355 -0.6251 -0.7479
 8918TIP3    H250950   0.678   6.951   2.739 -0.0230  1.0738  0.7400
 8919TIP3   OH250951   0.794   6.695   3.107  0.5754 -0.7079 -0.2908
 8919TIP3    H150952   0.786   6.600   3.117 -0.2424 -0.5246  0.9046
 8919TIP3    H250953   0.713   6.730   3.142  1.4987  0.5256  0.7087
 8920TIP3   OH250954   4.659   2.470   2.726  0.1246  0.1202 -0.1845
 8920TIP3    H150955   4.593   2.401   2.724 -0.8536  1.0278 -2.0555
 8920TIP3    H250956   4.741   2.424   2.709 -0.2586 -0.8102  0.3902
 8921TIP3   OH250957   7.665   4.259   2.366  0.0367  1.0199  0.4355
 8921TIP3    H150958   7.721   4.331   2.338  0.4770  0.3693 -0.3993
 8921TIP3    H250959   7.576   4.292   2.355  0.2423  1.5930  0.4865
 8922TIP3   OH250960   3.474   6.329   5.207 -0.0183  0.2070 -0.4348
 8922TIP3    H150961   3.402   6.341   5.268 -2.3674 -2.8883 -2.3301
 8922TIP3    H250962   3.442   6.365   5.124  0.3709 -1.5662 -1.4101
 8923TIP3   OH250963   2.797   4.474   3.550 -0.5405  0.0788 -0.1328
 8923TIP3    H150964   2.800   4.558   3.504 -2.4171  0.0119 -0.4223
 8923TIP3    H250965   2.707   4.444   3.541  0.2212 -2.3133 -0.6163
 8924TIP3   OH250966   3.140   6.245   3.098  0.6504  0.0899  0.0506
 8924TIP3    H150967   3.136   6.262   3.004  0.8403 -1.4825 -0.2604
 8924TIP3    H250968   3.114   6.154   3.108 -0.9617  0.6769  1.7070
 8925TIP3   OH250969   7.590   3.097   3.053  0.0739 -0.3067 -0.5402
 8925TIP3    H150970   7.550   3.142   2.978 -0.0626  1.2211  0.4248
 8925TIP3    H250971   7.543   3.013   3.057 -0.7882  0.1115 -1.4037
 8926TIP3   OH250972   2.672   1.526   3.741  0.6303  0.2587 -0.5688
 8926TIP3    H150973   2.654   1.457   3.677  0.0388 -0.9976  0.8588
 8926TIP3    H250974   2.683   1.478   3.824  0.5389  1.8672  0.4111
 8927TIP3   OH250975   7.657   2.911   2.773 -0.1958  0.8569  0.3461
 8927TIP3    H150976   7.694   2.838   2.723 -2.0300  0.4285 -0.4848
 8927TIP3    H250977   7.649   2.877   2.862  0.3183  0.5549  0.2779
 8928TIP3   OH250978   2.372   0.977   2.608 -0.4715  0.1938  0.2375
 8928TIP3    H150979   2.461   0.975   2.643 -1.3298  2.4097  2.8454
 8928TIP3    H250980   2.379   0.933   2.523  3.1962  0.8024  0.0698
 8929TIP3   OH250981   3.125   7.339   3.850 -0.4090 -0.3289  0.7548
 8929TIP3    H150982   3.060   7.293   3.904 -1.0250  1.7030  1.8442
 8929TIP3    H250983   3.204   7.341   3.904  0.0319 -1.2199  0.1663
 8930TIP3   OH250984   1.285   5.207   3.751  0.1892  0.4887 -0.4286
 8930TIP3    H150985   1.302   5.215   3.657  1.1673  1.5579 -0.1813
 8930TIP3    H250986   1.192   5.226   3.760  0.3813  1.8383 -1.0373
 8931TIP3   OH250987   4.499   3.148   2.318 -0.7902  0.0557  0.1728
 8931TIP3    H150988   4.441   3.210   2.362 -0.7531 -1.0281  1.8075
 8931TIP3    H250989   4.474   3.154   2.225 -2.3119  0.8629  0.5988
 8932TIP3   OH250990   2.681   7.212   4.221 -0.2312  0.3403 -0.1048
 8932TIP3    H150991   2.641   7.126   4.226 -1.5249  0.7565 -2.0077
 8932TIP3    H250992   2.664   7.253   4.306 -1.8675 -0.3481 -0.0764
 8933TIP3   OH250993   2.129   3.279   3.493 -0.1657 -0.2403  0.4733
 8933TIP3    H150994   2.043   3.277   3.535 -0.2452 -1.0467  0.2742
 8933TIP3    H250995   2.131   3.201   3.438 -0.3980  1.2271 -1.7384
 8934TIP3   OH250996   6.967   5.843   2.880 -0.0056 -0.2266  0.0327
 8934TIP3    H150997   7.008   5.798   2.953 -0.2506  0.3222  0.5245
 8934TIP3    H250998   6.874   5.823   2.889  0.0353 -0.6546 -0.4887
 8935TIP3   OH250999   0.943   7.113   3.026  0.3107  0.0912  0.0511
 8935TIP3    H151000   0.979   7.146   2.944 -1.6348  1.0500 -0.4846
 8935TIP3    H251001   1.002   7.145   3.094  2.3260 -1.2744 -0.9821
 8936TIP3   OH251002   4.670   3.581   4.624  0.5722  0.5868 -0.0036
 8936TIP3    H151003   4.714   3.576   4.539 -0.2776 -0.0637 -0.4147
 8936TIP3    H251004   4.741   3.592   4.687  1.4063 -1.2199 -0.5752
 8937TIP3   OH251005   2.407   2.482   3.309  0.1374  0.4817 -0.1274
 8937TIP3    H151006   2.408   2.576   3.326 -0.4408  0.2089  1.6434
 8937TIP3    H251007   2.492   2.464   3.269 -0.0004  1.8349 -1.1215
 8938TIP3   OH251008   5.637   5.891   3.023  0.3385 -0.0716  0.0424
 8938TIP3    H151009   5.552   5.928   2.999  1.1619 -0.3630 -3.9962
 8938TIP3    H251010   5.701   5.938   2.969  2.6153 -0.8055  1.9264
 8939TIP3   OH251011   5.265   1.328   4.536 -0.8505 -0.1666 -0.0778
 8939TIP3    H151012   5.228   1.287   4.614 -2.1033 -0.0511 -0.5955
 8939TIP3    H251013   5.291   1.415   4.564  1.8925 -1.2403  1.0547
 8940TIP3   OH251014   3.985   7.415   2.523 -0.2584  0.0192  0.6863
 8940TIP3    H151015   4.036   7.476   2.577 -0.4301  0.2503  0.5897
 8940TIP3    H251016   3.969   7.463   2.442 -0.4699 -0.1229  0.6439
 8941TIP3   OH251017   1.993   1.789   5.020  0.2541 -0.8534  0.0450
 8941TIP3    H151018   2.045   1.736   4.960  0.0241 -0.4425 -0.5340
 8941TIP3    H251019   1.912   1.807   4.972  0.6953  0.7803 -0.1743
 8942TIP3   OH251020   4.457   6.426   3.510  0.4490  0.0964 -0.3495
 8942TIP3    H151021   4.405   6.345   3.518 -2.6832  1.8247 -1.4505
 8942TIP3    H251022   4.427   6.481   3.582  0.6487  1.2227 -1.1031
 8943TIP3   OH251023   2.705   5.511   3.036  0.3615 -0.6830 -0.0683
 8943TIP3    H151024   2.665   5.530   3.120 -0.8918  0.8753 -0.9595
 8943TIP3    H251025   2.744   5.424   3.047 -1.7712 -1.5490  1.3921
 8944TIP3   OH251026   1.695   5.233   2.360  0.1247  0.8216  0.4431
 8944TIP3    H151027   1.720   5.141   2.354 -0.4231  0.6267  1.0633
 8944TIP3    H251028   1.639   5.249   2.285 -1.0077  0.2450  1.1416
 8945TIP3   OH251029   6.761   0.181   4.349 -0.2268 -0.5199  0.3016
 8945TIP3    H151030   6.745   0.252   4.412 -0.0860 -0.3033  0.0973
 8945TIP3    H251031   6.761   0.102   4.402  2.0993 -0.1741  0.9474
 8946TIP3   OH251032   1.716   2.360   4.177 -0.4301  0.3326  0.1506
 8946TIP3    H151033   1.769   2.360   4.097  0.9070  0.9045  0.9867
 8946TIP3    H251034   1.644   2.301   4.159  0.3253 -0.2170 -1.1774
 8947TIP3   OH251035   3.407   6.171   2.697  0.3353  0.0234  0.1630
 8947TIP3    H151036   3.366   6.084   2.696 -1.8941  0.9965 -1.1095
 8947TIP3    H251037   3.405   6.200   2.606  0.5231  1.6111  0.6234
 8948TIP3   OH251038   2.714   0.783   2.451 -0.1665 -0.4398  0.4389
 8948TIP3    H151039   2.780   0.717   2.471 -1.3531 -1.4240  1.3144
 8948TIP3    H251040   2.681   0.810   2.536 -0.2047  0.7797  0.0544
 8949TIP3   OH251041   1.204   2.987   1.983  0.2754 -0.2149  0.6801
 8949TIP3    H151042   1.122   2.975   2.030  0.3722 -3.3857  0.2365
 8949TIP3    H251043   1.177   3.015   1.895 -0.2278 -0.0678  0.8782
 8950TIP3   OH251044   2.821   2.927   2.328 -0.4062 -0.5379  0.2855
 8950TIP3    H151045   2.751   2.898   2.269  1.6684 -1.1550 -2.0826
 8950TIP3    H251046   2.827   2.858   2.394 -0.3601 -1.8513 -1.0262
 8951TIP3   OH251047   2.400   4.444   3.864 -0.6241 -0.1019  0.3847
 8951TIP3    H151048   2.453   4.422   3.941 -1.2914 -0.3155  0.7924
 8951TIP3    H251049   2.383   4.359   3.823 -1.9657 -0.2263  1.1396
 8952TIP3   OH251050   5.726   6.354   3.935  0.1734 -1.1319  0.0717
 8952TIP3    H151051   5.675   6.274   3.951 -0.8285 -0.3030  1.2818
 8952TIP3    H251052   5.719   6.369   3.841 -0.6867 -1.8025  0.0180
 8953TIP3   OH251053   1.998   0.403   3.098 -0.5780  0.3067 -0.4581
 8953TIP3    H151054   2.073   0.442   3.145 -0.5978  0.2254 -0.3582
 8953TIP3    H251055   2.030   0.390   3.009  0.2424 -1.6850  0.0698
 8954TIP3   OH251056   0.188   0.856   4.033 -0.2498 -0.1734  0.5543
 8954TIP3    H151057   0.147   0.812   3.959  0.4855 -1.7314  1.0323
 8954TIP3    H251058   0.275   0.880   4.001 -0.3394  0.1601  0.5621
 8955TIP3   OH251059   5.210   2.285   3.727 -0.2492 -0.4434 -0.2111
 8955TIP3    H151060   5.188   2.377   3.714  0.5298  0.3755  3.1867
 8955TIP3    H251061   5.155   2.237   3.665 -0.7129  2.2734 -2.0345
 8956TIP3   OH251062   4.109   5.561   2.234  0.4340 -0.1739 -0.0914
 8956TIP3    H151063   4.135   5.505   2.161 -0.4088 -0.8158  0.0816
 8956TIP3    H251064   4.034   5.611   2.200  0.6913  0.2785  0.0053
 8957TIP3   OH251065   2.309   1.816   2.520 -0.4749 -0.0644  0.2698
 8957TIP3    H151066   2.390   1.792   2.563 -0.1385  1.4255  0.5326
 8957TIP3    H251067   2.336   1.852   2.435 -0.9765 -0.9051 -0.2628
 8958TIP3   OH251068   1.884   4.806   3.961  0.1377  0.7324 -0.2080
 8958TIP3    H151069   1.801   4.758   3.965  0.7670 -0.4353 -0.5674
 8958TIP3    H251070   1.925   4.789   4.046 -0.1208  1.5654  0.0879
 8959TIP3   OH251071   3.929   7.585   2.287  0.1859  0.4923 -0.0658
 8959TIP3    H151072   3.852   7.640   2.269 -0.3005  1.1931  3.3369
 8959TIP3    H251073   4.004   7.642   2.268 -0.3045  2.1459  2.4288
 8960TIP3   OH251074   2.415   2.251   4.715  0.1604  0.5275 -0.1826
 8960TIP3    H151075   2.342   2.313   4.725 -0.1760  0.1507 -0.3100
 8960TIP3    H251076   2.383   2.169   4.753  0.8931  0.6422  0.7461
 8961TIP3   OH251077   0.273   6.817   4.227 -0.0802  0.0959 -0.3301
 8961TIP3    H151078   0.255   6.817   4.321 -0.5046  2.9160 -0.3025
 8961TIP3    H251079   0.359   6.858   4.218  0.7745 -1.7708 -1.1286
 8962TIP3   OH251080   7.049   1.608   2.843  0.8867  0.0132  0.3192
 8962TIP3    H151081   7.037   1.631   2.751 -0.7802  0.5669  0.6307
 8962TIP3    H251082   7.053   1.692   2.889  0.6448 -0.2539  0.8470
 8963TIP3   OH251083   3.113   3.501   2.007  0.1970 -0.1817  0.0298
 8963TIP3    H151084   3.089   3.585   2.047  1.7962 -0.8097  2.5611
 8963TIP3    H251085   3.047   3.487   1.939 -1.4958  1.9933  1.0842
 8964TIP3   OH251086   4.697   0.678   3.655  0.2155 -0.6264  0.4057
 8964TIP3    H151087   4.786   0.702   3.628  0.0729 -1.6631 -1.0684
 8964TIP3    H251088   4.707   0.592   3.696 -0.1538 -0.9027 -0.0831
 8965TIP3   OH251089   5.889   4.866   3.378 -0.1625 -0.5853 -0.6264
 8965TIP3    H151090   5.894   4.869   3.282  0.1510 -1.8068 -0.6632
 8965TIP3    H251091   5.920   4.778   3.401  0.8961  0.0898  0.6684
 8966TIP3   OH251092   1.661   6.869   2.698 -0.7855  0.1281 -0.3049
 8966TIP3    H151093   1.719   6.797   2.721 -1.8274 -0.5748  0.1841
 8966TIP3    H251094   1.714   6.948   2.708  0.1057 -0.5098  0.0096
 8967TIP3   OH251095   4.278   2.502   2.711  0.0142  0.7655 -0.1458
 8967TIP3    H151096   4.315   2.421   2.677  0.0634  0.4456  0.6503
 8967TIP3    H251097   4.353   2.559   2.728  0.2512 -0.1609  2.1872
 8968TIP3   OH251098   2.645   5.179   3.749  0.2372  0.2698 -0.3456
 8968TIP3    H151099   2.658   5.257   3.802  1.6812  0.6341 -1.1697
 8968TIP3    H251100   2.632   5.108   3.812  0.3346  0.9494  0.4502
 8969TIP3   OH251101   4.111   5.181   2.163 -0.3760  0.2791 -0.0106
 8969TIP3    H151102   4.118   5.128   2.242 -1.2442  1.0348  0.5870
 8969TIP3    H251103   4.021   5.168   2.133 -0.3410  0.7440 -0.3305
 8970TIP3   OH251104   3.109   3.777   2.037  0.2976 -0.2556 -0.3476
 8970TIP3    H151105   3.048   3.758   2.108 -1.3413 -1.2272 -1.8968
 8970TIP3    H251106   3.078   3.861   2.001 -0.5716 -1.0300 -1.5002
 8971TIP3   OH251107   6.676   7.518   4.304  1.1461 -0.1221 -0.6016
 8971TIP3    H151108   6.726   7.490   4.380  2.7433  1.4334 -1.0079
 8971TIP3    H251109   6.736   7.574   4.255 -0.9166  1.7060 -1.2320
 8972TIP3   OH251110   0.863   3.856   2.196 -0.3670  0.0088  0.1972
 8972TIP3    H151111   0.796   3.906   2.150  1.1633  0.0098 -2.2253
 8972TIP3    H251112   0.815   3.783   2.235 -1.9905  0.8842 -0.0506
 8973TIP3   OH251113   4.463   5.724   3.198  0.3517  0.5660 -0.7659
 8973TIP3    H151114   4.441   5.782   3.124 -2.2906 -1.3386 -1.6283
 8973TIP3    H251115   4.385   5.670   3.209  0.0983  1.5183  4.2975
 8974TIP3   OH251116   6.080   0.330   3.047 -0.2753 -0.0191 -0.0707
 8974TIP3    H151117   6.077   0.278   2.967  3.0128 -0.5104 -0.0247
 8974TIP3    H251118   6.065   0.420   3.019 -0.3279 -0.3200 -1.0382
 8975TIP3   OH251119   4.958   3.989   3.489 -0.1819 -0.2331 -0.2546
 8975TIP3    H151120   4.868   4.022   3.487  0.1408  0.9253  1.8317
 8975TIP3    H251121   4.960   3.927   3.561  0.5179 -0.8642 -0.8007
 8976TIP3   OH251122   2.271   7.085   3.050  0.1849 -0.0318  0.1432
 8976TIP3    H151123   2.187   7.094   3.005  0.5350  2.5127 -0.1211
 8976TIP3    H251124   2.247   7.050   3.136 -1.4166  2.0671  0.6559
 8977TIP3   OH251125   4.221   6.400   3.006 -0.0775  0.8682 -0.1225
 8977TIP3    H151126   4.305   6.423   2.966 -0.6921  0.6268 -1.6231
 8977TIP3    H251127   4.232   6.421   3.099  2.1534 -0.6342  0.0153
 8978TIP3   OH251128   3.727   7.654   3.305  0.2187  0.3075 -0.3879
 8978TIP3    H151129   3.729   7.562   3.330 -0.2548  0.1527 -0.9172
 8978TIP3    H251130   3.818   7.684   3.318  0.1156  0.1080  0.9842
 8979TIP3   OH251131   4.563   2.980   2.028 -0.7373  0.3537 -0.4913
 8979TIP3    H151132   4.507   2.907   2.001 -1.5192  0.2912  1.1748
 8979TIP3    H251133   4.501   3.051   2.049 -0.0709  0.9963 -0.6673
 8980TIP3   OH251134   5.685   2.548   2.613  0.1535  0.2159  0.7713
 8980TIP3    H151135   5.734   2.467   2.599  0.5662  0.2344  1.9530
 8980TIP3    H251136   5.609   2.540   2.557 -0.1667 -1.3166  1.3740
 8981TIP3   OH251137   2.023   0.523   3.821  0.1303 -0.2980 -0.4124
 8981TIP3    H151138   1.975   0.583   3.764 -0.4036 -1.0173 -0.7449
 8981TIP3    H251139   2.115   0.536   3.798 -0.0598 -0.3745 -1.2404
 8982TIP3   OH251140   6.625   4.247   4.175  0.3122  0.0166 -0.0140
 8982TIP3    H151141   6.668   4.194   4.242 -0.6302 -0.0520  0.5655
 8982TIP3    H251142   6.617   4.189   4.099 -1.6476 -1.0986  0.9429
 8983TIP3   OH251143   4.308   5.531   4.472  0.6149  0.7630  0.0657
 8983TIP3    H151144   4.312   5.466   4.542  2.7545  1.9759  1.1760
 8983TIP3    H251145   4.218   5.564   4.474 -0.4344 -1.7948 -0.2816
 8984TIP3   OH251146   0.256   2.536   3.223  0.0017 -0.1020 -0.4414
 8984TIP3    H151147   0.307   2.455   3.218  0.2922  0.1321 -1.4197
 8984TIP3    H251148   0.291   2.582   3.299  0.7301 -0.2940 -0.6594
 8985TIP3   OH251149   3.941   2.407   2.159  0.7045 -0.2358  0.1531
 8985TIP3    H151150   3.852   2.418   2.125  1.5740 -0.1668 -2.2872
 8985TIP3    H251151   3.935   2.436   2.251 -1.6425  0.3005 -0.0987
 8986TIP3   OH251152   7.082   4.271   2.890  0.0272 -0.0721 -0.3509
 8986TIP3    H151153   7.011   4.326   2.923  2.8011  2.4328  2.0154
 8986TIP3    H251154   7.153   4.333   2.871  2.4797 -2.6211 -0.0682
 8987TIP3   OH251155   7.022   0.544   2.040 -0.3311  0.3638 -0.1414
 8987TIP3    H151156   7.017   0.449   2.046  0.6122  0.1418 -2.0896
 8987TIP3    H251157   6.930   0.573   2.035 -0.6018 -0.5730 -0.8828
 8988TIP3   OH251158   2.534   1.751   2.636  0.2878 -0.0229  0.0888
 8988TIP3    H151159   2.538   1.664   2.677 -0.5138  0.6035  1.5617
 8988TIP3    H251160   2.578   1.809   2.698  1.2476  0.5729 -1.1059
 8989TIP3   OH251161   3.568   3.210   2.560  0.0686 -0.4257 -0.2573
 8989TIP3    H151162   3.658   3.191   2.532 -0.0953 -0.7845 -0.5454
 8989TIP3    H251163   3.556   3.156   2.638  0.0913 -0.4100 -0.2430
 8990TIP3   OH251164   0.235   3.005   2.834 -0.4858 -0.1952  0.1445
 8990TIP3    H151165   0.208   3.050   2.913 -0.1344  3.1575 -1.4618
 8990TIP3    H251166   0.154   2.969   2.798 -1.1524  0.8022  0.5893
 8991TIP3   OH251167   2.534   2.453   4.560  0.7770 -0.3203  0.3666
 8991TIP3    H151168   2.479   2.389   4.606  0.4844 -0.5490 -0.2838
 8991TIP3    H251169   2.568   2.509   4.629  2.1889 -2.0347  1.1367
 8992TIP3   OH251170   2.577   4.941   2.214  0.3870 -0.3683 -0.1341
 8992TIP3    H151171   2.654   4.949   2.270  0.1177  0.3610  0.1484
 8992TIP3    H251172   2.505   4.925   2.275 -0.0303  1.1644 -0.1669
 8993TIP3   OH251173   4.820   5.026   2.527 -0.1557  0.3847 -0.1928
 8993TIP3    H151174   4.885   5.095   2.511 -0.0485  0.3691  0.1791
 8993TIP3    H251175   4.869   4.944   2.520 -0.3039  0.3376 -0.7394
 8994TIP3   OH251176   1.067   7.133   3.652  0.4016 -0.4361  0.1621
 8994TIP3    H151177   1.018   7.203   3.694 -1.5927 -2.1734  0.8889
 8994TIP3    H251178   1.006   7.059   3.649  1.8841 -1.6791 -2.0023
 8995TIP3   OH251179   2.524   6.570   3.002 -0.1837 -0.1718  0.2306
 8995TIP3    H151180   2.583   6.646   3.004  1.0480 -1.1056  0.5104
 8995TIP3    H251181   2.486   6.569   3.090 -0.8673  0.6090 -0.0433
 8996TIP3   OH251182   7.441   2.378   3.705  0.0357  0.1964  0.3677
 8996TIP3    H151183   7.464   2.285   3.700 -2.4232 -0.4215 -1.8577
 8996TIP3    H251184   7.511   2.422   3.658 -0.9965 -1.1488 -2.6936
 8997TIP3   OH251185   4.594   1.632   4.349 -0.5588  0.0843 -0.5259
 8997TIP3    H151186   4.528   1.569   4.378 -0.6411 -0.7468 -2.3316
 8997TIP3    H251187   4.624   1.676   4.429 -2.8454  0.0568  0.4045
 8998TIP3   OH251188   4.649   4.464   4.213 -0.4692 -0.3315  0.3364
 8998TIP3    H151189   4.590   4.390   4.226  0.3714 -1.1792 -0.5246
 8998TIP3    H251190   4.602   4.539   4.249 -1.1792 -1.3387  1.5784
 8999TIP3   OH251191   0.984   0.507   3.400  0.0997  0.4274 -0.4107
 8999TIP3    H151192   1.056   0.550   3.354 -1.5223  1.8449 -1.7877
 8999TIP3    H251193   0.979   0.420   3.361  0.7172  0.5049 -0.6735
 9000TIP3   OH251194   3.604   2.850   2.795  0.0029  0.2516 -0.5585
 9000TIP3    H151195   3.646   2.797   2.863  0.2267  0.1235 -0.7959
 9000TIP3    H251196   3.620   2.941   2.822  0.8148  0.2117 -0.8767
 9001TIP3   OH251197   2.233   2.789   3.162  0.4515  0.0371  0.0341
 9001TIP3    H151198   2.272   2.852   3.101  0.9685 -1.2699 -1.0314
 9001TIP3    H251199   2.138   2.801   3.151  0.5417  0.2004 -0.6293
 9002TIP3   OH251200   2.404   3.005   2.099 -0.5194  0.1744 -0.0139
 9002TIP3    H151201   2.491   3.043   2.109  0.0417 -0.8703 -0.7105
 9002TIP3    H251202   2.345   3.080   2.100  0.5078  1.0382 -0.8706
 9003TIP3   OH251203   4.181   2.048   3.797  0.0529  0.6129  0.0596
 9003TIP3    H151204   4.216   2.087   3.717  0.9954  0.4630  0.3916
 9003TIP3    H251205   4.086   2.049   3.784  0.2068 -0.3943 -1.5419
 9004TIP3   OH251206   7.679   0.551   3.417 -0.0910  0.0477 -0.0536
 9004TIP3    H151207   7.753   0.518   3.367 -0.3534  2.5652 -2.2637
 9004TIP3    H251208   7.621   0.474   3.426  0.9482 -1.0084 -1.7775
 9005TIP3   OH251209   7.567   3.316   2.817 -0.8845 -0.2934  0.2126
 9005TIP3    H151210   7.483   3.288   2.779 -0.5653  0.5950 -1.2156
 9005TIP3    H251211   7.549   3.402   2.853 -0.1036  0.9947 -2.2158
 9006TIP3   OH251212   1.215   7.143   3.399 -0.3013 -0.0648 -0.5613
 9006TIP3    H151213   1.178   7.120   3.484 -2.9708 -0.3097 -1.6898
 9006TIP3    H251214   1.290   7.199   3.419 -0.9899  0.0482  1.9201
 9007TIP3   OH251215   2.087   3.101   2.082 -0.0055 -0.5668 -0.3080
 9007TIP3    H151216   2.006   3.049   2.089 -0.7587  0.5490 -0.5348
 9007TIP3    H251217   2.097   3.141   2.169 -0.6489  0.6456 -0.7696
 9008TIP3   OH251218   2.565   1.573   4.663 -0.1424 -0.1989  0.8288
 9008TIP3    H151219   2.535   1.664   4.663 -1.9733 -0.7343  1.9670
 9008TIP3    H251220   2.489   1.523   4.692  0.5856 -2.1976 -0.4648
 9009TIP3   OH251221   6.309   1.767   3.386  0.3410  0.8582 -0.5627
 9009TIP3    H151222   6.339   1.743   3.298  0.6211  0.0175 -0.2487
 9009TIP3    H251223   6.337   1.694   3.441 -0.5942  0.9703  0.0775
 9010TIP3   OH251224   5.778   2.905   3.960 -0.2563 -0.5214  0.3157
 9010TIP3    H151225   5.705   2.858   3.919 -0.0335 -1.2025  0.6789
 9010TIP3    H251226   5.856   2.861   3.926  0.0387  0.9284 -0.9540
 9011TIP3   OH251227   0.930   4.192   3.142 -0.1505  0.3518 -0.1152
 9011TIP3    H151228   0.981   4.242   3.205 -0.8758  1.3558 -0.2968
 9011TIP3    H251229   0.993   4.166   3.075 -0.0155  2.5110 -0.9214
 9012TIP3   OH251230   4.993   3.928   3.226 -0.6134 -0.2768 -0.0123
 9012TIP3    H151231   4.990   3.963   3.315 -0.9826  0.3977 -0.2815
 9012TIP3    H251232   5.024   3.838   3.237  0.7808  0.2554  0.6614
 9013TIP3   OH251233   4.340   1.440   3.110  0.0918 -0.6458  0.4547
 9013TIP3    H151234   4.299   1.524   3.088 -1.4613 -1.2473  0.9875
 9013TIP3    H251235   4.346   1.394   3.027  2.6636  0.6436 -0.2060
 9014TIP3   OH251236   2.245   4.667   3.774 -0.2646  0.2172  0.1893
 9014TIP3    H151237   2.286   4.584   3.798 -1.1970 -0.4481 -0.4494
 9014TIP3    H251238   2.152   4.645   3.765 -0.2045  0.7929 -2.3344
 9015TIP3   OH251239   7.015   1.290   3.344 -0.2064  0.1923 -0.0527
 9015TIP3    H151240   7.034   1.288   3.438  0.6404 -0.9098 -0.2247
 9015TIP3    H251241   6.938   1.234   3.335 -0.2562  0.2556 -0.0178
 9016TIP3   OH251242   3.558   5.128   2.522 -0.4196 -0.5621  0.0794
 9016TIP3    H151243   3.493   5.112   2.590 -1.2501 -1.1824 -0.8332
 9016TIP3    H251244   3.590   5.040   2.499  0.6590 -0.2723  0.4314
 9017TIP3   OH251245   5.194   2.431   3.035 -0.9137  0.4597  0.2388
 9017TIP3    H151246   5.274   2.391   3.069  0.0015  2.4333  0.5111
 9017TIP3    H251247   5.176   2.384   2.954  0.6819  0.1610  0.0374
 9018TIP3   OH251248   4.995   4.340   2.985 -0.3522  0.0768 -0.6028
 9018TIP3    H151249   4.914   4.295   2.964 -0.4657  0.6933 -1.5371
 9018TIP3    H251250   5.060   4.270   2.993 -1.0771 -0.4906  0.8409
 9019TIP3   OH251251   1.373   1.983   4.409 -0.3680  0.0945  0.1428
 9019TIP3    H151252   1.393   2.000   4.317  0.2452 -0.3405  0.1877
 9019TIP3    H251253   1.440   1.921   4.437 -0.1566  0.7151  1.0590
 9020TIP3   OH251254   0.663   6.623   5.087 -0.1305  0.2796  0.0093
 9020TIP3    H151255   0.600   6.661   5.147  0.1778  1.0157 -0.1292
 9020TIP3    H251256   0.659   6.678   5.009 -0.7209 -0.8145 -0.7709
 9021TIP3   OH251257   5.151   1.665   2.606 -0.1974 -0.4290  0.0195
 9021TIP3    H151258   5.101   1.704   2.677 -1.4845 -0.8916 -0.5849
 9021TIP3    H251259   5.193   1.588   2.645  2.9988  1.8102  1.4189
 9022TIP3   OH251260   6.171   1.356   3.713 -0.4256  0.4151  0.2164
 9022TIP3    H151261   6.146   1.433   3.661 -0.5875  1.1784  1.3987
 9022TIP3    H251262   6.153   1.381   3.803 -2.0410 -1.6243  0.5095
 9023TIP3   OH251263   2.538   3.247   2.162  0.4388  0.0516  0.2183
 9023TIP3    H151264   2.465   3.278   2.109  1.1177  0.4350 -0.5050
 9023TIP3    H251265   2.571   3.326   2.206  2.1549  0.4129 -1.6039
 9024TIP3   OH251266   4.665   0.614   3.951  0.4558  0.0393  0.0279
 9024TIP3    H151267   4.617   0.543   3.993 -1.0994  0.4975 -0.8985
 9024TIP3    H251268   4.729   0.570   3.894  0.6018 -0.5810  0.6581
 9025TIP3   OH251269   2.358   6.768   4.509 -0.0135 -0.6958 -0.4635
 9025TIP3    H151270   2.452   6.751   4.517 -0.0276 -0.2506  0.8497
 9025TIP3    H251271   2.349   6.811   4.424  1.3396  1.5424  0.4442
 9026TIP3   OH251272   5.975   4.788   2.860  0.2615  0.0646  0.4919
 9026TIP3    H151273   5.915   4.749   2.797 -1.4792  0.4945  1.8138
 9026TIP3    H251274   5.969   4.882   2.843  1.0561  0.0748  0.2270
 9027TIP3   OH251275   5.135   4.702   3.609  0.3573 -0.0741 -0.1986
 9027TIP3    H151276   5.118   4.608   3.601  0.1613 -0.1928  1.2764
 9027TIP3    H251277   5.118   4.737   3.522 -0.8260 -1.2143 -0.4541
 9028TIP3   OH251278   2.548   4.791   3.083  0.2155 -0.2317 -0.2619
 9028TIP3    H151279   2.638   4.779   3.114  0.4256 -1.9451 -1.4046
 9028TIP3    H251280   2.536   4.886   3.080  1.3409  0.0375  1.6400
 9029TIP3   OH251281   5.171   0.164   2.919  0.0317 -0.1388 -0.1045
 9029TIP3    H151282   5.154   0.192   2.829 -1.3375 -0.2178  0.1037
 9029TIP3    H251283   5.173   0.068   2.914 -1.7102 -0.2254  0.1770
 9030TIP3   OH251284   0.276   4.579   3.786 -0.5345  0.4312  0.3381
 9030TIP3    H151285   0.204   4.518   3.802  0.0333 -0.1367  0.7982
 9030TIP3    H251286   0.252   4.624   3.705 -1.1824 -0.0803  0.2366
 9031TIP3   OH251287   2.796   4.645   4.435  0.0502  0.4765 -0.1636
 9031TIP3    H151288   2.732   4.627   4.505  0.1490  1.2503  0.1369
 9031TIP3    H251289   2.856   4.570   4.439  0.1190  0.5610  0.6595
 9032TIP3   OH251290   2.432   0.053   4.216  0.4905  0.1600  0.2013
 9032TIP3    H151291   2.394  -0.013   4.275  0.3228 -1.0029 -1.1679
 9032TIP3    H251292   2.371   0.059   4.143  1.1642  0.8844 -0.3275
 9033TIP3   OH251293   2.700   0.884   2.192  0.0980 -0.2523  0.1593
 9033TIP3    H151294   2.610   0.916   2.185 -0.4073 -1.6385  0.0560
 9033TIP3    H251295   2.708   0.854   2.282  0.7273  0.6044  0.3995
 9034TIP3   OH251296   1.906   4.494   4.410  0.6870 -0.3240  0.2314
 9034TIP3    H151297   1.835   4.443   4.449  0.1967  1.8407  2.4230
 9034TIP3    H251298   1.984   4.468   4.459  1.2473 -1.7351 -1.2978
 9035TIP3   OH251299   4.361   3.748   2.134  0.2362  0.2973  0.5339
 9035TIP3    H151300   4.344   3.777   2.223 -0.1728  1.0355  0.2278
 9035TIP3    H251301   4.322   3.661   2.129 -1.1385  0.8781  0.6386
 9036TIP3   OH251302   1.690   2.854   4.815 -0.2715 -0.4024 -0.2246
 9036TIP3    H151303   1.764   2.915   4.806 -0.2856 -0.4407 -0.6263
 9036TIP3    H251304   1.617   2.909   4.842  0.1555 -0.5216  1.2801
 9037TIP3   OH251305   4.434   0.305   3.413  0.4159  0.6177  0.0916
 9037TIP3    H151306   4.489   0.308   3.335 -0.7644  0.5690 -0.7850
 9037TIP3    H251307   4.455   0.221   3.453  0.5194  0.3121 -0.5833
 9038TIP3   OH251308   0.364   5.016   2.635  0.0729  0.1726  0.1443
 9038TIP3    H151309   0.403   5.103   2.642  2.3642 -0.8594  1.4723
 9038TIP3    H251310   0.336   4.996   2.724  0.8000 -0.9314  0.1447
 9039TIP3   OH251311   7.504   6.965   3.148  0.1571 -0.2017  0.4999
 9039TIP3    H151312   7.483   7.020   3.073 -1.2824 -2.5080 -0.8940
 9039TIP3    H251313   7.593   6.935   3.131  0.2474  0.1758  0.2939
 9040TIP3   OH251314   4.061   7.360   3.827  0.7298 -0.7479 -0.1072
 9040TIP3    H151315   4.142   7.361   3.776  0.4653  0.1131 -0.5343
 9040TIP3    H251316   4.054   7.271   3.860 -0.2402 -2.1152 -3.5030
 9041TIP3   OH251317   6.394   3.860   3.808  0.1870 -0.4387 -0.4656
 9041TIP3    H151318   6.363   3.935   3.758  0.0324  1.6265  2.4900
 9041TIP3    H251319   6.325   3.795   3.799 -2.2191  1.7210  0.9073
 9042TIP3   OH251320   1.712   0.158   2.798 -0.3180  0.4966  0.3280
 9042TIP3    H151321   1.741   0.181   2.886 -0.0893  1.6605 -0.0302
 9042TIP3    H251322   1.793   0.153   2.746 -0.3095 -1.6419  0.4731
 9043TIP3   OH251323   4.149   5.002   2.374  0.0049  0.1928  0.4654
 9043TIP3    H151324   4.077   5.048   2.417  0.4345  1.8849 -0.5311
 9043TIP3    H251325   4.209   4.980   2.445 -0.9427 -0.2131  1.1544
 9044TIP3   OH251326   3.239   4.605   4.147 -0.4842 -0.0414 -0.0764
 9044TIP3    H151327   3.298   4.655   4.204 -0.2122 -0.9717  0.4882
 9044TIP3    H251328   3.250   4.514   4.175 -1.9979 -0.2734 -0.1507
 9045TIP3   OH251329   4.100   1.105   2.531 -0.3221  0.2446 -0.3705
 9045TIP3    H151330   4.182   1.126   2.575  0.3388 -1.0129 -0.9468
 9045TIP3    H251331   4.115   1.128   2.439 -0.7012  0.2061 -0.4464
 9046TIP3   OH251332   5.081   4.302   4.081  0.1342 -0.1355 -0.4295
 9046TIP3    H151333   5.052   4.260   4.162  0.5293  1.5465  0.6531
 9046TIP3    H251334   5.128   4.234   4.033 -1.5977 -1.6523 -0.0975
 9047TIP3   OH251335   1.395   0.109   2.750 -0.0136  0.4237  0.1398
 9047TIP3    H151336   1.490   0.117   2.755 -0.0960  1.1782  0.7381
 9047TIP3    H251337   1.375   0.028   2.796  0.4797 -0.8536 -1.7648
 9048TIP3   OH251338   3.962   5.204   3.540 -0.1244 -0.6286  0.0769
 9048TIP3    H151339   3.921   5.217   3.454  0.1785  0.3287  0.0639
 9048TIP3    H251340   3.976   5.109   3.546  0.2854 -0.6567 -1.1330
 9049TIP3   OH251341   6.377   0.133   3.588  0.3788 -0.6364 -0.1831
 9049TIP3    H151342   6.403   0.157   3.499  0.3645  1.5463  0.3234
 9049TIP3    H251343   6.392   0.039   3.594  3.0170 -0.3914 -1.6209
 9050TIP3   OH251344   4.958   1.719   4.547 -0.0144  0.0813  0.4786
 9050TIP3    H151345   4.971   1.625   4.548 -0.1404  0.0651  0.6781
 9050TIP3    H251346   5.047   1.756   4.542 -0.0252 -0.0595 -1.3584
 9051TIP3   OH251347   3.298   5.067   3.617  0.1318  0.2160  0.4897
 9051TIP3    H151348   3.325   5.004   3.683 -0.5890 -0.4302  0.1844
 9051TIP3    H251349   3.307   5.152   3.660  0.0605 -0.1687  1.2879
 9052TIP3   OH251350   4.347   6.146   3.158 -0.3199  0.3099  0.5894
 9052TIP3    H151351   4.273   6.204   3.174 -1.2291 -0.9498  1.1018
 9052TIP3    H251352   4.335   6.073   3.218  1.5261  0.2167  0.9143
 9053TIP3   OH251353   7.617   2.402   4.128 -0.2009 -0.4545 -0.5718
 9053TIP3    H151354   7.636   2.337   4.060 -0.0744  0.7142 -1.6982
 9053TIP3    H251355   7.543   2.452   4.092 -1.5275 -1.1147  1.0876
 9054TIP3   OH251356   3.406   2.890   4.899 -0.2637 -0.2490  0.2901
 9054TIP3    H151357   3.383   2.803   4.931  0.2264 -0.1812  0.8481
 9054TIP3    H251358   3.352   2.902   4.822 -1.2550 -0.5444  0.9181
 9055TIP3   OH251359   5.839   2.052   4.316  0.0802 -0.0149  0.3470
 9055TIP3    H151360   5.792   1.973   4.342 -0.5588  0.4473  0.6126
 9055TIP3    H251361   5.906   2.063   4.383 -0.9276  0.6216  1.2731
 9056TIP3   OH251362   4.155   0.579   4.427  0.2380 -0.1790 -0.1125
 9056TIP3    H151363   4.096   0.504   4.435  0.0585  0.0281  0.6354
 9056TIP3    H251364   4.183   0.579   4.336 -1.0013 -0.2133 -0.5045
 9057TIP3   OH251365   3.517   0.747   4.065 -0.5705  0.4389 -0.0320
 9057TIP3    H151366   3.450   0.768   4.129 -0.6808 -0.1480  0.0526
 9057TIP3    H251367   3.470   0.734   3.983 -0.5729 -0.0013  0.0336
 9058TIP3   OH251368   6.858   0.934   2.251  0.2113  0.1037  0.2072
 9058TIP3    H151369   6.953   0.929   2.252  0.2071 -1.0664 -1.1926
 9058TIP3    H251370   6.838   1.027   2.248  1.2772  0.3744  0.9215
 9059TIP3   OH251371   6.521   2.365   2.577  0.3474  1.0496 -0.6167
 9059TIP3    H151372   6.433   2.388   2.605  0.0971  0.5435 -0.9636
 9059TIP3    H251373   6.512   2.278   2.540  1.4682 -0.1530  1.7142
 9060TIP3   OH251374   6.436   4.700   2.422 -0.6472  0.9756  0.0816
 9060TIP3    H151375   6.424   4.649   2.342 -2.2649 -1.3113  1.6494
 9060TIP3    H251376   6.347   4.719   2.452 -0.2448 -1.0694  2.9585
 9061TIP3   OH251377   0.354   6.111   4.118 -0.2206  0.2201 -0.2013
 9061TIP3    H151378   0.292   6.039   4.122 -0.2339  0.2479  0.1401
 9061TIP3    H251379   0.415   6.087   4.048 -0.1207 -0.2094  0.0307
 9062TIP3   OH251380   5.873   6.940   2.861  0.0265  0.0040 -0.0608
 9062TIP3    H151381   5.810   7.010   2.879 -1.3284 -1.1004 -0.3747
 9062TIP3    H251382   5.903   6.912   2.948 -0.6313 -0.0782  0.1490
 9063TIP3   OH251383   6.915   2.418   3.544 -0.8299  0.3760 -0.0696
 9063TIP3    H151384   6.994   2.407   3.491 -0.0061  0.7201  1.0737
 9063TIP3    H251385   6.933   2.493   3.599 -1.1087 -0.7936  1.6900
 9064TIP3   OH251386   5.015   3.932   2.663  0.5563 -0.3647 -0.5777
 9064TIP3    H151387   5.014   3.845   2.623  1.5783 -1.0715  0.8107
 9064TIP3    H251388   5.087   3.928   2.726  0.4514  1.4143 -0.2847
 9065TIP3   OH251389   4.497   1.405   3.522  0.0112  0.1157 -0.4193
 9065TIP3    H151390   4.566   1.339   3.529  0.2277  0.2797 -0.9259
 9065TIP3    H251391   4.447   1.379   3.444 -1.9418 -1.3222  1.2082
 9066TIP3   OH251392   6.218   4.114   3.907 -0.0556  0.1819  0.4470
 9066TIP3    H151393   6.241   4.080   3.821 -0.7595 -1.1253  0.7572
 9066TIP3    H251394   6.123   4.104   3.913 -0.4645  3.0514  0.2236
 9067TIP3   OH251395   5.025   0.260   4.610 -0.0796 -0.6638 -0.1844
 9067TIP3    H151396   5.028   0.168   4.638 -0.8295 -0.7726 -0.4563
 9067TIP3    H251397   4.933   0.283   4.613 -0.1101 -0.4426 -1.8258
 9068TIP3   OH251398   2.203   5.174   2.551  0.2545  0.8786  0.8387
 9068TIP3    H151399   2.290   5.137   2.538 -0.9445 -1.2726 -2.2178
 9068TIP3    H251400   2.158   5.113   2.609 -0.1980  0.1588 -0.2448
 9069TIP3   OH251401   1.367   7.199   2.407  0.0785  0.3299  0.1428
 9069TIP3    H151402   1.322   7.209   2.491 -0.7162  1.9754 -0.4292
 9069TIP3    H251403   1.316   7.133   2.360  1.1200 -1.3566  1.2969
 9070TIP3   OH251404   5.291   6.843   4.153 -0.4819  0.0946  0.3562
 9070TIP3    H151405   5.250   6.758   4.170  0.1883 -0.5312 -0.9931
 9070TIP3    H251406   5.274   6.860   4.060 -0.1185  1.1665  0.4707
 9071TIP3   OH251407   1.014   4.170   3.670  0.2108 -0.2014  0.0076
 9071TIP3    H151408   0.952   4.128   3.729 -1.0924  1.5764 -0.0158
 9071TIP3    H251409   1.049   4.099   3.616  1.0339 -1.7878  2.4942
 9072TIP3   OH251410   3.748   1.812   4.344  0.3498  0.5627  0.1025
 9072TIP3    H151411   3.729   1.723   4.315 -1.5597  0.9247  0.1046
 9072TIP3    H251412   3.806   1.801   4.420 -0.9106 -0.7610  0.9203
 9073TIP3   OH251413   2.097   0.756   3.671 -0.0173 -0.0554 -0.1809
 9073TIP3    H151414   2.131   0.745   3.582 -0.6998  0.6158 -0.5317
 9073TIP3    H251415   2.002   0.765   3.659  0.0717  2.2357  0.3989
 9074TIP3   OH251416   5.394   4.785   4.762 -0.2686  0.0952  0.1649
 9074TIP3    H151417   5.475   4.786   4.710 -1.1606  1.2058 -1.2748
 9074TIP3    H251418   5.396   4.701   4.807  1.6634  0.0705  0.1327
 9075TIP3   OH251419   4.642   5.281   3.358 -0.2121  0.0246 -0.1540
 9075TIP3    H151420   4.547   5.277   3.346 -0.4646 -0.6732  1.6984
 9075TIP3    H251421   4.654   5.343   3.430  0.6765 -0.3810  0.0637
 9076TIP3   OH251422   0.756   3.986   2.578 -0.0229 -0.0294  0.5469
 9076TIP3    H151423   0.847   3.987   2.547 -0.3653  0.3229 -0.4487
 9076TIP3    H251424   0.751   3.907   2.632  0.8589 -0.0874  0.5657
 9077TIP3   OH251425   7.083   6.837   3.267 -0.1330  0.0383 -0.1724
 9077TIP3    H151426   7.113   6.800   3.350 -0.5151 -1.3465 -0.6275
 9077TIP3    H251427   7.007   6.890   3.291  0.2433  0.3162  0.4530
 9078TIP3   OH251428   3.194   0.360   3.637  0.0948  0.2329  0.0371
 9078TIP3    H151429   3.156   0.442   3.669  1.4660  1.1522 -0.5926
 9078TIP3    H251430   3.268   0.343   3.695 -0.2333 -0.6142  0.2171
 9079TIP3   OH251431   6.308   1.935   2.280  1.3871 -0.4622  0.0561
 9079TIP3    H151432   6.265   1.883   2.348  1.5304 -0.7600 -0.0799
 9079TIP3    H251433   6.250   1.928   2.204 -0.2466  2.1160  0.9084
 9080TIP3   OH251434   0.492   4.953   3.542 -0.1262 -0.2405 -0.3487
 9080TIP3    H151435   0.502   5.043   3.510  0.1149 -0.0514  0.2368
 9080TIP3    H251436   0.475   4.901   3.464  1.3734  0.0614 -0.9030
 9081TIP3   OH251437   4.966   0.395   3.041  0.0656  0.4056 -0.6186
 9081TIP3    H151438   4.996   0.413   2.952  1.2741  1.1609 -0.0856
 9081TIP3    H251439   5.043   0.411   3.096 -0.1928 -1.6485  0.4258
 9082TIP3   OH251440   2.804   2.130   2.123 -0.2110 -0.0119  0.3159
 9082TIP3    H151441   2.727   2.094   2.079  0.6146 -1.5416  0.0577
 9082TIP3    H251442   2.806   2.086   2.208  0.0384  0.4784  0.5687
 9083TIP3   OH251443   4.164   5.964   2.229  0.6982  0.2452  0.2462
 9083TIP3    H151444   4.079   5.933   2.259  0.9102  0.2262  0.8490
 9083TIP3    H251445   4.194   6.024   2.298  1.3761 -0.1191  0.2878
 9084TIP3   OH251446   0.917   0.253   2.696 -0.5901  0.4639 -0.0957
 9084TIP3    H151447   0.852   0.182   2.693 -1.3768  1.0556  1.6765
 9084TIP3    H251448   0.998   0.212   2.666 -1.0743 -1.1357  0.6490
 9085TIP3   OH251449   6.944   4.056   2.303  0.0835  0.3479 -0.0387
 9085TIP3    H151450   7.000   3.981   2.285 -0.2178  0.0303  0.3241
 9085TIP3    H251451   6.910   4.041   2.392  1.0491  1.5621  0.5760
 9086TIP3   OH251452   3.900   6.160   3.095 -0.5622 -0.1390  0.0013
 9086TIP3    H151453   3.899   6.174   3.000  0.4180  0.6162  0.0868
 9086TIP3    H251454   3.859   6.239   3.131  1.1305  0.6374  0.2956
 9087TIP3   OH251455   1.304   2.106   2.557 -0.5923 -0.3247  0.1602
 9087TIP3    H151456   1.282   2.039   2.493  0.6698 -0.5826 -0.0370
 9087TIP3    H251457   1.363   2.165   2.511 -1.4556  0.7803  0.4187
 9088TIP3   OH251458   4.428   3.826   3.168 -0.0345 -0.2918 -0.2501
 9088TIP3    H151459   4.438   3.739   3.207  0.5394  0.2692  0.8922
 9088TIP3    H251460   4.481   3.883   3.222 -0.1076  0.7227 -1.2118
 9089TIP3   OH251461   1.559   0.848   4.482 -0.5263 -0.1222 -0.3516
 9089TIP3    H151462   1.539   0.766   4.437 -2.5535  0.2857 -0.3043
 9089TIP3    H251463   1.553   0.827   4.575  0.1256 -0.1787 -0.3211
 9090TIP3   OH251464   1.440   6.987   3.373 -0.4080 -0.4794 -0.0624
 9090TIP3    H151465   1.368   7.038   3.335  0.0624  1.1499  1.1366
 9090TIP3    H251466   1.515   7.007   3.316 -0.5149 -0.8876 -0.3533
 9091TIP3   OH251467   5.611   3.331   2.602 -0.2128  0.1661 -0.1188
 9091TIP3    H151468   5.655   3.360   2.682 -1.3642 -0.7073  0.8525
 9091TIP3    H251469   5.617   3.407   2.544  1.1095  0.6402  0.5671
 9092TIP3   OH251470   3.065   0.275   3.920 -0.1185 -0.2794 -0.4190
 9092TIP3    H151471   3.121   0.276   3.842  2.1391 -0.0821  1.0976
 9092TIP3    H251472   3.084   0.191   3.961 -3.1657 -1.4949 -1.2637
 9093TIP3   OH251473   6.465   0.148   3.319  0.4441 -0.0791 -0.0299
 9093TIP3    H151474   6.472   0.180   3.229 -1.9598  2.1063  0.4603
 9093TIP3    H251475   6.458   0.053   3.309  1.2988  0.0114 -2.0558
 9094TIP3   OH251476   0.663   1.647   3.538  0.3663  0.1444 -0.4387
 9094TIP3    H151477   0.669   1.741   3.518 -1.1939  0.0441 -1.6166
 9094TIP3    H251478   0.701   1.639   3.625 -0.7874  2.1481  0.3418
 9095TIP3   OH251479   0.794   6.492   3.533 -0.7987  0.4599  0.3547
 9095TIP3    H151480   0.709   6.522   3.501 -0.8697 -0.3096 -0.1881
 9095TIP3    H251481   0.818   6.420   3.475  0.8638  1.5355 -0.3706
 9096TIP3   OH251482   5.266   0.456   2.049  0.2902  0.3847 -0.1398
 9096TIP3    H151483   5.356   0.446   2.080  0.3565 -0.5792 -0.6215
 9096TIP3    H251484   5.237   0.539   2.088  1.2180  0.4700  0.4075
 9097TIP3   OH251485   4.503   7.547   2.762  0.2288 -0.2932  0.0797
 9097TIP3    H151486   4.590   7.587   2.767 -0.5753  1.4830  0.8061
 9097TIP3    H251487   4.484   7.521   2.852  0.0893 -0.8422 -0.1098
 9098TIP3   OH251488   1.387   4.680   4.511  0.2067  0.0253 -0.1188
 9098TIP3    H151489   1.326   4.733   4.562 -1.0076 -1.4668  0.0582
 9098TIP3    H251490   1.473   4.707   4.541 -0.4392  0.2021  1.6887
 9099TIP3   OH251491   2.034   2.995   2.747  0.0671  0.3744 -0.2485
 9099TIP3    H151492   2.014   3.083   2.778 -1.2146  0.1184 -0.3013
 9099TIP3    H251493   2.080   3.008   2.664  0.7271  0.9995  0.2009
 9100TIP3   OH251494   4.475   1.570   2.862 -0.1643 -0.3858 -0.0082
 9100TIP3    H151495   4.498   1.620   2.784  0.9729 -0.2734  0.3827
 9100TIP3    H251496   4.440   1.635   2.923 -0.1386 -0.3219 -0.0620
 9101TIP3   OH251497   0.488   2.813   2.557  0.2990  0.5726 -0.4114
 9101TIP3    H151498   0.533   2.870   2.620 -2.2601  2.7940 -0.4006
 9101TIP3    H251499   0.499   2.857   2.473  0.8556 -0.6067 -0.9782
 9102TIP3   OH251500   4.550   1.545   2.523 -0.9486 -0.1831  0.0501
 9102TIP3    H151501   4.527   1.624   2.571  0.4037  0.8144 -0.8713
 9102TIP3    H251502   4.469   1.517   2.481 -1.4453  0.7064  0.4110
 9103TIP3   OH251503   2.599   2.616   2.947  0.2333 -0.3953 -0.3096
 9103TIP3    H151504   2.665   2.566   2.899  1.6619  0.7514  0.3549
 9103TIP3    H251505   2.536   2.643   2.880 -0.6912 -3.1079 -0.6695
 9104TIP3   OH251506   4.056   1.812   2.249 -0.1651 -0.1146 -0.5453
 9104TIP3    H151507   4.119   1.879   2.224 -0.3606  0.5361  0.6263
 9104TIP3    H251508   3.984   1.822   2.187  0.4999 -0.3231 -1.3779
 9105TIP3   OH251509   1.954   6.190   4.019  0.4259 -0.7254 -0.2740
 9105TIP3    H151510   1.925   6.259   4.079 -0.3688  0.7318 -2.2220
 9105TIP3    H251511   1.875   6.163   3.973  1.1919 -0.8664 -1.5621
 9106TIP3   OH251512   3.950   0.400   2.781 -0.1727 -0.9684 -0.3046
 9106TIP3    H151513   4.006   0.415   2.857  3.0424 -0.9049 -2.4616
 9106TIP3    H251514   3.957   0.306   2.765  0.7838 -0.7150 -1.5527
 9107TIP3   OH251515   5.986   2.030   2.854  0.5292  0.6416  0.3078
 9107TIP3    H151516   5.911   1.978   2.825 -0.5018  2.3708 -0.2769
 9107TIP3    H251517   5.987   2.020   2.950 -0.1223  0.1749  0.2713
 9108TIP3   OH251518   7.002   6.856   3.811 -0.2260  0.8971  1.1617
 9108TIP3    H151519   6.996   6.892   3.722 -0.1721 -1.2015  0.2527
 9108TIP3    H251520   7.010   6.933   3.867  1.0121  2.2529 -0.7456
 9109TIP3   OH251521   6.463   2.128   3.633  0.0547 -0.2343 -0.4010
 9109TIP3    H151522   6.367   2.120   3.628  0.1611 -1.2197 -1.3589
 9109TIP3    H251523   6.479   2.167   3.718 -1.2007 -0.1722 -0.1650
 9110TIP3   OH251524   2.731   7.183   4.480  0.7633 -0.1970 -0.1026
 9110TIP3    H151525   2.682   7.259   4.513  0.5293 -0.2664 -0.2904
 9110TIP3    H251526   2.676   7.108   4.501  0.9485 -0.3077 -0.0104
 9111TIP3   OH251527   7.026   4.705   2.711 -0.4087 -0.0489  0.6123
 9111TIP3    H151528   7.076   4.645   2.655  0.3773 -0.1369  1.3891
 9111TIP3    H251529   6.977   4.647   2.770 -1.3717  0.0388 -0.0664
 9112TIP3   OH251530   4.909   6.406   2.389  0.2852 -0.3050 -0.0092
 9112TIP3    H151531   4.873   6.386   2.475 -0.8633 -1.4090 -0.7011
 9112TIP3    H251532   4.832   6.425   2.335  1.1082  3.0888 -0.2041
 9113TIP3   OH251533   2.448   6.613   4.145  0.2053 -0.3670  0.4387
 9113TIP3    H151534   2.487   6.547   4.203 -0.6787  0.8109  2.4779
 9113TIP3    H251535   2.354   6.595   4.147  0.1439 -0.2298 -0.5854
 9114TIP3   OH251536   5.047   0.311   4.334  0.5950  0.1578  0.4495
 9114TIP3    H151537   5.078   0.285   4.420 -0.2152  0.9123  0.9857
 9114TIP3    H251538   5.108   0.379   4.306  2.5331 -1.9850 -0.8247
 9115TIP3   OH251539   2.717   2.520   2.302 -0.7159 -0.4001  0.5720
 9115TIP3    H151540   2.811   2.527   2.315 -0.6545  1.0107 -0.4076
 9115TIP3    H251541   2.692   2.441   2.350  0.9925 -0.9430  0.6369
 9116TIP3   OH251542   0.578   6.217   2.658 -0.1543 -0.1966 -0.1703
 9116TIP3    H151543   0.578   6.311   2.642  0.7892  1.1219  5.4237
 9116TIP3    H251544   0.670   6.192   2.652 -0.3331 -0.6727 -1.0667
 9117TIP3   OH251545   3.800   6.654   4.668 -0.0280 -0.1416  0.7437
 9117TIP3    H151546   3.810   6.677   4.761 -0.8289  0.5504  0.6666
 9117TIP3    H251547   3.740   6.719   4.633 -0.2276 -0.7725 -0.1267
 9118TIP3   OH251548   0.779   0.024   2.629  0.0234 -0.3435 -0.1335
 9118TIP3    H151549   0.716   0.088   2.596  0.1210  0.1266  0.5680
 9118TIP3    H251550   0.830  -0.002   2.552 -1.6448 -1.4555 -0.8970
 9119TIP3   OH251551   0.030   3.699   3.536  0.3850 -0.1482 -0.1991
 9119TIP3    H151552   0.035   3.761   3.609  1.2648 -1.6871  1.1117
 9119TIP3    H251553  -0.015   3.747   3.466 -0.9364  1.2163  1.5181
 9120TIP3   OH251554   6.101   6.674   3.326 -0.0502  0.6259 -0.1429
 9120TIP3    H151555   6.103   6.678   3.230 -0.9738  1.2454 -0.1526
 9120TIP3    H251556   6.194   6.670   3.351  0.1934  0.0464 -1.0677
 9121TIP3   OH251557   6.614   7.143   4.352  0.4837  0.4852  0.0227
 9121TIP3    H151558   6.555   7.075   4.320  1.8087 -1.5730  1.6783
 9121TIP3    H251559   6.672   7.162   4.279 -2.3069  2.9016 -1.8192
 9122TIP3   OH251560   6.825   4.683   2.186 -0.0206 -0.4508 -0.4043
 9122TIP3    H151561   6.826   4.690   2.281  1.7000 -0.6973 -0.3888
 9122TIP3    H251562   6.880   4.608   2.166 -1.0903 -0.9601 -1.5711
 9123TIP3   OH251563   6.883   2.376   3.900  0.5855  0.1024 -0.2510
 9123TIP3    H151564   6.805   2.321   3.911  0.9425 -0.4029 -0.2270
 9123TIP3    H251565   6.954   2.325   3.939  0.4661  1.8008  2.5213
 9124TIP3   OH251566   3.105   5.780   2.943 -0.2060  0.7627 -0.2099
 9124TIP3    H151567   3.034   5.723   2.914 -0.0097  0.9748 -1.1274
 9124TIP3    H251568   3.124   5.751   3.032 -1.5503  0.8086  0.1116
 9125TIP3   OH251569   2.907   1.481   4.188 -0.2481  0.3996 -0.7135
 9125TIP3    H151570   2.984   1.458   4.240 -1.7458  2.3215  2.7228
 9125TIP3    H251571   2.907   1.577   4.185 -1.2234  0.3848 -2.7659
 9126TIP3   OH251572   6.473   4.520   4.639 -0.1901  0.2585  0.2402
 9126TIP3    H151573   6.461   4.541   4.732 -0.0383 -0.4895  0.4308
 9126TIP3    H251574   6.515   4.435   4.639 -2.6536 -1.0499 -0.5237
 9127TIP3   OH251575   4.078   2.768   4.072 -0.0201  0.8508 -0.3524
 9127TIP3    H151576   4.085   2.673   4.064 -0.6705  0.8640 -1.1480
 9127TIP3    H251577   4.028   2.796   3.996 -2.0266  1.5717  1.1518
 9128TIP3   OH251578   4.727   4.553   3.964  0.1476 -0.1202 -0.5853
 9128TIP3    H151579   4.718   4.649   3.967  3.2631  0.3045 -1.1995
 9128TIP3    H251580   4.691   4.523   4.047 -2.4468  1.3542 -1.0624
 9129TIP3   OH251581   2.973   0.658   3.320 -0.2943 -0.1758 -0.4571
 9129TIP3    H151582   2.906   0.698   3.264 -0.9446 -1.7522 -0.8524
 9129TIP3    H251583   3.006   0.585   3.269  0.5140 -0.4613  0.4478
 9130TIP3   OH251584   4.762   2.704   2.810  0.3198 -0.0917  0.4165
 9130TIP3    H151585   4.777   2.781   2.754 -0.2476 -0.0744  0.2799
 9130TIP3    H251586   4.736   2.635   2.749  1.7732 -0.6702  0.4321
 9131TIP3   OH251587   0.238   6.387   2.632  0.2627  0.7223 -0.4520
 9131TIP3    H151588   0.264   6.375   2.723  0.0524 -0.2535 -0.5048
 9131TIP3    H251589   0.318   6.411   2.586  1.0947 -1.9485 -0.5595
 9132TIP3   OH251590   1.468   3.977   2.486  0.2323 -0.4138  0.4861
 9132TIP3    H151591   1.412   4.034   2.537  0.8252  0.4744  0.1636
 9132TIP3    H251592   1.452   4.003   2.395  0.4430 -0.8162  0.3305
 9133TIP3   OH251593   6.289   3.639   4.047 -0.2774 -0.3510 -0.2827
 9133TIP3    H151594   6.313   3.713   4.103 -0.4165 -1.7427  1.7198
 9133TIP3    H251595   6.227   3.588   4.099 -0.4017 -1.7561 -1.7090
 9134TIP3   OH251596   1.984   2.563   4.013 -0.2560 -0.2381 -0.1533
 9134TIP3    H151597   1.967   2.556   4.107  1.2949  0.2596  0.1921
 9134TIP3    H251598   1.946   2.647   3.987 -0.2899 -0.1680  0.1270
 9135TIP3   OH251599   2.903   5.052   4.680 -0.5982 -0.0202 -0.4832
 9135TIP3    H151600   2.873   5.141   4.697 -2.6838 -0.5862 -0.8456
 9135TIP3    H251601   2.925   5.051   4.586  1.9641  0.7183  0.0284
 9136TIP3   OH251602   3.437   2.605   4.607  0.4891  0.6883  0.2085
 9136TIP3    H151603   3.457   2.532   4.548  1.5954  1.7377 -0.7545
 9136TIP3    H251604   3.516   2.615   4.660 -0.6556 -0.5636  2.3149
 9137TIP3   OH251605   3.680   2.617   3.274  0.2917  0.1880  0.4973
 9137TIP3    H151606   3.744   2.554   3.240  0.5477  0.1024  1.1333
 9137TIP3    H251607   3.729   2.671   3.335 -0.3596 -0.2128  1.3948
 9138TIP3   OH251608   4.896   4.393   3.671  0.7209 -0.0181 -0.2677
 9138TIP3    H151609   4.812   4.434   3.694  0.7540  0.4790 -1.0116
 9138TIP3    H251610   4.879   4.299   3.679  0.7263  0.1044  1.7370
 9139TIP3   OH251611   6.262   3.671   3.645 -0.8387  0.0222  0.3275
 9139TIP3    H151612   6.308   3.594   3.613  0.3991  0.3296  1.2543
 9139TIP3    H251613   6.194   3.688   3.580  1.2583  0.3961 -1.9559
 9140TIP3   OH251614   1.694   1.294   3.674 -0.2880  0.2427  0.0261
 9140TIP3    H151615   1.743   1.215   3.698 -1.1544 -0.3737 -0.1942
 9140TIP3    H251616   1.748   1.336   3.607 -0.4853 -0.9236 -0.9080
 9141TIP3   OH251617   0.829   4.463   3.863 -1.1001  0.5338 -0.2952
 9141TIP3    H151618   0.903   4.403   3.878 -0.4160  1.6994  1.2551
 9141TIP3    H251619   0.839   4.491   3.773 -1.8996 -2.2624 -1.3515
 9142TIP3   OH251620   3.580   1.997   3.683 -0.7144 -0.3143 -0.1588
 9142TIP3    H151621   3.517   2.067   3.697 -0.4326 -0.3113  1.2751
 9142TIP3    H251622   3.530   1.916   3.699  0.2141 -0.2867  4.3817
 9143TIP3   OH251623   6.258   5.298   3.451  0.0199 -0.0611 -0.4276
 9143TIP3    H151624   6.296   5.330   3.370 -0.8065 -0.6272 -1.0613
 9143TIP3    H251625   6.175   5.258   3.425 -0.5138  0.2023  0.7655
 9144TIP3   OH251626   3.701   6.839   3.827 -0.1547 -0.1298  0.3832
 9144TIP3    H151627   3.605   6.844   3.831 -0.2955  0.1679 -1.9118
 9144TIP3    H251628   3.730   6.924   3.859 -0.7903  0.6131 -0.9280
 9145TIP3   OH251629   5.332   0.625   3.328 -0.2279  0.6332 -0.2979
 9145TIP3    H151630   5.340   0.712   3.366  0.5864  0.7628 -0.7414
 9145TIP3    H251631   5.397   0.572   3.374  0.3504  0.6477 -1.0742
 9146TIP3   OH251632   7.165   1.002   3.487 -0.3880 -0.2103  0.2029
 9146TIP3    H151633   7.167   0.908   3.470 -0.7282 -0.2504  0.3843
 9146TIP3    H251634   7.074   1.021   3.507 -0.9575  0.7212 -2.8644
 9147TIP3   OH251635   0.593   2.362   2.192  0.2747 -0.1550 -0.3672
 9147TIP3    H151636   0.526   2.325   2.248 -0.0108 -0.8186 -1.1265
 9147TIP3    H251637   0.548   2.382   2.110  1.0154 -0.7129 -0.9270
 9148TIP3   OH251638   2.539   3.397   4.252  0.8068 -0.3486 -0.5208
 9148TIP3    H151639   2.494   3.314   4.232  0.7120 -0.2487 -0.7271
 9148TIP3    H251640   2.569   3.387   4.342 -0.3936 -0.0870 -0.0733
 9149TIP3   OH251641   3.735   6.162   3.677  0.3337  0.2230  0.3214
 9149TIP3    H151642   3.718   6.256   3.668 -1.1952 -0.0535  0.0138
 9149TIP3    H251643   3.794   6.141   3.604 -1.7126  0.4273 -1.5203
 9150TIP3   OH251644   3.492   0.275   3.576 -0.7054 -0.5290 -0.0036
 9150TIP3    H151645   3.495   0.210   3.646 -0.2312 -0.4641  0.0392
 9150TIP3    H251646   3.500   0.359   3.622 -0.9663 -0.4580 -0.0880
 9151TIP3   OH251647   6.194   1.935   4.183  0.3050 -0.5183  0.0601
 9151TIP3    H151648   6.140   1.966   4.256 -0.9749 -2.0141 -0.2023
 9151TIP3    H251649   6.220   1.847   4.208  4.0071  0.6032  0.8615
 9152TIP3   OH251650   2.857   2.414   3.956 -0.3121 -0.2478 -0.3016
 9152TIP3    H151651   2.882   2.504   3.976 -2.2244 -0.0723  1.6638
 9152TIP3    H251652   2.919   2.360   4.006  1.2425 -0.1152 -1.9812
 9153TIP3   OH251653   2.307   5.221   3.374 -0.4128 -0.0628 -0.3833
 9153TIP3    H151654   2.300   5.233   3.468  0.1589  2.8965 -0.6364
 9153TIP3    H251655   2.343   5.132   3.364 -2.1812 -1.1684  2.0367
 9154TIP3   OH251656   3.782   0.958   4.147 -0.0009 -0.2515  0.9089
 9154TIP3    H151657   3.859   0.902   4.156  0.3485  0.2952  1.3512
 9154TIP3    H251658   3.797   1.005   4.065 -0.4362 -1.0025  0.3807
 9155TIP3   OH251659   5.324   0.582   4.455 -0.2471  0.0318 -0.0056
 9155TIP3    H151660   5.297   0.495   4.485 -1.1620  0.4616  0.4813
 9155TIP3    H251661   5.292   0.641   4.524 -0.0540  0.7934 -0.5648
 9156TIP3   OH251662   2.570   6.984   4.517  0.1508  0.3717 -0.4627
 9156TIP3    H151663   2.588   6.893   4.541  0.5887  0.5279 -0.1852
 9156TIP3    H251664   2.535   6.979   4.427  2.4079  0.1102 -1.3917
 9157TIP3   OH251665   2.020   0.363   4.032  0.2124 -0.5686  0.5402
 9157TIP3    H151666   1.997   0.412   3.953 -1.0471  0.4311  1.4719
 9157TIP3    H251667   2.087   0.416   4.075  1.4047 -1.4573 -0.1661
 9158TIP3   OH251668   6.135   1.983   2.616 -0.4302 -0.0326  0.3594
 9158TIP3    H151669   6.116   2.005   2.707  3.4518  0.9257  1.1107
 9158TIP3    H251670   6.116   2.062   2.567 -2.9775 -0.6908  0.1419
 9159TIP3   OH251671   3.009   5.102   4.433 -0.4309 -0.1792  0.4353
 9159TIP3    H151672   3.046   5.169   4.376 -1.5562  0.1801  0.1050
 9159TIP3    H251673   3.057   5.022   4.410 -0.6984  0.0141 -0.8421
 9160TIP3   OH251674   4.210   3.002   2.585  0.3557  0.0633  0.0639
 9160TIP3    H151675   4.146   2.934   2.563  0.9113  0.6171 -4.3650
 9160TIP3    H251676   4.295   2.960   2.568  0.9518  0.6780  1.4183
 9161TIP3   OH251677   4.330   7.421   3.655 -0.1488 -0.1408  0.3078
 9161TIP3    H151678   4.368   7.333   3.647  0.4307  0.1343 -0.0424
 9161TIP3    H251679   4.406   7.480   3.654 -0.5567  0.3856  0.1600
 9162TIP3   OH251680   6.703   4.737   3.001  0.4865 -0.1879  0.5475
 9162TIP3    H151681   6.784   4.768   3.043 -1.5270  1.8070  3.3799
 9162TIP3    H251682   6.655   4.693   3.072 -2.0350  1.0411 -0.2857
 9163TIP3   OH251683   1.409   4.590   2.024 -0.7345  0.4480 -0.6147
 9163TIP3    H151684   1.444   4.677   2.042  0.1299  0.6912 -3.0306
 9163TIP3    H251685   1.486   4.538   1.999 -1.5653 -0.1277 -2.1167
 9164TIP3   OH251686   6.109   3.753   3.429 -0.5408  0.5653 -0.3498
 9164TIP3    H151687   6.038   3.807   3.395  0.1109  0.2301 -2.3386
 9164TIP3    H251688   6.187   3.783   3.383  0.5163  0.4421  1.2787
 9165TIP3   OH251689   5.262   0.068   4.942 -0.1324 -0.2367 -0.5138
 9165TIP3    H151690   5.331   0.034   4.998 -1.5244 -0.5033  1.1169
 9165TIP3    H251691   5.304   0.137   4.891  1.2194 -0.0546  0.7902
 9166TIP3   OH251692   0.781   6.670   4.140  0.0141 -0.3874 -0.0768
 9166TIP3    H151693   0.720   6.664   4.066  0.3833 -1.3666 -0.3162
 9166TIP3    H251694   0.764   6.756   4.178 -1.0407 -0.3683 -0.5547
 9167TIP3   OH251695   0.000   0.897   4.619 -0.3530  0.2445  0.3558
 9167TIP3    H151696  -0.028   0.806   4.627 -0.1987  0.1733  0.0959
 9167TIP3    H251697   0.095   0.891   4.605 -0.3522  0.4438  0.2792
 9168TIP3   OH251698   1.213   7.393   4.514  0.0706 -0.4627  0.3068
 9168TIP3    H151699   1.245   7.435   4.594  0.9994 -1.6482  0.5838
 9168TIP3    H251700   1.121   7.419   4.509  0.2869  0.5721  1.1272
 9169TIP3   OH251701   4.654   3.871   3.679  0.8961 -0.1949 -0.4206
 9169TIP3    H151702   4.580   3.827   3.721 -0.5223  1.6969 -0.7741
 9169TIP3    H251703   4.661   3.830   3.593 -2.5454  2.1831 -2.0953
 9170TIP3   OH251704   4.284   5.310   2.481 -0.3699  0.6847 -0.1259
 9170TIP3    H151705   4.320   5.275   2.399  0.7957  0.0823  0.6230
 9170TIP3    H251706   4.315   5.250   2.549 -0.9030  1.4582  0.8229
 9171TIP3   OH251707   5.456   0.329   2.398  0.2250  0.0898  0.3388
 9171TIP3    H151708   5.533   0.288   2.357  0.0272 -0.8233  0.8443
 9171TIP3    H251709   5.450   0.287   2.484 -0.1489  1.0159  0.7763
 9172TIP3   OH251710   3.029   6.681   2.704  0.1540 -0.3322 -0.5264
 9172TIP3    H151711   3.011   6.727   2.786  0.8956  0.0879 -0.5920
 9172TIP3    H251712   3.027   6.749   2.637 -0.0087 -0.6055 -0.8055
 9173TIP3   OH251713   0.167   3.158   3.106  0.5242  0.4063 -0.2052
 9173TIP3    H151714   0.181   3.146   3.200  0.2544 -1.8573 -0.4150
 9173TIP3    H251715   0.078   3.129   3.091  0.4444  1.0737 -1.1444
 9174TIP3   OH251716   2.758   4.101   2.935 -0.0799  1.0025  0.5987
 9174TIP3    H151717   2.674   4.141   2.959 -1.6310 -1.6504 -0.0475
 9174TIP3    H251718   2.744   4.067   2.847  0.6970 -1.8432  1.4740
 9175TIP3   OH251719   3.003   0.382   4.610 -0.2718  0.4886 -0.2775
 9175TIP3    H151720   2.985   0.297   4.650  0.7531  1.1856  1.8097
 9175TIP3    H251721   2.927   0.398   4.554 -0.0091 -2.2316 -1.5610
 9176TIP3   OH251722   2.462   6.164   3.893  0.4051 -0.2579 -0.3135
 9176TIP3    H151723   2.557   6.151   3.891  0.4067 -0.2379 -2.0454
 9176TIP3    H251724   2.443   6.188   3.983  2.4259  2.5438 -0.5189
 9177TIP3   OH251725   7.148   4.549   2.526  0.1518  0.0763  0.1793
 9177TIP3    H151726   7.131   4.467   2.480 -2.7996  0.1276  0.9875
 9177TIP3    H251727   7.232   4.535   2.569  0.2171 -2.1174 -0.5239
 9178TIP3   OH251728   4.569   0.917   2.596 -0.1345  0.6607  0.6733
 9178TIP3    H151729   4.572   0.892   2.504  1.5829  2.5810  0.1280
 9178TIP3    H251730   4.560   0.834   2.643 -1.6156 -0.3184 -1.2060
 9179TIP3   OH251731   0.381   7.120   3.310  0.3943  0.2546 -0.3911
 9179TIP3    H151732   0.346   7.033   3.328 -2.4614  1.1260 -1.2107
 9179TIP3    H251733   0.353   7.140   3.220 -0.4593  2.5732  0.2908
 9180TIP3   OH251734   5.444   6.944   2.682  0.1898  0.0866 -0.0607
 9180TIP3    H151735   5.505   7.017   2.689  0.5617 -0.3381  1.9516
 9180TIP3    H251736   5.492   6.869   2.717  0.0125 -1.2931 -2.5697
 9181TIP3   OH251737   1.546   0.659   4.297  0.0183  0.4647 -0.3260
 9181TIP3    H151738   1.526   0.570   4.266  1.4641  0.2052 -0.5861
 9181TIP3    H251739   1.641   0.668   4.285  0.2890  1.1911  1.9033
 9182TIP3   OH251740   2.485   2.061   3.748  0.3798 -0.5006  0.0590
 9182TIP3    H151741   2.472   2.095   3.659 -0.1960 -1.4188 -0.2229
 9182TIP3    H251742   2.550   2.120   3.787  1.3863 -0.6602 -1.3089
 9183TIP3   OH251743   4.382   5.792   4.634  0.3530 -0.4463 -0.2235
 9183TIP3    H151744   4.451   5.730   4.657 -0.8040 -1.2953  1.0987
 9183TIP3    H251745   4.353   5.828   4.717 -1.1829 -0.5432 -0.6900
 9184TIP3   OH251746   4.035   0.597   2.992  0.7187 -0.5343  0.5382
 9184TIP3    H151747   4.022   0.692   3.001  0.4372 -0.5171  0.0181
 9184TIP3    H251748   3.961   0.558   3.038  0.0659 -0.4698 -0.4071
 9185TIP3   OH251749   6.717   2.855   2.982 -0.1868  0.5475 -0.0031
 9185TIP3    H151750   6.782   2.826   3.046  1.0602  0.8081 -1.1318
 9185TIP3    H251751   6.694   2.776   2.934  2.8943  1.1768 -2.7918
 9186TIP3   OH251752   1.630   4.138   3.216 -0.3771  0.0667 -0.6978
 9186TIP3    H151753   1.595   4.054   3.187 -0.9911  0.6354 -1.6857
 9186TIP3    H251754   1.666   4.178   3.136 -0.6176  0.9830 -0.3645
 9187TIP3   OH251755   0.100   4.041   3.268  0.1104  0.2803 -0.3042
 9187TIP3    H151756   0.161   3.998   3.208 -0.0421  0.9786 -0.9711
 9187TIP3    H251757   0.046   3.970   3.302 -0.0801 -0.0779 -1.3234
 9188TIP3   OH251758   5.112   2.701   2.873  0.5791  0.0034 -0.4600
 9188TIP3    H151759   5.145   2.663   2.954  1.6839 -0.9339 -1.3032
 9188TIP3    H251760   5.079   2.626   2.823 -0.1469  0.5716 -0.8441
 9189TIP3   OH251761   4.776   6.933   3.286  0.5100 -0.1348 -0.3465
 9189TIP3    H151762   4.763   7.000   3.219 -1.0904 -1.3945 -1.3873
 9189TIP3    H251763   4.846   6.878   3.252 -1.7332 -2.0480 -2.1727
 9190TIP3   OH251764   2.741   7.542   4.307  0.2085 -0.1879  0.3651
 9190TIP3    H151765   2.653   7.546   4.343  0.1070 -1.4096  0.2895
 9190TIP3    H251766   2.732   7.574   4.217  0.0054  0.4837  0.6190
 9191TIP3   OH251767   6.041   3.551   3.063  0.6124 -0.4670  0.0651
 9191TIP3    H151768   6.113   3.535   3.124 -0.2754  1.4773  1.7856
 9191TIP3    H251769   5.962   3.537   3.116 -0.2170  0.4613 -0.8863
 9192TIP3   OH251770   3.744   6.276   2.567 -0.0532  0.0724 -0.3064
 9192TIP3    H151771   3.692   6.213   2.518  1.7556 -1.1450 -0.7696
 9192TIP3    H251772   3.759   6.348   2.505 -1.2013  0.4792 -0.1376
 9193TIP3   OH251773   6.617   7.432   3.546  0.3195 -0.2758  0.2587
 9193TIP3    H151774   6.657   7.391   3.469  0.1880 -0.7487  0.4362
 9193TIP3    H251775   6.600   7.359   3.606  1.1652  0.1687  1.0777
 9194TIP3   OH251776   0.688   7.598   3.428 -0.2312  0.0667  0.5546
 9194TIP3    H151777   0.773   7.558   3.446 -0.4862 -0.7583  0.0038
 9194TIP3    H251778   0.626   7.545   3.478 -0.7694 -1.3110 -1.4694
 9195TIP3   OH251779   4.004   4.266   3.220 -0.3155  0.0653 -0.2247
 9195TIP3    H151780   3.931   4.206   3.234 -0.1216 -0.0180  0.4978
 9195TIP3    H251781   4.001   4.287   3.127  0.1773 -1.8105 -0.7039
 9196TIP3   OH251782   6.843   2.422   2.616  0.1805  0.0610  0.3963
 9196TIP3    H151783   6.877   2.446   2.702 -0.7951 -1.0166  1.1159
 9196TIP3    H251784   6.895   2.345   2.591 -1.5271 -1.5220  1.4486
 9197TIP3   OH251785   6.905   2.008   3.646  0.4086 -0.5630 -0.6573
 9197TIP3    H151786   6.850   2.086   3.639  1.3036 -0.0129 -2.1167
 9197TIP3    H251787   6.874   1.964   3.725 -0.9691  0.6010 -0.4949
 9198TIP3   OH251788   3.241   7.643   3.449  0.1022 -0.1273 -0.2563
 9198TIP3    H151789   3.275   7.685   3.369  1.3799  0.7445  0.7165
 9198TIP3    H251790   3.283   7.557   3.451 -1.2348 -0.8589 -1.3707
 9199TIP3   OH251791   1.480   5.867   3.905  0.2407  0.1702 -0.5975
 9199TIP3    H151792   1.469   5.865   3.810 -0.7784  1.1226 -0.5296
 9199TIP3    H251793   1.453   5.956   3.930  1.3652  0.2305  0.4900
 9200TIP3   OH251794   6.397   0.610   2.692  0.2707 -0.1112 -0.0489
 9200TIP3    H151795   6.335   0.542   2.722  1.2995 -0.3372  1.7163
 9200TIP3    H251796   6.483   0.571   2.706  0.8478  0.9317 -0.6499
 9201TIP3   OH251797   6.849   2.130   2.720 -0.1858 -0.5144 -0.6281
 9201TIP3    H151798   6.821   2.120   2.629 -1.2721 -2.6161 -0.1091
 9201TIP3    H251799   6.774   2.171   2.764  0.0410 -0.2289 -0.4976
 9202TIP3   OH251800   0.539   4.981   3.955  0.2422  0.9724 -0.0635
 9202TIP3    H151801   0.457   4.938   3.976  0.7984  0.1969  0.5995
 9202TIP3    H251802   0.594   4.911   3.918  1.6837  0.6860  2.3943
 9203TIP3   OH251803   4.475   5.109   2.583 -0.6557 -0.5567  0.2339
 9203TIP3    H151804   4.546   5.097   2.646  1.3004  0.9463 -1.5317
 9203TIP3    H251805   4.478   5.031   2.528 -1.5840 -1.3168  1.2310
 9204TIP3   OH251806   7.235   7.628   4.232  0.0184  0.4784 -0.1036
 9204TIP3    H151807   7.269   7.663   4.150  0.5447  1.2588  0.4286
 9204TIP3    H251808   7.156   7.678   4.249 -0.3427  0.0025 -0.3576
 9205TIP3   OH251809   1.704   0.992   3.350 -0.4886 -0.4799 -0.2673
 9205TIP3    H151810   1.670   0.973   3.262 -1.5438 -0.7042  0.1770
 9205TIP3    H251811   1.677   1.083   3.366 -0.2851 -0.4356 -0.1840
 9206TIP3   OH251812   2.771   5.877   3.549  0.9054 -0.3123 -0.2103
 9206TIP3    H151813   2.858   5.885   3.589  0.8833  2.7506 -0.4938
 9206TIP3    H251814   2.713   5.855   3.622  1.8906 -2.9095 -0.1061
 9207TIP3   OH251815   0.735   3.412   3.455 -0.6159  0.4772 -0.2923
 9207TIP3    H151816   0.776   3.469   3.389  0.7992  0.3258  0.4089
 9207TIP3    H251817   0.775   3.440   3.538 -2.2784  0.5907  0.5072
 9208TIP3   OH251818   6.739   1.492   2.755 -0.1442  0.3331 -0.3944
 9208TIP3    H151819   6.646   1.483   2.732 -0.2840  0.1120  0.2473
 9208TIP3    H251820   6.777   1.406   2.737 -0.0542  0.4351 -0.6951
 9209TIP3   OH251821   2.800   5.617   3.505 -0.4320  0.1750 -0.5857
 9209TIP3    H151822   2.739   5.565   3.452 -1.6401 -0.3868  1.2365
 9209TIP3    H251823   2.758   5.703   3.512 -1.2096 -0.2973  0.9073
 9210TIP3   OH251824   3.088   5.474   4.060  0.1085  0.3514 -0.0368
 9210TIP3    H151825   3.175   5.514   4.055  0.4936 -0.5372 -0.5560
 9210TIP3    H251826   3.056   5.474   3.970  0.5397 -1.4184 -0.2136
 9211TIP3   OH251827   2.810   1.742   4.205  0.3694  0.0492  0.3612
 9211TIP3    H151828   2.816   1.799   4.282  0.5202  1.0716 -0.3898
 9211TIP3    H251829   2.797   1.802   4.132  3.1541 -0.6354 -0.8155
 9212TIP3   OH251830   2.587   0.702   2.978 -0.4389 -0.7874  0.5354
 9212TIP3    H151831   2.492   0.690   2.969 -0.7088  0.6085  1.1486
 9212TIP3    H251832   2.623   0.614   2.977 -1.5131 -1.3038 -1.9889
 9213TIP3   OH251833   0.399   2.596   3.974  0.2736  0.8070 -0.0293
 9213TIP3    H151834   0.449   2.522   4.008  0.0653  0.2380 -0.9176
 9213TIP3    H251835   0.341   2.621   4.046 -0.2356 -0.4357  0.0224
 9214TIP3   OH251836   3.324   3.758   2.848  0.1740  0.3551 -0.2619
 9214TIP3    H151837   3.294   3.843   2.880  0.6313 -0.1508  1.6223
 9214TIP3    H251838   3.387   3.779   2.779 -0.5804  1.5006 -0.6281
 9215TIP3   OH251839   2.381   0.328   3.479  0.2654  0.0804  0.9682
 9215TIP3    H151840   2.469   0.329   3.518  0.6569 -0.3174  0.1115
 9215TIP3    H251841   2.373   0.241   3.441 -0.1104  0.4623  0.1624
 9216TIP3   OH251842   3.261   1.628   3.349 -0.1253  0.2125  0.6520
 9216TIP3    H151843   3.349   1.665   3.338 -0.6988  1.4079 -0.1777
 9216TIP3    H251844   3.227   1.622   3.259 -0.3484 -1.6678  0.8304
 9217TIP3   OH251845   3.786   7.660   2.993  0.0692 -0.1557  0.2818
 9217TIP3    H151846   3.772   7.748   2.958  2.1094 -0.4512 -1.5123
 9217TIP3    H251847   3.702   7.616   2.981 -0.4414  1.0017 -0.5711
 9218TIP3   OH251848   2.278   2.949   3.568 -0.5468  0.0560  0.0262
 9218TIP3    H151849   2.214   2.951   3.497 -0.1472 -0.7359 -0.3756
 9218TIP3    H251850   2.347   3.009   3.541  1.2266 -2.5897 -1.9013
 9219TIP3   OH251851   5.680   3.124   4.221 -0.1935  0.0726  0.3671
 9219TIP3    H151852   5.622   3.198   4.204  0.6301  0.5457 -0.4466
 9219TIP3    H251853   5.731   3.114   4.141  0.3361 -0.8019  0.7980
 9220TIP3   OH251854   0.830   4.916   3.375  0.4580  0.0734 -0.2876
 9220TIP3    H151855   0.839   5.002   3.416 -1.1114  0.2169 -0.1736
 9220TIP3    H251856   0.898   4.915   3.307  2.1788  0.3805  1.3416
 9221TIP3   OH251857   6.848   6.467   4.292 -0.1826  0.2166  0.0308
 9221TIP3    H151858   6.857   6.464   4.197  0.6810  0.7647  0.0887
 9221TIP3    H251859   6.935   6.444   4.325  0.5404  3.3587  0.6510
 9222TIP3   OH251860   7.259   1.298   4.388  0.5041 -0.8773 -0.3924
 9222TIP3    H151861   7.252   1.337   4.301 -0.9469  0.3084  0.1941
 9222TIP3    H251862   7.319   1.357   4.435 -2.8309  1.7841  0.9481
 9223TIP3   OH251863   5.088   6.593   4.436 -0.3305  0.0702 -0.2564
 9223TIP3    H151864   5.165   6.631   4.478  0.5103 -1.1985 -0.6153
 9223TIP3    H251865   5.064   6.519   4.492 -2.3569  1.4178  0.8106
 9224TIP3   OH251866   3.817   3.368   3.179  0.9478 -0.6513  0.7467
 9224TIP3    H151867   3.875   3.424   3.231  2.7066 -2.3524  0.7032
 9224TIP3    H251868   3.754   3.429   3.140  2.9055  1.3375  0.5076
 9225TIP3   OH251869   7.171   7.194   3.378 -0.2329 -0.5287 -0.0794
 9225TIP3    H151870   7.215   7.272   3.345  0.8803 -0.9797  0.3100
 9225TIP3    H251871   7.118   7.163   3.305  0.9469 -0.6043 -0.9164
 9226TIP3   OH251872   3.795   7.102   3.502 -0.3685  0.5103  0.2694
 9226TIP3    H151873   3.758   7.015   3.489  0.0322  0.0492  1.9428
 9226TIP3    H251874   3.725   7.152   3.546 -0.0702  0.5613  0.6924
 9227TIP3   OH251875   2.089   5.412   3.972  0.1602  0.2247  0.0089
 9227TIP3    H151876   2.094   5.317   3.984 -0.5324  0.2505  0.5142
 9227TIP3    H251877   2.169   5.445   4.014 -0.6538  0.0407  1.7794
 9228TIP3   OH251878   4.386   5.209   2.253  0.5055 -0.0791 -0.2828
 9228TIP3    H151879   4.312   5.172   2.205  0.9594 -0.7916 -0.4589
 9228TIP3    H251880   4.444   5.134   2.268  0.1726  0.0117  1.7815
 9229TIP3   OH251881   0.174   3.567   4.040 -0.2379  0.3854 -0.1948
 9229TIP3    H151882   0.140   3.482   4.067 -0.8086  1.1212  1.5492
 9229TIP3    H251883   0.265   3.551   4.016 -0.1282 -0.6004  0.8108
 9230TIP3   OH251884   0.459   6.697   2.465 -0.1288 -0.8393 -0.5441
 9230TIP3    H151885   0.507   6.646   2.530 -0.8263  1.6940  2.1734
 9230TIP3    H251886   0.515   6.772   2.446 -1.2096  0.0160 -0.5132
 9231TIP3   OH251887   4.252   7.024   4.451 -0.2352  0.0090  0.2901
 9231TIP3    H151888   4.294   7.022   4.537 -1.5243  1.3687  1.0042
 9231TIP3    H251889   4.206   6.940   4.444  0.3164 -0.3294  0.6860
 9232TIP3   OH251890   2.584   7.595   3.357  0.1975  0.0583  0.5100
 9232TIP3    H151891   2.647   7.662   3.383  1.1749 -2.1049  4.4290
 9232TIP3    H251892   2.633   7.538   3.298  0.6346  0.5044  0.4360
 9233TIP3   OH251893   2.184   5.664   4.338 -0.5553 -0.2074  0.3819
 9233TIP3    H151894   2.269   5.681   4.298 -0.2826 -0.1162  0.9911
 9233TIP3    H251895   2.122   5.715   4.285 -0.0767  0.6525  0.6300
 9234TIP3   OH251896   2.004   5.371   2.257 -0.4625  0.2455 -0.1111
 9234TIP3    H151897   1.926   5.361   2.311 -0.5769  1.0894 -0.0993
 9234TIP3    H251898   2.023   5.283   2.225 -1.9252  0.1464 -0.8114
 9235TIP3   OH251899   2.518   6.786   3.255 -0.8683  0.2155  0.0556
 9235TIP3    H151900   2.577   6.814   3.325  1.0017 -1.3270 -0.7933
 9235TIP3    H251901   2.440   6.755   3.300 -0.8069  1.7215  1.2629
 9236TIP3   OH251902   1.366   4.571   4.254  0.2862 -0.3062 -0.0248
 9236TIP3    H151903   1.356   4.624   4.333 -1.8171 -0.2040 -0.3218
 9236TIP3    H251904   1.362   4.634   4.182  0.2749 -0.6165 -0.2988
 9237TIP3   OH251905   3.587   1.414   2.256  0.1473  0.3005 -0.2790
 9237TIP3    H151906   3.494   1.397   2.244  0.2648 -0.5936  0.0181
 9237TIP3    H251907   3.616   1.452   2.172 -0.2797 -0.3236 -0.7158
 9238TIP3   OH251908   3.024   4.121   2.756 -0.2403 -0.8698 -0.6262
 9238TIP3    H151909   2.980   4.159   2.831  2.0029  0.0913  0.2953
 9238TIP3    H251910   3.041   4.195   2.697  1.3068 -0.9287 -0.3065
 9239TIP3   OH251911   0.509   3.886   4.871 -0.3397  0.1254 -0.5104
 9239TIP3    H151912   0.424   3.844   4.882 -0.0082 -0.2421  0.8390
 9239TIP3    H251913   0.504   3.966   4.923  0.9197 -1.0949  1.6212
 9240TIP3   OH251914   6.326   5.522   2.469  0.1514 -0.4016  0.2219
 9240TIP3    H151915   6.315   5.612   2.501  0.4739 -0.7057  1.2227
 9240TIP3    H251916   6.415   5.520   2.436  0.2168 -0.4076  0.3967
 9241TIP3   OH251917   3.131   0.917   3.564  0.2583 -0.1313  0.2630
 9241TIP3    H151918   3.062   0.983   3.572  0.3392 -0.2069  1.8347
 9241TIP3    H251919   3.200   0.947   3.622  0.9211 -0.8394 -0.1425
 9242TIP3   OH251920   6.669   4.901   4.415  0.1213  0.4871 -0.1278
 9242TIP3    H151921   6.754   4.914   4.457  0.4510  1.1649 -0.9531
 9242TIP3    H251922   6.606   4.906   4.486  0.8368 -1.1405  0.6549
 9243TIP3   OH251923   1.837   0.853   4.419  0.4512 -0.1265  0.5273
 9243TIP3    H151924   1.753   0.895   4.438 -0.1463 -1.4363  0.8970
 9243TIP3    H251925   1.813   0.770   4.376  1.5153 -0.8724  1.3137
 9244TIP3   OH251926   6.376   0.004   4.162 -0.4397  0.1177  0.1062
 9244TIP3    H151927   6.430   0.014   4.084 -0.7877 -1.2791 -0.3440
 9244TIP3    H251928   6.408   0.072   4.222 -0.2660  1.3153 -1.2741
 9245TIP3   OH251929   3.490   0.629   2.175 -0.3996 -0.0423 -0.0160
 9245TIP3    H151930   3.454   0.664   2.093  1.1064  0.0635 -0.6681
 9245TIP3    H251931   3.474   0.698   2.240  1.0994  1.2475 -0.9330
 9246TIP3   OH251932   5.835   7.581   2.977 -0.9726  0.3208 -0.4527
 9246TIP3    H151933   5.759   7.559   2.925 -2.6316  3.3250  0.4701
 9246TIP3    H251934   5.865   7.665   2.942  1.3858 -0.3352 -0.1805
 9247TIP3   OH251935   5.917   5.336   4.458  0.4214 -0.3873  0.1982
 9247TIP3    H151936   5.957   5.356   4.543 -0.0234 -1.4074  0.6699
 9247TIP3    H251937   5.834   5.293   4.480  1.5097 -3.1828 -0.6476
 9248TIP3   OH251938   6.092   0.190   2.660 -0.2622 -0.5041 -0.0239
 9248TIP3    H151939   6.114   0.116   2.604 -1.8230 -0.2524 -1.0283
 9248TIP3    H251940   6.128   0.167   2.746  0.5020 -1.7666 -0.6519
 9249TIP3   OH251941   3.542   7.347   2.091  0.0625 -0.0163 -0.1008
 9249TIP3    H151942   3.462   7.353   2.039 -0.2832  0.7129  0.5125
 9249TIP3    H251943   3.575   7.436   2.095  1.5671 -0.4707 -1.3384
 9250TIP3   OH251944   7.135   7.474   2.786  0.1120  0.0432  0.4817
 9250TIP3    H151945   7.050   7.432   2.770  0.0657  0.5014 -0.5363
 9250TIP3    H251946   7.198   7.417   2.743  0.0106  1.1704 -1.2447
 9251TIP3   OH251947   4.418   1.616   4.732  0.1271 -0.5633 -0.0911
 9251TIP3    H151948   4.342   1.565   4.702  0.1464  0.6074 -2.3265
 9251TIP3    H251949   4.385   1.706   4.739  1.2721 -0.0468 -1.0552
 9252TIP3   OH251950   6.256   3.017   4.457 -0.5177 -0.3274  0.4675
 9252TIP3    H151951   6.244   3.081   4.528  0.0020 -0.6348  0.8368
 9252TIP3    H251952   6.225   2.934   4.493 -1.0361 -0.3250  0.0438
 9253TIP3   OH251953   0.700   7.110   4.312  0.2587  0.4174 -0.0269
 9253TIP3    H151954   0.619   7.156   4.334  1.0675  1.3190  1.2397
 9253TIP3    H251955   0.770   7.169   4.341  1.3980 -0.0810 -1.5976
 9254TIP3   OH251956   3.327   0.239   4.822  0.3519  0.3882  0.3545
 9254TIP3    H151957   3.316   0.325   4.780 -1.3728 -0.3562 -0.8076
 9254TIP3    H251958   3.414   0.245   4.863  2.7456  0.9318 -4.0846
 9255TIP3   OH251959   4.289   2.939   4.956  0.0570  0.3237  0.0770
 9255TIP3    H151960   4.345   3.015   4.941  3.0700 -1.2961  2.0726
 9255TIP3    H251961   4.225   2.968   5.021  1.2914  1.1766  0.9591
 9256TIP3   OH251962   6.765   2.705   2.697  0.2560  0.1100  0.7433
 9256TIP3    H151963   6.821   2.681   2.771  0.8136 -0.1703  0.2350
 9256TIP3    H251964   6.799   2.789   2.667  1.1198 -0.5727 -0.2531
 9257TIP3   OH251965   1.438   5.459   3.116 -0.1066  0.1157  0.1935
 9257TIP3    H151966   1.520   5.492   3.153  0.3563 -1.1296  0.3141
 9257TIP3    H251967   1.391   5.538   3.089  1.1253  0.8478  0.1108
 9258TIP3   OH251968   5.044   2.016   4.243  0.2204 -0.4151  0.1957
 9258TIP3    H151969   5.010   2.031   4.332 -2.5512 -1.0404 -0.6349
 9258TIP3    H251970   4.992   1.943   4.211 -0.5551  1.2856 -2.7651
 9259TIP3   OH251971   4.067   1.177   3.263 -0.3563 -0.1738  0.2035
 9259TIP3    H151972   4.015   1.124   3.324  1.3093  0.1512  2.0261
 9259TIP3    H251973   4.119   1.113   3.214 -0.7949 -0.3848  0.0119
 9260TIP3   OH251974   6.037   6.001   3.436  0.2185  0.2107  0.3502
 9260TIP3    H151975   5.983   5.949   3.376 -0.2928 -0.9343  1.7373
 9260TIP3    H251976   6.125   5.966   3.425  0.0098 -0.4678  0.7098
 9261TIP3   OH251977   7.436   2.199   3.127 -0.0472 -0.1690  0.1797
 9261TIP3    H151978   7.504   2.256   3.164 -2.9891  2.2547  2.4209
 9261TIP3    H251979   7.448   2.115   3.172  0.3822  0.8005  2.0009
 9262TIP3   OH251980   7.335   4.964   3.915  0.0490  0.0158 -0.1827
 9262TIP3    H151981   7.244   4.976   3.939  0.7131  0.4500  2.3513
 9262TIP3    H251982   7.370   4.903   3.980  2.2229  2.0788  0.7476
 9263TIP3   OH251983   4.431   4.668   4.230  0.5282  0.0379  0.8831
 9263TIP3    H151984   4.418   4.609   4.304  2.0013  0.3421  1.4263
 9263TIP3    H251985   4.501   4.727   4.258  0.4149  0.8247 -0.3725
 9264TIP3   OH251986   5.008   2.325   2.138  0.2883  0.1403 -0.0929
 9264TIP3    H151987   4.987   2.231   2.143 -0.7905  0.4356  2.6640
 9264TIP3    H251988   4.924   2.369   2.152  1.1771  1.4692  1.3208
 9265TIP3   OH251989   5.578   2.925   3.757 -0.0439 -0.2697  0.0328
 9265TIP3    H151990   5.649   2.936   3.695 -0.5343 -0.6137 -0.5965
 9265TIP3    H251991   5.527   2.851   3.723 -1.2984  0.6277 -0.1071
 9266TIP3   OH251992   2.800   0.303   3.802 -0.1783  0.1205  0.2519
 9266TIP3    H151993   2.879   0.256   3.829 -0.5311 -0.0028  1.1309
 9266TIP3    H251994   2.771   0.348   3.882 -0.8126  0.4185 -0.1393
 9267TIP3   OH251995   3.521   4.282   2.665 -0.0657  0.4238 -0.0667
 9267TIP3    H151996   3.440   4.234   2.652 -0.3322  1.2471 -1.6860
 9267TIP3    H251997   3.523   4.346   2.594  2.5658 -0.3682 -0.8213
 9268TIP3   OH251998   0.835   3.450   3.718  0.3421  0.0556  0.4383
 9268TIP3    H151999   0.775   3.522   3.735 -0.6903 -0.7054  0.1505
 9268TIP3    H252000   0.917   3.476   3.760  0.1044  1.5312  0.0582
 9269TIP3   OH252001   5.119   0.780   4.167 -0.0734  0.2126  0.0622
 9269TIP3    H152002   5.026   0.782   4.143  0.0897 -1.1002 -0.7593
 9269TIP3    H252003   5.120   0.802   4.260 -1.6385 -3.7720  1.2131
 9270TIP3   OH252004   5.852   5.407   2.384 -0.4827  0.1776 -0.1878
 9270TIP3    H152005   5.835   5.486   2.332 -1.5115 -0.0353 -0.2031
 9270TIP3    H252006   5.807   5.337   2.338  1.3584 -0.6763 -0.7862
 9271TIP3   OH252007   2.827   4.728   5.208  0.3687 -0.4845 -0.5266
 9271TIP3    H152008   2.777   4.770   5.139 -2.2245 -0.3551  1.2902
 9271TIP3    H252009   2.803   4.636   5.204 -0.5616 -0.3250  0.7297
 9272TIP3   OH252010   7.379   1.207   2.540  0.4568  0.0449 -0.4792
 9272TIP3    H152011   7.347   1.158   2.464 -1.0077  0.5774 -0.2498
 9272TIP3    H252012   7.389   1.296   2.508 -0.4851  0.3441 -0.0047
 9273TIP3   OH252013   0.086   0.205   3.578 -0.0153  0.6134  0.2640
 9273TIP3    H152014   0.024   0.156   3.524  0.2566 -0.9389  1.3092
 9273TIP3    H252015   0.144   0.247   3.515 -0.4903 -0.1220 -0.6903
 9274TIP3   OH252016   4.798   4.727   3.273 -0.4300  0.6842 -0.1237
 9274TIP3    H152017   4.713   4.686   3.256 -0.4218 -0.0382  1.4192
 9274TIP3    H252018   4.862   4.659   3.256 -0.1839  1.0291 -0.6197
 9275TIP3   OH252019   5.720   6.987   4.072 -0.6040 -0.7584  0.3736
 9275TIP3    H152020   5.649   6.926   4.053 -0.5436 -0.4890 -0.8388
 9275TIP3    H252021   5.677   7.066   4.103 -0.8455 -0.6248 -0.2797
 9276TIP3   OH252022   5.512   6.002   1.988 -0.1484 -0.1346  0.7175
 9276TIP3    H152023   5.450   6.051   1.934  0.5063  0.8948  0.8688
 9276TIP3    H252024   5.522   6.055   2.067  1.8233  0.3684  0.1916
 9277TIP3   OH252025   4.805   0.185   3.075 -0.2619  0.0069  0.2722
 9277TIP3    H152026   4.868   0.257   3.075 -0.1368 -0.1016  0.5661
 9277TIP3    H252027   4.854   0.111   3.110  0.1738 -0.7078 -1.7160
 9278TIP3   OH252028   3.312   3.301   4.207  0.3797  0.1428  0.5952
 9278TIP3    H152029   3.325   3.210   4.234 -0.1377 -0.3860 -0.8200
 9278TIP3    H252030   3.222   3.321   4.232 -0.7414 -0.9457 -2.1082
 9279TIP3   OH252031   0.057   5.867   3.696 -0.1369  0.3867  0.4743
 9279TIP3    H152032   0.126   5.805   3.721  0.7615  0.8659 -0.6979
 9279TIP3    H252033   0.104   5.937   3.650 -1.3103  1.1938  0.4701
 9280TIP3   OH252034   7.271   3.965   2.557  0.0558  0.3181 -0.4959
 9280TIP3    H152035   7.309   4.045   2.593 -0.3344  0.1414  0.3371
 9280TIP3    H252036   7.318   3.894   2.601 -0.2753  0.1003 -0.4897
 9281TIP3   OH252037   3.556   1.426   3.417  0.0019  0.5845 -0.1909
 9281TIP3    H152038   3.622   1.483   3.457 -0.1510  2.1148 -1.9910
 9281TIP3    H252039   3.580   1.338   3.448  2.0085  1.2562  0.3766
 9282TIP3   OH252040   2.883   0.372   3.347  0.9747  0.4136  0.4193
 9282TIP3    H152041   2.961   0.386   3.400  1.6187 -0.9567 -0.1126
 9282TIP3    H252042   2.911   0.392   3.257  0.5674  0.4194  0.2911
 9283TIP3   OH252043   3.815   2.728   2.932  0.2198  0.4414 -0.2546
 9283TIP3    H152044   3.903   2.692   2.919 -0.2063 -1.3364  1.3120
 9283TIP3    H252045   3.818   2.765   3.020 -1.1954 -1.7984  0.8348
 9284TIP3   OH252046   7.560   2.581   3.525 -0.3621 -0.2381  0.0824
 9284TIP3    H152047   7.512   2.654   3.564 -0.3755 -1.0127  1.5846
 9284TIP3    H252048   7.652   2.602   3.541 -0.4005 -1.0431  1.5014
 9285TIP3   OH252049   5.537   1.845   2.913  0.1170  0.1524 -0.3101
 9285TIP3    H152050   5.617   1.842   2.966  0.5829  1.4547 -0.8920
 9285TIP3    H252051   5.466   1.842   2.976  0.5949 -1.2647  0.2105
 9286TIP3   OH252052   5.087   4.812   3.356 -0.5233 -0.7710  0.0513
 9286TIP3    H152053   5.081   4.907   3.361  0.9987 -0.7056  1.2581
 9286TIP3    H252054   5.145   4.796   3.281  0.2258 -0.6808  0.5981
 9287TIP3   OH252055   0.240   5.504   4.612 -0.1590 -0.2032 -0.2734
 9287TIP3    H152056   0.178   5.436   4.637 -0.2947  0.6243  1.8509
 9287TIP3    H252057   0.265   5.546   4.694  0.8307  1.5374 -1.3816
 9288TIP3   OH252058   3.668   3.801   3.219 -0.4182 -0.3572 -0.2871
 9288TIP3    H152059   3.631   3.856   3.288 -0.5737 -1.5503  0.6075
 9288TIP3    H252060   3.615   3.821   3.141 -1.6390 -0.5293  0.4676
 9289TIP3   OH252061   2.899   1.340   3.481  0.0222  0.7981  0.5058
 9289TIP3    H152062   2.815   1.383   3.473 -0.0746  0.8464  1.6181
 9289TIP3    H252063   2.878   1.247   3.490  0.1421  0.6997 -0.2071
 9290TIP3   OH252064   4.651   5.011   2.768  0.3014 -0.0437  0.3891
 9290TIP3    H152065   4.653   4.916   2.766 -2.2339 -0.1498 -0.7018
 9290TIP3    H252066   4.730   5.038   2.722 -0.0085 -1.6785 -1.2281
 9291TIP3   OH252067   3.259   2.759   4.320 -0.4132 -0.3032 -0.4878
 9291TIP3    H152068   3.347   2.725   4.335 -0.3619  0.8896  2.7820
 9291TIP3    H252069   3.210   2.732   4.397 -1.8700  2.1024 -0.4827
 9292TIP3   OH252070   3.798   6.352   3.235 -0.2562  0.2585 -0.3017
 9292TIP3    H152071   3.838   6.439   3.240  0.4649 -0.0445 -0.7146
 9292TIP3    H252072   3.838   6.303   3.308 -0.5140  0.2079 -0.1918
 9293TIP3   OH252073   6.105   5.751   3.053 -0.2726 -0.3450 -0.1721
 9293TIP3    H152074   6.109   5.834   3.005  0.5996  0.1465  0.7044
 9293TIP3    H252075   6.197   5.723   3.057 -0.4952 -1.0303  0.0893
 9294TIP3   OH252076   6.380   5.848   3.635 -0.3470 -0.1632 -0.2924
 9294TIP3    H152077   6.356   5.760   3.605  2.8097 -1.3105  0.2040
 9294TIP3    H252078   6.332   5.858   3.718 -1.5905 -0.9258 -0.8804
 9295TIP3   OH252079   7.187   6.814   2.866 -0.1421  0.1708 -0.6417
 9295TIP3    H152080   7.234   6.821   2.949  0.4058  1.6246 -1.0410
 9295TIP3    H252081   7.101   6.854   2.883 -0.2276 -0.0152 -0.6339
 9296TIP3   OH252082   3.166   2.331   3.468 -0.3875  0.0254 -0.6247
 9296TIP3    H152083   3.261   2.328   3.481 -0.1420  0.8343 -1.9878
 9296TIP3    H252084   3.129   2.313   3.554  1.0120  0.7539  0.1550
 9297TIP3   OH252085   3.309   1.283   3.107 -0.1856 -0.0316 -0.9748
 9297TIP3    H152086   3.340   1.373   3.100 -0.2569  0.1283  0.4958
 9297TIP3    H252087   3.310   1.264   3.201  0.6017 -1.8456 -1.3056
 9298TIP3   OH252088   4.124   2.500   4.047 -0.0854  0.2082  0.6761
 9298TIP3    H152089   4.056   2.432   4.046  0.2499 -0.1970 -1.8698
 9298TIP3    H252090   4.204   2.453   4.021  0.1606  1.5034 -1.1030
 9299TIP3   OH252091   6.206   2.698   2.471  0.3081  0.2817 -0.3599
 9299TIP3    H152092   6.137   2.632   2.460  0.1492  0.7894 -3.1062
 9299TIP3    H252093   6.200   2.723   2.563 -1.7065 -1.2688  0.0119
 9300TIP3   OH252094   0.335   5.818   4.677  0.6824  0.1235  0.0421
 9300TIP3    H152095   0.346   5.826   4.772  1.0434  0.3127 -0.0131
 9300TIP3    H252096   0.248   5.854   4.659  0.3289 -0.5497  0.3840
 9301TIP3   OH252097   7.352   0.036   2.456  0.7994  0.1670 -0.0596
 9301TIP3    H152098   7.356   0.043   2.552  2.7405  2.1930 -0.2081
 9301TIP3    H252099   7.287   0.100   2.430 -0.0055 -0.6492 -0.1195
 9302TIP3   OH252100   1.192   5.215   3.493  0.3480  0.3671  0.3171
 9302TIP3    H152101   1.198   5.302   3.456  2.2902  0.2157  0.1748
 9302TIP3    H252102   1.104   5.185   3.472 -0.2066  2.1274  0.0376
 9303TIP3   OH252103   5.338   1.602   4.578  0.1983 -0.7680  0.4072
 9303TIP3    H152104   5.287   1.632   4.502 -0.7365 -2.9390  0.0997
 9303TIP3    H252105   5.423   1.645   4.568 -0.1913 -0.3243 -1.4102
 9304TIP3   OH252106   3.663   1.931   3.952  0.4380 -0.5009 -0.4459
 9304TIP3    H152107   3.640   1.942   3.859 -0.7181 -1.0974 -0.2536
 9304TIP3    H252108   3.688   1.839   3.959 -0.5204 -0.7368  0.0274
 9305TIP3   OH252109   3.701   5.256   2.080 -0.6240  0.0334  0.3021
 9305TIP3    H152110   3.739   5.175   2.114 -1.0623 -0.3318 -0.0605
 9305TIP3    H252111   3.694   5.313   2.156  0.2311 -0.0581  0.4505
 9306TIP3   OH252112   3.006   3.145   3.723 -0.2831 -0.1093 -0.1215
 9306TIP3    H152113   3.017   3.197   3.644 -0.4676 -0.1133 -0.1491
 9306TIP3    H252114   3.029   3.205   3.794 -0.0842 -0.1161 -0.1793
 9307TIP3   OH252115   3.218   6.316   3.362  0.1411 -0.4538 -0.3159
 9307TIP3    H152116   3.258   6.235   3.394  4.7175  1.4056 -0.5727
 9307TIP3    H252117   3.212   6.304   3.267  2.0703 -0.1566 -0.5251
 9308TIP3   OH252118   6.367   2.280   4.547  0.4489 -0.1341 -0.4503
 9308TIP3    H152119   6.397   2.301   4.458 -0.1182 -1.7070 -1.0498
 9308TIP3    H252120   6.273   2.297   4.545  0.1528 -1.6835 -0.6578
 9309TIP3   OH252121   4.997   0.332   2.001  0.4597 -0.1095 -0.5531
 9309TIP3    H152122   4.943   0.398   2.044 -3.3856  0.7806 -5.7229
 9309TIP3    H252123   5.074   0.381   1.971 -0.3148  1.0115 -0.7872
 9310TIP3   OH252124   4.647   0.182   3.835 -0.1282 -0.3391  0.0218
 9310TIP3    H152125   4.696   0.101   3.824  1.2222  0.5611 -0.9478
 9310TIP3    H252126   4.560   0.162   3.801  0.2704 -1.2917 -0.4803
 9311TIP3   OH252127   3.945   2.879   3.841  0.7286 -0.3701  0.0574
 9311TIP3    H152128   3.918   2.968   3.865  1.9358 -0.1659  0.7305
 9311TIP3    H252129   3.867   2.826   3.856  0.5885  0.2418  1.7285
 9312TIP3   OH252130   4.421   6.433   3.906  0.3910 -0.3554 -0.1150
 9312TIP3    H152131   4.482   6.452   3.834  0.3023 -0.1294 -0.1310
 9312TIP3    H252132   4.356   6.503   3.901  0.1668 -0.5582 -0.0554
 9313TIP3   OH252133   1.541   1.424   3.877 -0.5300 -0.0127 -0.1839
 9313TIP3    H152134   1.596   1.402   3.952  2.6541  1.8219 -1.7622
 9313TIP3    H252135   1.576   1.372   3.805 -2.3908 -0.4425 -0.8403
 9314TIP3   OH252136   0.202   2.019   3.903  0.1962 -0.1561  0.0635
 9314TIP3    H152137   0.225   2.015   3.810  1.4815 -0.0422  0.3592
 9314TIP3    H252138   0.211   1.929   3.934 -2.0598 -0.5808 -0.2901
 9315TIP3   OH252139   7.236   5.881   4.807  0.4574  1.0394  0.0229
 9315TIP3    H152140   7.279   5.966   4.815  1.1233  0.5905  1.7344
 9315TIP3    H252141   7.203   5.862   4.895  0.9586 -0.7778 -0.1347
 9316TIP3   OH252142   1.640   4.396   2.095 -0.3469 -0.3980 -0.0806
 9316TIP3    H152143   1.667   4.305   2.087  0.9974  0.0246 -0.6303
 9316TIP3    H252144   1.707   4.436   2.151 -0.4054  0.4406 -0.5923
 9317TIP3   OH252145   1.880   2.978   4.664 -0.1556 -0.2356  0.0611
 9317TIP3    H152146   1.838   3.046   4.611 -0.6808 -2.0948 -2.0756
 9317TIP3    H252147   1.973   2.998   4.659 -0.3371  0.6313 -0.0639
 9318TIP3   OH252148   4.473   2.725   4.938  0.3243  0.1613 -0.0509
 9318TIP3    H152149   4.537   2.730   5.009  1.1169 -0.4427 -0.7034
 9318TIP3    H252150   4.400   2.780   4.967  0.9307  0.4722  0.9179
 9319TIP3   OH252151   3.549   0.444   4.078 -0.3725 -0.1273 -0.2945
 9319TIP3    H152152   3.606   0.447   4.002 -0.4887 -0.4835 -0.3972
 9319TIP3    H252153   3.551   0.533   4.113  0.5714 -0.2322 -0.0550
 9320TIP3   OH252154   5.985   0.266   3.297  0.3693 -0.3021 -0.2396
 9320TIP3    H152155   5.894   0.238   3.288  0.1185  0.4480 -0.0312
 9320TIP3    H252156   6.015   0.278   3.206  0.5003 -1.2815 -0.3385
 9321TIP3   OH252157   3.551   2.949   2.078 -0.4131  0.2916 -0.9233
 9321TIP3    H152158   3.642   2.936   2.105 -0.7209 -1.2666 -0.5405
 9321TIP3    H252159   3.527   3.034   2.115 -0.0241 -0.6185  1.5706
 9322TIP3   OH252160   1.884   1.609   2.821  0.5081 -0.6367 -0.3117
 9322TIP3    H152161   1.867   1.554   2.745 -0.7797 -0.3944 -0.2169
 9322TIP3    H252162   1.891   1.698   2.785  1.1193 -0.6636 -0.2807
 9323TIP3   OH252163   4.055   2.879   3.577 -0.0894 -0.0500  0.0372
 9323TIP3    H152164   4.022   2.963   3.546 -1.8765 -1.1687 -1.2034
 9323TIP3    H252165   4.044   2.883   3.672  0.2317  1.2577  0.0374
 9324TIP3   OH252166   0.415   5.778   4.267  0.2578 -0.6571  0.6751
 9324TIP3    H152167   0.358   5.820   4.203  1.4488 -1.1950 -0.7974
 9324TIP3    H252168   0.355   5.750   4.337 -1.6042 -2.6386 -1.5198
 9325TIP3   OH252169   3.964   1.363   3.078 -0.4829 -0.0654  0.4889
 9325TIP3    H152170   4.026   1.304   3.122  0.2468  1.2236  1.2333
 9325TIP3    H252171   4.017   1.436   3.047 -1.3348  0.0831 -0.6934
 9326TIP3   OH252172   3.427   3.594   2.035  0.2646  0.5097  0.2089
 9326TIP3    H152173   3.420   3.689   2.045  0.6228  0.6222 -0.5235
 9326TIP3    H252174   3.346   3.569   1.991  0.5199  0.5919 -0.3168
 9327TIP3   OH252175   6.681   4.534   3.201 -0.2966  0.2504  0.1498
 9327TIP3    H152176   6.688   4.441   3.178  0.6960  0.8380 -2.2481
 9327TIP3    H252177   6.768   4.559   3.231 -0.5361  0.4565  0.7030
 9328TIP3   OH252178   2.694   7.135   2.130  0.2119 -0.3123 -0.2202
 9328TIP3    H152179   2.619   7.139   2.190 -0.6305 -0.5234 -1.2408
 9328TIP3    H252180   2.771   7.145   2.187 -0.5406 -1.0555  0.9624
 9329TIP3   OH252181   0.611   6.414   3.779  0.3525 -0.7857 -0.0312
 9329TIP3    H152182   0.568   6.498   3.761  0.7727 -0.5336  0.1312
 9329TIP3    H252183   0.556   6.372   3.845 -0.4095 -1.0827 -0.8362
 9330TIP3   OH252184   4.316   1.299   3.336 -0.3770  0.0721  0.3117
 9330TIP3    H152185   4.335   1.346   3.255 -0.0283 -1.5673 -0.5882
 9330TIP3    H252186   4.231   1.259   3.322 -0.0549 -0.7022  0.5116
 9331TIP3   OH252187   4.411   4.868   3.290  0.4353  0.1332 -0.4968
 9331TIP3    H152188   4.458   4.812   3.228 -0.5922 -1.1210 -0.1721
 9331TIP3    H252189   4.474   4.936   3.312  2.0866 -1.4288 -0.1483
 9332TIP3   OH252190   4.503   2.223   3.781 -0.6321 -0.7251 -0.0163
 9332TIP3    H152191   4.529   2.205   3.691  0.9899  0.3382  0.1982
 9332TIP3    H252192   4.583   2.255   3.823 -2.1876  2.4660  0.7986
 9333TIP3   OH252193   5.970   5.215   4.201 -0.0287  0.0626 -0.0056
 9333TIP3    H152194   5.902   5.148   4.211  1.1452 -1.2205 -0.2338
 9333TIP3    H252195   5.961   5.270   4.278 -2.0291  0.6173 -0.5765
 9334TIP3   OH252196   2.796   1.788   3.142 -0.6865  0.8719 -0.5702
 9334TIP3    H152197   2.721   1.837   3.110 -0.4406  1.1608 -0.7041
 9334TIP3    H252198   2.799   1.807   3.236 -1.2767  0.1966 -0.4030
 9335TIP3   OH252199   2.015   6.552   2.577  0.1366 -0.2142 -0.7312
 9335TIP3    H152200   2.107   6.566   2.554 -0.0439  0.5578 -0.9915
 9335TIP3    H252201   2.018   6.490   2.650  0.8127 -1.0312 -1.4323
 9336TIP3   OH252202   1.325   6.491   4.173 -0.4351  0.2984  0.2013
 9336TIP3    H152203   1.304   6.554   4.242  1.4765 -0.0757  1.2178
 9336TIP3    H252204   1.286   6.408   4.202  1.8653 -0.3032  1.8665
 9337TIP3   OH252205   6.952   2.635   4.158 -0.4759  0.2777  0.1617
 9337TIP3    H152206   6.889   2.683   4.212  0.4804  1.5251  0.2272
 9337TIP3    H252207   7.005   2.586   4.220 -1.6963 -1.2518  0.0725
 9338TIP3   OH252208   5.920   7.613   2.434 -0.2175  0.1013  0.0724
 9338TIP3    H152209   6.015   7.611   2.424  0.0220  0.6784  1.8009
 9338TIP3    H252210   5.886   7.569   2.356  1.4396  0.2643 -0.7805
 9339TIP3   OH252211   1.121   4.870   2.635  0.1690  0.2034  0.4433
 9339TIP3    H152212   1.071   4.805   2.585 -0.7656  0.1907  1.3607
 9339TIP3    H252213   1.127   4.833   2.723  0.2143  1.0565  0.8096
 9340TIP3   OH252214   1.200   0.258   4.429 -0.1648  0.0376 -0.6639
 9340TIP3    H152215   1.145   0.335   4.440  0.0199 -0.0970  1.4388
 9340TIP3    H252216   1.139   0.184   4.431 -0.0249 -0.0635  0.9117
 9341TIP3   OH252217   6.181   4.329   2.536  0.2596  0.2451 -0.3230
 9341TIP3    H152218   6.161   4.417   2.507  0.4688  1.2740  2.3684
 9341TIP3    H252219   6.240   4.341   2.611  0.4166 -2.1711  0.0261
 9342TIP3   OH252220   3.036   6.001   3.074  0.0446 -0.1228 -0.1436
 9342TIP3    H152221   3.055   5.944   3.000  2.5773  1.2738 -0.6813
 9342TIP3    H252222   2.941   6.015   3.071  0.2160  1.7755 -4.6538
 9343TIP3   OH252223   2.918   6.267   2.434 -0.1703  0.6294  0.1189
 9343TIP3    H152224   2.854   6.227   2.375 -0.6560  1.4873  0.0420
 9343TIP3    H252225   2.904   6.362   2.424  1.0597  0.8418  0.1533
 9344TIP3   OH252226   4.837   7.534   2.497 -0.1470  0.1081 -0.5448
 9344TIP3    H152227   4.824   7.446   2.533  0.3734 -0.0474 -0.7276
 9344TIP3    H252228   4.785   7.591   2.554  0.2341 -0.2083  0.1337
 9345TIP3   OH252229   6.077   6.032   2.432 -0.1584 -0.1194 -0.0200
 9345TIP3    H152230   6.170   6.054   2.420 -0.6287  1.5881 -0.8251
 9345TIP3    H252231   6.051   5.992   2.348 -0.2009 -0.4530  0.1494
 9346TIP3   OH252232   5.072   2.273   2.525 -0.3826  0.1051 -0.6878
 9346TIP3    H152233   5.051   2.327   2.449  0.0444 -2.7530 -3.0093
 9346TIP3    H252234   4.988   2.236   2.552 -0.4438  0.6430 -0.1164
 9347TIP3   OH252235   4.919   3.001   2.882 -0.2599 -0.3647  0.1730
 9347TIP3    H152236   4.935   2.914   2.844  1.4100  0.5860 -1.4314
 9347TIP3    H252237   4.979   3.006   2.956  0.3529 -0.2307 -0.3256
 9348TIP3   OH252238   2.707   5.039   3.527  0.0471  0.1261  0.4809
 9348TIP3    H152239   2.674   4.949   3.535 -0.3182  0.0851 -1.1888
 9348TIP3    H252240   2.653   5.089   3.589 -0.0359 -0.7212  1.1130
 9349TIP3   OH252241   7.302   6.202   4.439  0.2308  0.1640 -0.6111
 9349TIP3    H152242   7.346   6.194   4.524  0.9154  1.8417 -0.7709
 9349TIP3    H252243   7.336   6.129   4.388 -1.6149 -2.0586  1.0850
 9350TIP3   OH252244   3.582   7.227   2.760  0.2775 -0.2728 -0.4592
 9350TIP3    H152245   3.572   7.308   2.710  0.8841 -1.2084 -2.1860
 9350TIP3    H252246   3.645   7.248   2.829  0.0267  0.8481 -0.5619
 9351TIP3   OH252247   2.459   4.500   2.075 -0.6082 -0.3129  0.7486
 9351TIP3    H152248   2.475   4.474   1.984 -0.5852 -3.5848  1.5677
 9351TIP3    H252249   2.515   4.576   2.088  1.4534 -1.3589 -1.2318
 9352TIP3   OH252250   5.461   7.354   3.104  0.2785 -0.5128 -0.3067
 9352TIP3    H152251   5.549   7.386   3.125  0.0515  0.1313 -0.3253
 9352TIP3    H252252   5.461   7.343   3.009  0.3272 -0.4906 -0.3092
 9353TIP3   OH252253   0.857   1.280   3.763 -0.6376 -0.3051 -0.0703
 9353TIP3    H152254   0.776   1.231   3.753 -0.2395 -0.9846 -0.0082
 9353TIP3    H252255   0.908   1.229   3.826 -0.6364  0.7304  0.7902
 9354TIP3   OH252256   4.765   3.592   2.868 -0.0324  0.0781 -0.0110
 9354TIP3    H152257   4.843   3.626   2.912 -1.4988  0.7363  2.2841
 9354TIP3    H252258   4.736   3.520   2.923 -0.8843 -0.3650 -1.0064
 9355TIP3   OH252259   3.162   1.399   4.816 -0.0217  0.6366 -0.5070
 9355TIP3    H152260   3.120   1.332   4.870 -2.4716  0.5302 -2.3240
 9355TIP3    H252261   3.152   1.480   4.866 -1.1503  0.3535 -0.2463
 9356TIP3   OH252262   0.588   1.780   2.488 -0.7033  0.2893 -0.4463
 9356TIP3    H152263   0.559   1.780   2.579  0.1295 -0.4478 -0.1734
 9356TIP3    H252264   0.622   1.868   2.474 -0.2899  0.2270  0.1343
 9357TIP3   OH252265   0.407   7.584   3.865 -0.1110  0.1519  0.2830
 9357TIP3    H152266   0.346   7.580   3.791  1.4716  0.8328 -1.1190
 9357TIP3    H252267   0.408   7.676   3.891  2.5002  0.7972 -1.7099
 9358TIP3   OH252268   3.363   1.559   3.059  0.1461 -0.5083  0.0099
 9358TIP3    H152269   3.399   1.613   3.129  1.3135 -0.1344 -0.8438
 9358TIP3    H252270   3.342   1.620   2.989 -0.9921 -0.8793  0.0084
 9359TIP3   OH252271   3.379   1.033   3.639  0.0227 -0.1288  0.1349
 9359TIP3    H152272   3.390   1.127   3.655  0.5506 -0.5856  2.8759
 9359TIP3    H252273   3.397   1.023   3.545  2.9948  2.0977  0.2999
 9360TIP3   OH252274   5.282   1.542   4.852 -0.0030 -0.5623  0.2886
 9360TIP3    H152275   5.358   1.573   4.900  0.7216 -1.0997 -0.4769
 9360TIP3    H252276   5.282   1.593   4.771  0.4541 -1.6089 -0.3993
 9361TIP3   OH252277   7.329   6.113   4.879 -0.3634 -0.2861  0.2467
 9361TIP3    H152278   7.403   6.119   4.939  1.2043  1.0584 -1.6657
 9361TIP3    H252279   7.308   6.204   4.858 -0.2695 -0.6740 -1.8125
 9362TIP3   OH252280   5.647   2.021   2.116  0.1568  0.3887 -0.6617
 9362TIP3    H152281   5.567   2.055   2.075  0.1378 -0.1176 -1.0535
 9362TIP3    H252282   5.636   2.041   2.209 -0.9491 -0.6406 -0.5421
 9363TIP3   OH252283   5.037   6.851   5.228  0.1224 -0.4360 -0.0411
 9363TIP3    H152284   5.107   6.858   5.163 -0.4178 -2.5524 -0.9306
 9363TIP3    H252285   4.964   6.901   5.191 -0.2028 -1.6747 -1.1375
 9364TIP3   OH252286   5.352   3.662   4.555  0.0861 -0.2968  0.1256
 9364TIP3    H152287   5.425   3.602   4.572 -1.6486 -2.7500 -0.3781
 9364TIP3    H252288   5.317   3.682   4.642  0.4577 -0.3705  0.2915
 9365TIP3   OH252289   5.601   6.114   3.948 -0.3879  0.5248  0.2578
 9365TIP3    H152290   5.670   6.052   3.974 -0.6673  0.4848  0.9313
 9365TIP3    H252291   5.593   6.103   3.854  1.6897  1.7032 -0.1288
 9366TIP3   OH252292   4.824   2.775   3.215  0.7482 -0.0518 -0.2845
 9366TIP3    H152293   4.884   2.827   3.161  1.8665 -0.2048  0.7600
 9366TIP3    H252294   4.825   2.688   3.174  0.9508  0.0511 -0.5019
 9367TIP3   OH252295   6.828   3.631   3.088 -0.0204  0.0373  0.2194
 9367TIP3    H152296   6.769   3.705   3.098 -0.2284 -0.1834  0.6787
 9367TIP3    H252297   6.871   3.645   3.004  1.6744  1.8970  1.2903
 9368TIP3   OH252298   1.011   1.553   2.415 -0.1916 -0.0123  0.0410
 9368TIP3    H152299   0.929   1.557   2.367 -0.3951 -1.1538  0.2474
 9368TIP3    H252300   1.043   1.643   2.418 -0.9702  0.3015 -0.8398
 9369TIP3   OH252301   0.611   7.180   4.642  0.2711  0.3993 -0.2391
 9369TIP3    H152302   0.570   7.117   4.583 -1.4850  1.0583  0.2213
 9369TIP3    H252303   0.701   7.148   4.652 -0.5300 -2.0235 -0.0552
 9370TIP3   OH252304   2.376   2.733   3.448 -0.4019 -0.5633 -0.4162
 9370TIP3    H152305   2.389   2.767   3.360  0.3327 -0.6396 -0.3382
 9370TIP3    H252306   2.364   2.811   3.502 -1.4055 -0.5304 -0.6568
 9371TIP3   OH252307   6.111   7.469   4.981 -0.0356  0.0665 -0.4393
 9371TIP3    H152308   6.147   7.558   4.983  1.8066 -0.6576 -0.1258
 9371TIP3    H252309   6.043   7.470   5.049 -0.2087  1.2930 -0.6074
 9372TIP3   OH252310   4.471   2.820   4.383 -0.2854  0.1683 -0.0659
 9372TIP3    H152311   4.431   2.837   4.298  0.4301 -0.3285 -0.5197
 9372TIP3    H252312   4.456   2.900   4.434 -0.7320  0.4621 -0.6555
 9373TIP3   OH252313   0.298   4.548   3.373 -0.1735  0.0434  0.1377
 9373TIP3    H152314   0.317   4.553   3.280 -2.4254 -1.0640 -0.4733
 9373TIP3    H252315   0.382   4.529   3.414  0.9936  1.2106 -1.5606
 9374TIP3   OH252316   3.885   3.505   3.436  0.4832  0.2871  0.6816
 9374TIP3    H152317   3.968   3.482   3.393  0.8577 -1.2885  2.1287
 9374TIP3    H252318   3.897   3.595   3.465  1.1396  0.5510 -0.3369
 9375TIP3   OH252319   0.567   3.887   3.218  0.0361  0.4484 -0.2058
 9375TIP3    H152320   0.652   3.850   3.195  0.0537 -0.2035  0.8334
 9375TIP3    H252321   0.538   3.932   3.139  0.8191 -0.3035 -0.9455
 9376TIP3   OH252322   4.601   2.509   3.889 -0.1189  0.2596  0.8945
 9376TIP3    H152323   4.587   2.556   3.972 -0.0803 -0.9709  1.6236
 9376TIP3    H252324   4.539   2.549   3.828 -0.6067  0.7616  1.6996
 9377TIP3   OH252325   7.250   4.493   2.804 -0.2938 -0.3281  0.2209
 9377TIP3    H152326   7.342   4.518   2.798 -0.4058  0.2580  0.8050
 9377TIP3    H252327   7.216   4.544   2.877 -1.0380 -0.6867  0.1369
 9378TIP3   OH252328   2.857   4.417   4.202 -0.1052  0.2031  0.3883
 9378TIP3    H152329   2.891   4.402   4.115 -1.3087  1.0367 -0.2569
 9378TIP3    H252330   2.897   4.349   4.256 -1.5984 -2.2303 -1.3832
 9379TIP3   OH252331   0.464   0.645   3.759  0.7068 -0.2147  0.2927
 9379TIP3    H152332   0.537   0.584   3.764  0.1376 -0.9205  0.1401
 9379TIP3    H252333   0.395   0.597   3.713 -0.4280 -0.1468  1.8326
 9380TIP3   OH252334   4.082   3.292   4.376 -0.6928  0.1129 -0.0718
 9380TIP3    H152335   4.057   3.344   4.452  1.8285  0.1500  0.8287
 9380TIP3    H252336   4.096   3.204   4.412  1.4777  0.3472 -0.2275
 9381TIP3   OH252337   4.976   1.484   4.387 -0.6179  0.1269 -0.0053
 9381TIP3    H152338   4.999   1.463   4.296  1.6312  0.1335  0.5017
 9381TIP3    H252339   4.949   1.400   4.425  1.4566 -0.5557  0.1009
 9382TIP3   OH252340   5.334   4.902   3.458  0.5243  0.0229  0.0343
 9382TIP3    H152341   5.424   4.876   3.478  0.7332  0.1501 -0.7162
 9382TIP3    H252342   5.289   4.821   3.438 -0.2704 -0.4097  3.0615
 9383TIP3   OH252343   3.419   2.256   4.103 -0.2033  0.3527  0.2325
 9383TIP3    H152344   3.357   2.265   4.176 -0.7364  2.2701 -0.3819
 9383TIP3    H252345   3.365   2.238   4.027  0.2668 -0.6534  0.1211
 9384TIP3   OH252346   2.256   1.177   3.777 -0.0419  0.1422 -0.4152
 9384TIP3    H152347   2.219   1.254   3.733  0.4225  0.4075 -0.3459
 9384TIP3    H252348   2.275   1.116   3.706  2.5202  1.3147 -0.8579
 9385TIP3   OH252349   1.918   1.687   4.314  0.4077  0.2660 -0.1925
 9385TIP3    H152350   1.940   1.644   4.397 -0.6283 -0.0567 -0.0700
 9385TIP3    H252351   1.941   1.622   4.247  0.9258  0.3972 -0.1511
 9386TIP3   OH252352   2.406   2.886   4.019  0.1201  0.0647  0.2102
 9386TIP3    H152353   2.325   2.921   3.981  0.8498  0.4610 -1.0407
 9386TIP3    H252354   2.378   2.844   4.100 -1.1829  1.1595  0.3703
 9387TIP3   OH252355   5.197   5.303   4.076 -0.3821  0.6154  0.0838
 9387TIP3    H152356   5.226   5.249   4.149  0.0189  0.3179 -0.2969
 9387TIP3    H252357   5.209   5.249   3.998 -0.2920  1.1220 -0.2652
 9388TIP3   OH252358   0.252   5.308   3.475 -0.2724 -0.2191  0.5687
 9388TIP3    H152359   0.243   5.375   3.542  1.3305  1.3207 -0.6399
 9388TIP3    H252360   0.164   5.273   3.462 -1.2878  2.1136  0.8109
 9389TIP3   OH252361   4.156   5.286   3.136  0.1082  0.0736 -0.3649
 9389TIP3    H152362   4.152   5.199   3.097 -3.8452 -0.0238 -0.1239
 9389TIP3    H252363   4.075   5.328   3.109  0.7782  2.8143  1.4951
 9390TIP3   OH252364   0.251   0.821   3.152 -0.0007  0.4596  0.3096
 9390TIP3    H152365   0.164   0.785   3.168 -0.0990 -0.1541 -1.4127
 9390TIP3    H252366   0.298   0.808   3.235 -1.2998  0.0943  1.0113
 9391TIP3   OH252367   2.945   3.088   2.507  0.2655  0.1816  0.5251
 9391TIP3    H152368   2.979   3.137   2.432  2.1441 -2.1233 -0.2226
 9391TIP3    H252369   2.881   3.028   2.470 -0.4876  0.5995  1.1277
 9392TIP3   OH252370   7.090   5.614   2.595 -0.0785 -0.0266  0.3148
 9392TIP3    H152371   7.019   5.549   2.603  0.2961 -0.3212  1.3941
 9392TIP3    H252372   7.046   5.699   2.604 -0.5834 -0.0937 -1.1805
 9393TIP3   OH252373   6.933   3.805   2.892 -0.1314 -0.5476 -0.3591
 9393TIP3    H152374   7.004   3.786   2.830  1.1004 -0.6589  1.0145
 9393TIP3    H252375   6.854   3.804   2.839  1.0541  1.3743 -2.3182
 9394TIP3   OH252376   0.304   5.775   2.384  0.7602 -0.9451  0.8343
 9394TIP3    H152377   0.376   5.826   2.422 -0.4290  1.5367  0.0265
 9394TIP3    H252378   0.227   5.832   2.395 -0.4740 -2.1243 -1.1400
 9395TIP3   OH252379   5.580   0.934   3.152  0.4677  0.0801 -0.5824
 9395TIP3    H152380   5.617   1.021   3.169  0.1107  0.4523 -1.6348
 9395TIP3    H252381   5.656   0.879   3.133  0.5491  0.7929 -2.5309
 9396TIP3   OH252382   3.424   6.768   4.275  0.1450 -0.0493 -0.0075
 9396TIP3    H152383   3.348   6.804   4.229 -0.8078  0.6120  1.9566
 9396TIP3    H252384   3.391   6.749   4.363  2.2382  0.1382  0.8694
 9397TIP3   OH252385   1.862   0.527   4.693 -0.3013 -0.1663 -0.7426
 9397TIP3    H152386   1.860   0.539   4.788 -0.8855  1.1887 -0.8966
 9397TIP3    H252387   1.783   0.476   4.674  0.1056 -0.9085 -0.4503
 9398TIP3   OH252388   5.376   1.549   3.469  0.0398 -0.3770 -0.0414
 9398TIP3    H152389   5.406   1.509   3.551 -0.9232  1.0477  1.0466
 9398TIP3    H252390   5.453   1.548   3.412  0.9441 -0.6916  1.1548
 9399TIP3   OH252391   6.282   6.913   2.924 -0.7632  0.3216  0.0587
 9399TIP3    H152392   6.268   6.852   2.996  1.9351 -1.7331 -0.9822
 9399TIP3    H252393   6.195   6.925   2.886 -1.6572 -1.5913  1.3371
 9400TIP3   OH252394   0.057   5.617   3.830  0.0942 -0.4749  0.0375
 9400TIP3    H152395   0.090   5.646   3.915 -0.0723 -0.8164  0.2222
 9400TIP3    H252396   0.115   5.545   3.805 -2.4254 -3.3630  1.9326
 9401TIP3   OH252397   6.635   1.842   2.875  0.0637 -0.0538 -0.2237
 9401TIP3    H152398   6.666   1.932   2.882  0.0908  0.1035 -1.9524
 9401TIP3    H252399   6.700   1.790   2.922 -0.1898  0.8436  1.1803
 9402TIP3   OH252400   2.269   5.127   4.841 -0.6762 -0.4320 -0.3308
 9402TIP3    H152401   2.223   5.046   4.818  0.4241 -1.1200 -0.1877
 9402TIP3    H252402   2.361   5.104   4.836 -0.3408  0.9335 -0.6600
 9403TIP3   OH252403   6.078   1.393   4.719 -0.6180  0.5854  0.0996
 9403TIP3    H152404   6.105   1.371   4.630  1.3468  2.9490  0.0136
 9403TIP3    H252405   6.034   1.314   4.751 -2.1521 -0.0576 -3.2138
 9404TIP3   OH252406   2.326   3.523   4.946  0.1405 -0.5280  0.3907
 9404TIP3    H152407   2.316   3.481   4.861  0.8196 -0.9887  0.5329
 9404TIP3    H252408   2.238   3.521   4.984 -0.4146  0.6764 -0.7465
 9405TIP3   OH252409   1.809   1.170   4.379 -0.3230 -0.5122 -0.1455
 9405TIP3    H152410   1.860   1.177   4.298 -0.8467  3.2460 -0.3099
 9405TIP3    H252411   1.751   1.246   4.378 -0.5655 -0.4524  3.6611
 9406TIP3   OH252412   5.611   0.710   4.389  0.3537 -1.2662  0.3833
 9406TIP3    H152413   5.596   0.618   4.367 -0.8420 -1.1203  0.5152
 9406TIP3    H252414   5.582   0.717   4.480  0.7832 -0.8253  0.4884
 9407TIP3   OH252415   2.094   2.124   5.183  0.1153  0.2564 -0.3336
 9407TIP3    H152416   2.176   2.150   5.224  2.3919 -2.7457 -2.6000
 9407TIP3    H252417   2.079   2.035   5.214 -0.5933 -0.3745 -2.3663
 9408TIP3   OH252418   7.364   3.486   3.598 -0.2811 -0.2571  0.1879
 9408TIP3    H152419   7.416   3.512   3.521  0.8063 -2.1094  0.2622
 9408TIP3    H252420   7.285   3.446   3.561 -1.8303  2.6130  0.0745
 9409TIP3   OH252421   1.704   6.235   2.464 -0.1697 -0.1653  0.7938
 9409TIP3    H152422   1.790   6.238   2.421 -0.7250 -2.8080 -0.6973
 9409TIP3    H252423   1.674   6.326   2.462  2.6549  0.9191  1.6279
 9410TIP3   OH252424   5.329   7.464   3.869 -0.2461 -0.6450 -1.0277
 9410TIP3    H152425   5.424   7.465   3.872 -0.2259 -0.3814 -1.6412
 9410TIP3    H252426   5.302   7.462   3.961  0.3498 -1.5844 -0.8594
 9411TIP3   OH252427   1.205   2.270   3.570 -0.0009 -0.4676 -0.3757
 9411TIP3    H152428   1.167   2.218   3.641  0.2581  1.2566  1.0914
 9411TIP3    H252429   1.249   2.343   3.614  2.0541 -0.4914 -2.1801
 9412TIP3   OH252430   4.301   4.885   4.076 -0.2216  0.4289 -0.2152
 9412TIP3    H152431   4.341   4.972   4.074  0.0720  0.4189  2.1034
 9412TIP3    H252432   4.365   4.831   4.124 -0.9832 -0.7362 -0.4701
 9413TIP3   OH252433   6.671   0.308   4.115  0.3310 -0.7367  0.2163
 9413TIP3    H152434   6.688   0.248   4.187 -1.3628 -1.6021 -0.0452
 9413TIP3    H252435   6.680   0.255   4.036  0.0549 -0.3440 -0.0886
 9414TIP3   OH252436   4.966   6.271   3.369  0.0904  0.2627 -0.4129
 9414TIP3    H152437   4.907   6.344   3.346 -1.8542 -1.2090 -0.3641
 9414TIP3    H252438   4.965   6.269   3.465  1.1298  0.9076 -0.3765
 9415TIP3   OH252439   2.632   1.046   5.247  0.0335 -0.0338 -0.0186
 9415TIP3    H152440   2.538   1.048   5.265 -0.8571 -1.2636 -3.8100
 9415TIP3    H252441   2.646   1.118   5.186  1.0159 -1.4527 -1.5195
 9416TIP3   OH252442   6.986   7.265   4.756 -0.8212  0.2211  0.2688
 9416TIP3    H152443   6.899   7.303   4.769 -1.3957 -1.3959  1.6264
 9416TIP3    H252444   7.038   7.299   4.830 -0.6488  0.2233  0.1480
 9417TIP3   OH252445   1.467   2.527   3.438 -0.3567 -0.1722 -0.2966
 9417TIP3    H152446   1.475   2.454   3.377  0.2376  0.2937 -0.7892
 9417TIP3    H252447   1.553   2.570   3.436 -0.5685  0.3011  0.2937
 9418TIP3   OH252448   0.916   0.466   3.937  0.5048 -0.2565  0.9374
 9418TIP3    H152449   0.904   0.498   3.848  0.4326 -1.2910  0.5697
 9418TIP3    H252450   1.010   0.478   3.954  0.4411  0.3385  0.8875
 9419TIP3   OH252451   7.391   1.425   3.461  0.3060  0.1427  0.6007
 9419TIP3    H152452   7.400   1.343   3.509 -2.7965 -0.7723 -0.1546
 9419TIP3    H252453   7.338   1.481   3.517 -1.9123 -0.3151 -0.9015
 9420TIP3   OH252454   4.723   5.906   4.648  0.1200  0.0874  0.2844
 9420TIP3    H152455   4.643   5.927   4.695 -0.7387 -0.0112 -1.0735
 9420TIP3    H252456   4.769   5.843   4.704 -0.9439 -0.1528  0.9054
 9421TIP3   OH252457   1.880   6.712   3.428  0.3904  0.2038  0.1016
 9421TIP3    H152458   1.818   6.663   3.481  2.3168 -2.6975 -0.0690
 9421TIP3    H252459   1.892   6.659   3.349 -0.8653  3.3707 -2.4714
 9422TIP3   OH252460   2.532   3.438   2.889 -0.3823 -0.2293 -0.1245
 9422TIP3    H152461   2.443   3.451   2.922 -0.3759 -2.3116  0.9285
 9422TIP3    H252462   2.587   3.438   2.968  0.0606 -2.2238 -0.3838
 9423TIP3   OH252463   0.804   1.489   3.952 -0.6021 -0.1993 -0.0750
 9423TIP3    H152464   0.843   1.574   3.928 -1.7327  0.4709  0.3974
 9423TIP3    H252465   0.830   1.430   3.881  1.6961  0.0594  0.4459
 9424TIP3   OH252466   2.669   7.184   3.454  0.5750 -0.2043  0.1276
 9424TIP3    H152467   2.605   7.255   3.451 -1.6816 -2.1209 -0.8389
 9424TIP3    H252468   2.682   7.160   3.362  1.1140 -1.1624  0.4415
 9425TIP3   OH252469   3.324   7.095   4.104 -0.5539  0.9324  0.7121
 9425TIP3    H152470   3.293   7.007   4.123  0.3212  0.1130 -1.3417
 9425TIP3    H252471   3.270   7.152   4.158 -3.0786 -0.6619  0.0390
 9426TIP3   OH252472   4.370   2.536   4.772  0.1006  0.3439  0.0810
 9426TIP3    H152473   4.427   2.551   4.696  0.0530  1.2320  0.2204
 9426TIP3    H252474   4.391   2.607   4.832 -2.7530  2.0586 -0.7908
 9427TIP3   OH252475   1.887   3.317   2.665  0.0508 -0.2331  0.2768
 9427TIP3    H152476   1.955   3.280   2.608 -0.2528  1.9574 -1.6455
 9427TIP3    H252477   1.805   3.291   2.624 -0.1669  1.9850 -0.8466
 9428TIP3   OH252478   5.603   1.010   3.584  0.7562  0.7464  0.5321
 9428TIP3    H152479   5.686   0.994   3.539 -0.0192 -0.9182 -0.3888
 9428TIP3    H252480   5.536   1.001   3.516 -0.3064  0.1176  1.6140
 9429TIP3   OH252481   4.196   0.073   3.947 -0.6395  0.2886 -0.2377
 9429TIP3    H152482   4.148   0.021   4.011 -0.2403  1.7723  1.3521
 9429TIP3    H252483   4.181   0.164   3.974  0.0111  0.9385 -1.9335
 9430TIP3   OH252484   3.261   4.171   4.801 -0.2502  0.1006  0.0371
 9430TIP3    H152485   3.220   4.232   4.740  1.2590  1.3417  0.1874
 9430TIP3    H252486   3.196   4.157   4.869 -0.7402  1.3196 -0.1671
 9431TIP3   OH252487   7.500   3.548   2.920  0.8048 -0.0612  0.4409
 9431TIP3    H152488   7.547   3.615   2.969 -0.0164  2.0898 -1.4928
 9431TIP3    H252489   7.458   3.596   2.848 -1.9995 -2.2516  0.4110
 9432TIP3   OH252490   3.188   5.369   2.169 -0.3774  0.5132  0.6486
 9432TIP3    H152491   3.125   5.441   2.164 -0.7159  0.1462 -1.0305
 9432TIP3    H252492   3.265   5.401   2.121 -1.0918 -0.7485 -1.4322
 9433TIP3   OH252493   0.746   7.455   3.972 -0.6518  0.7333  0.0218
 9433TIP3    H152494   0.653   7.436   3.982 -0.2084 -0.6189  2.2256
 9433TIP3    H252495   0.773   7.493   4.056  0.7602  1.2433 -0.6200
 9434TIP3   OH252496   4.272   3.239   2.455  0.3642 -0.5134 -0.3934
 9434TIP3    H152497   4.235   3.157   2.489  0.0691  0.0177  0.5952
 9434TIP3    H252498   4.196   3.296   2.443  0.8085  0.6115  1.7168
 9435TIP3   OH252499   0.710   6.021   2.381 -0.7288 -0.1611  0.3734
 9435TIP3    H152500   0.780   6.052   2.324 -1.8277 -0.8264 -1.4096
 9435TIP3    H252501   0.755   5.970   2.448  0.6529  1.1636  0.5136
 9436TIP3   OH252502   0.433   6.108   2.877  0.4030  0.0546  0.1479
 9436TIP3    H152503   0.486   6.143   2.806  1.9984 -1.4408  0.5255
 9436TIP3    H252504   0.481   6.132   2.957  0.7483 -1.6253  0.4837
 9437TIP3   OH252505   1.628   5.776   3.632  0.2425 -0.0211  0.3062
 9437TIP3    H152506   1.699   5.721   3.598  0.2485 -0.1940  0.5954
 9437TIP3    H252507   1.673   5.847   3.678  0.2283 -0.3726  0.8723
 9438TIP3   OH252508   5.633   3.937   3.865  0.5938 -0.2665  0.1285
 9438TIP3    H152509   5.629   3.955   3.959  1.4384  0.5217  0.0370
 9438TIP3    H252510   5.680   3.853   3.859 -0.3804 -0.8440  0.4397
 9439TIP3   OH252511   2.167   4.556   4.146  0.2183  0.3598  0.2532
 9439TIP3    H152512   2.208   4.577   4.062  0.3486 -0.4310  0.1184
 9439TIP3    H252513   2.239   4.531   4.203  0.1434  1.0300  0.6499
 9440TIP3   OH252514   7.345   6.013   4.006 -0.4970  0.6700  0.0750
 9440TIP3    H152515   7.280   5.990   4.072  0.9669 -1.2368  0.9476
 9440TIP3    H252516   7.296   6.062   3.940 -3.0241 -1.4220  0.2432
 9441TIP3   OH252517   2.358   3.777   3.001  0.4672 -0.5913 -0.1907
 9441TIP3    H152518   2.445   3.781   3.043  0.3385 -0.5800  0.0769
 9441TIP3    H252519   2.304   3.836   3.054  0.5985  0.3574 -1.0739
 9442TIP3   OH252520   7.363   6.560   4.264 -0.0527 -0.0895  0.2014
 9442TIP3    H152521   7.332   6.643   4.227  0.8410  0.0580 -0.2371
 9442TIP3    H252522   7.285   6.522   4.305 -0.4264  1.0797  0.6322
 9443TIP3   OH252523   6.094   0.726   4.280 -0.5294 -0.3267  0.2301
 9443TIP3    H152524   6.183   0.760   4.296 -0.5900 -0.1580  0.2119
 9443TIP3    H252525   6.086   0.651   4.339 -0.7467  0.2901  0.9936
 9444TIP3   OH252526   3.331   7.252   4.480  0.0967  0.3639 -0.1263
 9444TIP3    H152527   3.425   7.238   4.491  0.0498  0.7556  0.8633
 9444TIP3    H252528   3.290   7.180   4.528 -0.1296 -0.9181 -2.1443
 9445TIP3   OH252529   5.205   3.313   3.714  0.5475 -0.2473  0.3616
 9445TIP3    H152530   5.126   3.307   3.661  1.0803  1.0391 -0.6383
 9445TIP3    H252531   5.251   3.231   3.698  0.7395  0.1595 -1.2735
 9446TIP3   OH252532   4.386   0.106   3.155 -0.2000  0.3650  0.3844
 9446TIP3    H152533   4.379   0.032   3.215 -0.5796  0.3159  0.2755
 9446TIP3    H252534   4.305   0.155   3.167  0.3118  1.1210  0.9305
 9447TIP3   OH252535   5.090   5.487   4.781 -0.0020  0.5035  0.3189
 9447TIP3    H152536   5.123   5.489   4.871  0.5667  0.1910  0.1247
 9447TIP3    H252537   5.016   5.426   4.784  2.0752 -2.2605 -0.0557
 9448TIP3   OH252538   4.074   6.923   3.648 -0.4590 -0.3347 -0.0740
 9448TIP3    H152539   4.120   6.848   3.686  0.1564 -1.3889 -2.7292
 9448TIP3    H252540   4.036   6.968   3.724 -1.7970 -3.8858  1.5978
 9449TIP3   OH252541   1.401   0.659   2.817 -0.0682  0.2974  0.0980
 9449TIP3    H152542   1.338   0.588   2.807 -1.0556  0.8580  1.8543
 9449TIP3    H252543   1.385   0.716   2.743 -2.0691  0.7097  0.7886
 9450TIP3   OH252544   2.599   0.217   4.385  0.2013 -0.0816  0.3248
 9450TIP3    H152545   2.562   0.222   4.473  1.0067 -0.7490  0.7208
 9450TIP3    H252546   2.537   0.164   4.335 -0.5710  0.8153  0.3041
 9451TIP3   OH252547   3.718   5.626   1.917  0.3042 -0.3357  0.7879
 9451TIP3    H152548   3.742   5.537   1.893  0.4884 -0.4072  1.2250
 9451TIP3    H252549   3.630   5.638   1.882  0.4199 -0.5625  0.4118
 9452TIP3   OH252550   0.646   4.006   4.639 -0.1343  0.4980 -0.0771
 9452TIP3    H152551   0.604   4.009   4.725  1.6368  1.2626  0.8268
 9452TIP3    H252552   0.673   4.096   4.622  1.7160 -0.0381 -0.2486
 9453TIP3   OH252553   6.789   1.852   3.455  0.3641  0.0982 -0.1761
 9453TIP3    H152554   6.706   1.863   3.502  1.2356  0.2515  1.3829
 9453TIP3    H252555   6.855   1.888   3.514  1.3216  2.2336 -2.3720
 9454TIP3   OH252556   1.205   1.711   3.927  0.0597  0.4296 -0.1887
 9454TIP3    H152557   1.248   1.786   3.888  0.0450  0.7743  0.4402
 9454TIP3    H252558   1.256   1.691   4.005  1.2999 -1.5125 -1.4002
 9455TIP3   OH252559   3.844   6.675   3.661 -0.1185  0.4027 -0.2521
 9455TIP3    H152560   3.794   6.732   3.719  0.1646  0.0366  0.3573
 9455TIP3    H252561   3.849   6.723   3.579  0.9300  1.6679  0.5312
 9456TIP3   OH252562   7.082   6.303   3.797 -0.1245  0.0166  0.3755
 9456TIP3    H152563   7.001   6.354   3.808  0.3740  0.8568  0.1859
 9456TIP3    H252564   7.067   6.225   3.851 -1.4938 -0.3676 -0.5008
 9457TIP3   OH252565   0.431   1.894   3.320 -0.3252 -0.1051  0.3964
 9457TIP3    H152566   0.461   1.875   3.409 -1.7785  2.3492  1.4851
 9457TIP3    H252567   0.399   1.809   3.288 -1.0008 -0.8033  2.7068
 9458TIP3   OH252568   2.963   4.840   2.693  0.3912 -0.5637 -0.8676
 9458TIP3    H152569   2.980   4.822   2.786 -2.7127 -0.9096 -0.2557
 9458TIP3    H252570   3.009   4.770   2.646 -2.9968 -4.3890  0.8627
 9459TIP3   OH252571   1.479   1.883   4.171  0.2172 -0.9551 -0.2945
 9459TIP3    H152572   1.571   1.857   4.166  0.8456  1.1526 -0.6973
 9459TIP3    H252573   1.432   1.814   4.123  1.4946 -2.3386  0.3642
 9460TIP3   OH252574   7.422   1.876   4.153  0.2699 -0.0427 -0.1357
 9460TIP3    H152575   7.493   1.928   4.190  0.0967 -0.6812  1.1350
 9460TIP3    H252576   7.408   1.913   4.065  1.0376  1.1708  0.2340
 9461TIP3   OH252577   2.079   6.094   2.206  0.8409  0.0562  0.6383
 9461TIP3    H152578   2.151   6.130   2.258  2.2434 -0.9559 -0.5018
 9461TIP3    H252579   2.017   6.166   2.197  0.5162  0.2660  3.6662
 9462TIP3   OH252580   5.570   5.038   3.229  0.4142 -0.1165  0.4535
 9462TIP3    H152581   5.481   5.049   3.196  0.1170 -1.6214  0.6574
 9462TIP3    H252582   5.558   5.000   3.316  1.2591 -0.0524  0.6035
 9463TIP3   OH252583   1.294   5.131   4.515 -0.4010  0.1088  0.4209
 9463TIP3    H152584   1.213   5.084   4.496  0.4523 -1.3242  0.1910
 9463TIP3    H252585   1.326   5.091   4.596 -0.0444  0.8221  0.6362
 9464TIP3   OH252586   7.529   7.450   4.118 -0.4827  0.0953 -0.3446
 9464TIP3    H152587   7.576   7.519   4.071  0.1815  0.2467  0.5080
 9464TIP3    H252588   7.493   7.493   4.195  0.5177 -0.6139  0.5591
 9465TIP3   OH252589   6.962   0.433   2.602 -0.2802  0.3596 -0.0080
 9465TIP3    H152590   7.023   0.431   2.676 -1.4247  0.3817  0.9812
 9465TIP3    H252591   6.887   0.382   2.632 -0.6214  0.0668 -1.3113
 9466TIP3   OH252592   5.515   1.645   3.828 -0.0177  0.6055  0.4282
 9466TIP3    H152593   5.528   1.550   3.835 -0.9225  0.3269 -1.2427
 9466TIP3    H252594   5.422   1.658   3.845  0.1763  1.2584  1.0305
 9467TIP3   OH252595   3.503   1.152   4.848 -0.1751 -0.0864 -0.4250
 9467TIP3    H152596   3.464   1.097   4.917 -0.0872 -0.2394 -0.4968
 9467TIP3    H252597   3.465   1.118   4.767  0.7812 -0.8256 -0.5806
 9468TIP3   OH252598   7.062   7.110   3.905 -0.1454 -0.0750 -0.4647
 9468TIP3    H152599   7.157   7.098   3.909  0.1980  1.6841 -2.1478
 9468TIP3    H252600   7.042   7.170   3.977  0.3777  1.2466 -1.3786
 9469TIP3   OH252601   0.045   1.985   3.442  0.2271  0.5336  0.2346
 9469TIP3    H152602   0.046   1.890   3.456 -0.0106  0.5662  0.4796
 9469TIP3    H252603  -0.039   2.003   3.401 -0.3132  0.8022  1.4121
 9470TIP3   OH252604   7.062   3.908   3.117  0.1392 -0.5036  0.3157
 9470TIP3    H152605   7.091   3.828   3.161  0.2622  0.6149  2.4109
 9470TIP3    H252606   7.019   3.878   3.037  1.3476 -2.5579  0.3852
 9471TIP3   OH252607   2.515   2.796   1.974  0.1252  0.1671 -0.2721
 9471TIP3    H152608   2.549   2.851   1.904  0.2069  0.6503  0.1371
 9471TIP3    H252609   2.466   2.856   2.031 -0.4983 -0.3311 -0.2687
 9472TIP3   OH252610   0.789   5.777   3.989  0.0668 -0.0257 -0.5563
 9472TIP3    H152611   0.813   5.748   4.077  1.9144  1.5731 -0.4694
 9472TIP3    H252612   0.854   5.738   3.931  1.4421  2.1917 -0.6465
 9473TIP3   OH252613   7.643   2.416   3.237  0.3354  0.7632  0.4108
 9473TIP3    H152614   7.727   2.462   3.232 -0.1207  1.5467 -0.3989
 9473TIP3    H252615   7.594   2.461   3.306  1.2598 -0.9194  2.2743
 9474TIP3   OH252616   1.926   1.497   2.564  0.4902 -0.4114 -0.1782
 9474TIP3    H152617   1.889   1.558   2.500  0.1636 -0.3314  0.0912
 9474TIP3    H252618   2.011   1.536   2.587  0.1472  0.1003  0.2281
 9475TIP3   OH252619   2.011   4.252   4.134  0.3920 -0.6331 -0.1811
 9475TIP3    H152620   1.969   4.258   4.048 -0.4589 -1.3828  0.1791
 9475TIP3    H252621   1.981   4.331   4.180  0.4360 -0.4933 -0.3897
 9476TIP3   OH252622   6.212   3.349   2.612 -0.0223 -0.9807 -0.5020
 9476TIP3    H152623   6.181   3.371   2.699 -1.1666  1.0654 -1.3706
 9476TIP3    H252624   6.158   3.274   2.586 -1.4882  0.0322 -0.4396
 9477TIP3   OH252625   6.303   0.422   2.392  0.0075  0.3979 -0.4219
 9477TIP3    H152626   6.310   0.406   2.298  0.1865  0.2951 -0.3913
 9477TIP3    H252627   6.380   0.380   2.429  0.1967  0.8727 -0.2804
 9478TIP3   OH252628   5.165   7.361   3.394  0.2748  0.0837 -0.1135
 9478TIP3    H152629   5.207   7.419   3.330  0.7432 -0.4946 -0.3372
 9478TIP3    H252630   5.118   7.297   3.341  1.2901 -0.8629  0.0954
 9479TIP3   OH252631   1.062   0.638   2.999  0.2913 -0.1043 -0.1874
 9479TIP3    H152632   0.977   0.651   2.957  2.0032  0.8318 -3.7514
 9479TIP3    H252633   1.089   0.726   3.026  0.8652 -0.0968 -0.7528
 9480TIP3   OH252634   1.521   6.495   3.226  0.1677  0.2567 -0.6074
 9480TIP3    H152635   1.553   6.574   3.270  0.1723 -0.3025  0.4036
 9480TIP3    H252636   1.434   6.481   3.262 -1.5185  1.9365 -3.5414
 9481TIP3   OH252637   3.260   7.425   2.868  0.7200 -0.3983  0.1674
 9481TIP3    H152638   3.323   7.496   2.884 -2.1277  2.6183 -0.9021
 9481TIP3    H252639   3.278   7.396   2.779  0.4253  0.6857 -0.2586
 9482TIP3   OH252640   1.968   0.264   2.404 -0.1846 -0.6070 -0.0453
 9482TIP3    H152641   1.892   0.257   2.346  0.1766  0.7106 -0.7172
 9482TIP3    H252642   2.042   0.234   2.351  0.3200  1.6066 -0.7125
 9483TIP3   OH252643   5.984   1.562   2.925  0.1538  0.3304 -0.2887
 9483TIP3    H152644   6.023   1.641   2.965  2.2763 -1.0187  0.5036
 9483TIP3    H252645   6.060   1.509   2.899 -1.1881 -1.8731  0.0570
 9484TIP3   OH252646   0.363   2.285   2.282  0.4796 -0.3632  0.3339
 9484TIP3    H152647   0.273   2.314   2.296  0.9179  0.2450  2.3071
 9484TIP3    H252648   0.365   2.195   2.314  0.3560 -0.7076 -0.6223
 9485TIP3   OH252649   4.487   3.448   2.229  0.8959 -0.1966 -1.1744
 9485TIP3    H152650   4.549   3.433   2.300  1.6260 -1.4427 -2.0494
 9485TIP3    H252651   4.448   3.534   2.249  2.2630  0.2139 -0.1508
 9486TIP3   OH252652   2.407   4.101   4.070  0.2595 -0.0973 -0.0427
 9486TIP3    H152653   2.478   4.162   4.091  1.1810 -1.5393  1.2174
 9486TIP3    H252654   2.448   4.033   4.017  0.3788 -1.9732  2.2656
 9487TIP3   OH252655   1.965   2.946   3.497  0.1622  0.2274 -0.5382
 9487TIP3    H152656   1.936   3.024   3.545  0.9097  0.1456  0.0724
 9487TIP3    H252657   1.957   2.970   3.405  1.3052  1.3971 -0.3691
 9488TIP3   OH252658   4.503   6.512   2.195  0.5244 -0.1999  0.2859
 9488TIP3    H152659   4.541   6.438   2.149  1.8860  0.8041 -0.2607
 9488TIP3    H252660   4.577   6.570   2.214 -0.6485  1.6877 -0.5394
 9489TIP3   OH252661   3.041   3.919   3.976 -0.7273 -0.3171  0.0799
 9489TIP3    H152662   2.956   3.892   3.942 -0.7144 -0.9739  0.5471
 9489TIP3    H252663   3.072   3.843   4.026 -0.1697  0.1607  0.4719
 9490TIP3   OH252664   3.450   0.604   2.583  0.3532 -0.0979 -0.3457
 9490TIP3    H152665   3.366   0.650   2.572  0.1546  0.4359  2.5541
 9490TIP3    H252666   3.439   0.523   2.534 -1.6311  0.2560 -0.5806
 9491TIP3   OH252667   3.808   2.381   3.121  0.1811  0.5256  0.3587
 9491TIP3    H152668   3.858   2.304   3.148 -0.3424 -0.0259 -0.2401
 9491TIP3    H252669   3.756   2.352   3.047 -2.2002  0.6529  1.8650
 9492TIP3   OH252670   2.448   0.486   4.425 -0.2485  0.2428  0.0003
 9492TIP3    H152671   2.489   0.419   4.370  0.7886  2.4807 -2.1786
 9492TIP3    H252672   2.489   0.474   4.511  0.3258 -1.5215 -0.4673
 9493TIP3   OH252673   6.045   0.677   3.184  0.2440  0.4691  0.0137
 9493TIP3    H152674   6.075   0.617   3.116 -2.5763 -0.4208 -0.5882
 9493TIP3    H252675   6.108   0.749   3.182  3.2024 -1.9011  0.0725
 9494TIP3   OH252676   4.642   4.674   2.455 -0.9119  0.1295  0.1338
 9494TIP3    H152677   4.619   4.582   2.442  2.6633 -1.4381  3.1323
 9494TIP3    H252678   4.718   4.689   2.399  0.2895  0.3204  1.7567
 9495TIP3   OH252679   7.158   5.237   2.567 -0.4426  0.2389  0.0462
 9495TIP3    H152680   7.187   5.166   2.509  1.7725 -0.2080  1.5928
 9495TIP3    H252681   7.077   5.203   2.606  0.0155 -1.0034 -0.0277
 9496TIP3   OH252682   6.019   5.907   5.040 -0.2932  0.2713  0.3078
 9496TIP3    H152683   5.978   5.829   5.002 -1.4823  1.0201  0.0152
 9496TIP3    H252684   6.085   5.872   5.100 -1.2926 -0.9871  0.7301
 9497TIP3   OH252685   7.563   0.310   3.405  0.0630  0.1105  0.3183
 9497TIP3    H152686   7.499   0.306   3.476 -1.7129 -1.4886 -1.2528
 9497TIP3    H252687   7.541   0.236   3.349  3.4122 -0.5849 -0.2796
 9498TIP3   OH252688   0.372   1.112   2.433  0.4845 -0.5942  0.2810
 9498TIP3    H152689   0.430   1.071   2.498 -1.5265  0.6352  3.0963
 9498TIP3    H252690   0.285   1.079   2.455 -0.4180  0.7713 -1.0636
 9499TIP3   OH252691   6.730   6.241   5.055 -0.2188  0.3831 -0.1148
 9499TIP3    H152692   6.757   6.325   5.092 -0.4061  0.1010  0.6696
 9499TIP3    H252693   6.812   6.192   5.044 -0.3158 -0.3941  2.0770
 9500TIP3   OH252694   6.727   0.906   3.403 -0.1601 -0.4309  0.3779
 9500TIP3    H152695   6.783   0.918   3.480 -0.7348 -0.5891  0.8250
 9500TIP3    H252696   6.776   0.948   3.332  1.3763 -2.1254  0.3628
 9501TIP3   OH252697   7.595   1.468   3.274  0.2855 -0.6198 -0.0448
 9501TIP3    H152698   7.535   1.442   3.344  1.7206  1.6329  2.2226
 9501TIP3    H252699   7.673   1.414   3.289  0.2843 -0.7289 -0.4371
 9502TIP3   OH252700   2.500   4.557   4.164  0.4315 -0.0245 -0.5522
 9502TIP3    H152701   2.592   4.580   4.169 -0.0591  1.9245  0.5190
 9502TIP3    H252702   2.469   4.561   4.255 -0.4369 -1.9892 -0.7057
 9503TIP3   OH252703   4.758   6.380   4.571 -0.3502 -0.0085  0.2265
 9503TIP3    H152704   4.733   6.319   4.640 -2.2459 -0.2979 -0.6568
 9503TIP3    H252705   4.853   6.384   4.575 -0.3523 -1.0833  1.9357
 9504TIP3   OH252706   3.352   0.049   4.254  0.4199 -0.5888 -0.2416
 9504TIP3    H152707   3.425   0.089   4.207  0.3239 -0.9322 -0.6849
 9504TIP3    H252708   3.287   0.031   4.186 -0.9876  1.6786  0.3905
 9505TIP3   OH252709   5.031   1.046   3.941  0.3617  0.2950 -0.3114
 9505TIP3    H152710   4.939   1.063   3.958 -0.0171 -2.1738  0.4580
 9505TIP3    H252711   5.032   0.969   3.884  1.9488  0.9372 -1.2345
 9506TIP3   OH252712   6.873   2.758   3.230  0.5227 -0.1979 -0.2626
 9506TIP3    H152713   6.789   2.784   3.268  0.6938 -0.4412  0.2881
 9506TIP3    H252714   6.865   2.663   3.218 -0.0119  0.0362 -2.0421
 9507TIP3   OH252715   4.634   2.851   4.738  0.0349  0.1594 -0.4464
 9507TIP3    H152716   4.606   2.764   4.712  2.6839 -0.7872 -0.4763
 9507TIP3    H252717   4.590   2.867   4.822 -0.4019 -1.2485 -0.3878
 9508TIP3   OH252718   0.831   6.136   3.877  0.2421 -0.1639 -0.1132
 9508TIP3    H152719   0.910   6.185   3.900 -0.5251  0.4868  1.2475
 9508TIP3    H252720   0.811   6.165   3.788  0.8783  0.5473 -0.0390
 9509TIP3   OH252721   0.944   1.428   4.516 -0.3404 -0.3133  0.2283
 9509TIP3    H152722   0.930   1.403   4.608 -0.4689 -0.7484  0.0914
 9509TIP3    H252723   0.984   1.515   4.521  0.4182 -0.6799  0.7168
 9510TIP3   OH252724   0.671   0.446   3.714  0.4200 -0.0361  0.2248
 9510TIP3    H152725   0.688   0.353   3.703  1.1620  0.0477  0.5877
 9510TIP3    H252726   0.754   0.488   3.693  0.2568  0.4992  0.6361
 9511TIP3   OH252727   5.988   4.137   2.528 -0.8183  0.2876  0.1828
 9511TIP3    H152728   6.058   4.202   2.534 -1.1310  0.9651 -2.3329
 9511TIP3    H252729   6.026   4.065   2.479 -1.1654 -0.4780  0.9957
 9512TIP3   OH252730   6.039   6.980   5.199  0.3558 -0.5122 -0.4206
 9512TIP3    H152731   6.061   7.063   5.158  0.5898 -0.4764 -0.2267
 9512TIP3    H252732   6.104   6.919   5.165  1.1289 -0.2863  0.5847
 9513TIP3   OH252733   2.332   2.550   3.040  0.3948  0.1241  0.1652
 9513TIP3    H152734   2.422   2.575   3.022  1.1070 -1.4866  1.2022
 9513TIP3    H252735   2.304   2.609   3.110  0.0364  1.7079 -1.2547
 9514TIP3   OH252736   6.641   2.979   4.646 -0.2733  0.2504 -0.2250
 9514TIP3    H152737   6.579   2.920   4.689 -0.0640 -0.4674 -0.8914
 9514TIP3    H252738   6.690   3.018   4.718  2.2620 -3.2809  0.2417
 9515TIP3   OH252739   0.219   2.137   4.674 -0.2129 -0.2257  0.5141
 9515TIP3    H152740   0.183   2.224   4.693  0.5200  0.6964 -1.9353
 9515TIP3    H252741   0.247   2.143   4.583 -0.0926 -3.0483  0.2998
 9516TIP3   OH252742   6.601   5.627   2.502  0.1934  0.0880 -0.1946
 9516TIP3    H152743   6.654   5.664   2.432 -0.0919  1.0175  0.0603
 9516TIP3    H252744   6.659   5.626   2.578  0.7523 -1.6522 -0.6030
 9517TIP3   OH252745   6.528   3.953   3.483  0.2461  0.3559  0.0206
 9517TIP3    H152746   6.511   4.044   3.508 -0.2162  0.1246  0.5679
 9517TIP3    H252747   6.618   3.937   3.513 -0.0129  0.3375  0.8012
 9518TIP3   OH252748   6.717   1.609   3.044  0.2344  0.5043 -0.2639
 9518TIP3    H152749   6.745   1.557   2.969  1.4579  0.9870 -0.1709
 9518TIP3    H252750   6.766   1.574   3.118 -0.2296  0.6604  0.1206
 9519TIP3   OH252751   0.570   5.218   4.302 -0.3729  0.2313 -0.3758
 9519TIP3    H152752   0.538   5.302   4.334  1.5666  0.7113  0.4714
 9519TIP3    H252753   0.525   5.153   4.357  0.3932  0.8911  1.1012
 9520TIP3   OH252754   7.447   2.859   3.049 -0.2915  0.1523  0.5141
 9520TIP3    H152755   7.353   2.849   3.060 -0.2132 -1.5847 -0.1331
 9520TIP3    H252756   7.484   2.779   3.086  0.7823 -0.0994 -1.0265
 9521TIP3   OH252757   1.181   2.310   2.835  0.0948 -0.3958  0.2060
 9521TIP3    H152758   1.130   2.229   2.834 -0.8090  0.1668 -0.1202
 9521TIP3    H252759   1.168   2.347   2.747 -1.5604  1.3627  1.1255
 9522TIP3   OH252760   4.650   6.007   2.673  0.7007  0.2475 -0.1146
 9522TIP3    H152761   4.663   5.934   2.613  0.3645  2.3659 -2.9720
 9522TIP3    H252762   4.557   6.004   2.695  0.5341  0.1896 -0.8022
 9523TIP3   OH252763   4.940   4.543   4.291 -0.2542  0.0183 -0.6712
 9523TIP3    H152764   4.855   4.526   4.251 -0.9536 -0.2157  0.8461
 9523TIP3    H252765   4.954   4.469   4.350  0.3858  0.6949  0.0498
 9524TIP3   OH252766   2.107   2.580   2.514 -0.2892 -0.0249 -0.3444
 9524TIP3    H152767   2.143   2.561   2.600 -1.5553  0.1408  0.2382
 9524TIP3    H252768   2.039   2.514   2.501  0.5543 -0.6837 -1.6616
 9525TIP3   OH252769   2.756   6.217   3.444 -0.8370  0.4755  0.5529
 9525TIP3    H152770   2.694   6.181   3.508 -1.2889 -1.2723 -0.8057
 9525TIP3    H252771   2.760   6.152   3.374  0.8469  1.5973 -0.4772
 9526TIP3   OH252772   1.291   0.522   3.595  0.2984  0.7816 -0.0053
 9526TIP3    H152773   1.386   0.510   3.590  0.0011 -1.4792 -2.2741
 9526TIP3    H252774   1.268   0.563   3.512 -0.9122 -0.7443 -0.4648
 9527TIP3   OH252775   0.199   0.530   2.550 -0.7362 -0.0272 -0.0829
 9527TIP3    H152776   0.163   0.486   2.627  0.1666 -1.3393 -0.3823
 9527TIP3    H252777   0.122   0.559   2.502 -1.3959 -1.4105  0.0742
 9528TIP3   OH252778   1.505   4.309   2.705 -0.6489  0.1042 -0.1638
 9528TIP3    H152779   1.503   4.221   2.667 -0.4258 -0.4406  1.0292
 9528TIP3    H252780   1.413   4.337   2.705 -0.9645 -0.8280  0.9516
 9529TIP3   OH252781   7.605   6.094   4.046 -0.6911 -0.3008 -0.1378
 9529TIP3    H152782   7.618   6.163   3.981 -1.0120 -0.0802  0.0225
 9529TIP3    H252783   7.518   6.060   4.027 -0.3779 -0.9338 -0.4586
 9530TIP3   OH252784   2.487   2.117   4.320  0.6044 -0.2238  0.0696
 9530TIP3    H152785   2.573   2.110   4.362  0.7103  1.7668  0.2831
 9530TIP3    H252786   2.501   2.086   4.231  1.6827  0.5598 -0.0527
 9531TIP3   OH252787   0.686   4.846   3.769  0.0628 -0.0987 -0.0330
 9531TIP3    H152788   0.648   4.856   3.681  0.5440 -3.0600 -0.6834
 9531TIP3    H252789   0.780   4.859   3.756  0.2544 -1.4905 -0.2020
 9532TIP3   OH252790   0.038   0.391   4.641 -0.2986  0.1141  0.3276
 9532TIP3    H152791   0.106   0.324   4.651  0.0175  0.7182  3.1741
 9532TIP3    H252792  -0.043   0.348   4.667 -0.3155  0.4469  0.8452
 9533TIP3   OH252793   1.939   3.471   2.405 -0.2550 -0.1545  0.5268
 9533TIP3    H152794   2.022   3.503   2.443  0.6337 -3.0204  1.2274
 9533TIP3    H252795   1.959   3.383   2.375 -3.5001 -1.6925  2.3755
 9534TIP3   OH252796   1.709   3.975   3.449  0.6404  0.0849  1.1090
 9534TIP3    H152797   1.710   4.052   3.505  1.7059  2.1449 -1.5221
 9534TIP3    H252798   1.713   4.010   3.360  3.3187 -2.9963 -0.1972
 9535TIP3   OH252799   1.919   0.665   3.236  0.1020  0.4149  0.5252
 9535TIP3    H152800   1.945   0.573   3.234  1.0292  0.6756  0.2163
 9535TIP3    H252801   1.938   0.697   3.148 -0.6578  0.7958  0.4902
 9536TIP3   OH252802   5.118   7.642   4.724 -0.3046 -0.2994  0.2931
 9536TIP3    H152803   5.182   7.668   4.790  0.9059 -1.1616 -0.4937
 9536TIP3    H252804   5.056   7.586   4.770  0.5422 -0.9121  0.6923
 9537TIP3   OH252805   7.339   6.290   3.487  0.1882 -0.0260  0.5551
 9537TIP3    H152806   7.390   6.361   3.525  1.8014 -0.4255 -0.7382
 9537TIP3    H252807   7.283   6.332   3.422  1.0001  0.1078 -0.0705
 9538TIP3   OH252808   2.359   4.225   3.678  0.6765 -0.4087  0.2575
 9538TIP3    H152809   2.349   4.130   3.688 -1.3029 -0.1425  1.3755
 9538TIP3    H252810   2.269   4.257   3.669  1.2481  1.4504  0.7594
 9539TIP3   OH252811   2.956   7.638   4.887 -0.5955 -0.3410  0.6636
 9539TIP3    H152812   2.904   7.571   4.843 -0.4535 -0.3231  0.4664
 9539TIP3    H252813   3.004   7.682   4.817 -1.0035  0.2472  0.7450
 9540TIP3   OH252814   1.894   0.402   2.820 -0.0997  0.6669  0.2846
 9540TIP3    H152815   1.913   0.443   2.736 -1.9266  1.4995  0.2355
 9540TIP3    H252816   1.802   0.422   2.837 -0.8748 -2.7137  0.6966
 9541TIP3   OH252817   4.175   1.789   2.598  0.6221  0.2409  0.1172
 9541TIP3    H152818   4.246   1.797   2.535  0.0791  1.7001 -0.3515
 9541TIP3    H252819   4.205   1.838   2.675 -0.1880  1.6551 -0.4171
 9542TIP3   OH252820   3.077   1.349   3.856 -0.3466 -0.0498 -0.3109
 9542TIP3    H152821   2.997   1.323   3.901 -0.1890  0.4722  0.2776
 9542TIP3    H252822   3.145   1.341   3.922  0.2505 -1.3463 -1.0423
 9543TIP3   OH252823   5.776   0.398   3.953 -0.2018 -0.2729  0.1583
 9543TIP3    H152824   5.829   0.403   3.874  1.1843  0.9899  1.0974
 9543TIP3    H252825   5.686   0.412   3.924  0.2822  0.1278 -1.1787
 9544TIP3   OH252826   7.432   5.062   2.424 -0.3881 -0.5522  0.3272
 9544TIP3    H152827   7.337   5.061   2.412 -0.3644 -0.9686  0.1544
 9544TIP3    H252828   7.466   5.012   2.350  0.0913  1.1329 -0.6475
 9545TIP3   OH252829   1.404   0.419   3.277  0.3711  0.1876 -0.0679
 9545TIP3    H152830   1.316   0.399   3.245  0.8120 -1.9118 -0.0705
 9545TIP3    H252831   1.428   0.500   3.232 -0.9351 -0.0800 -1.3047
 9546TIP3   OH252832   2.500   5.067   3.141 -0.0965 -0.5474 -0.5057
 9546TIP3    H152833   2.444   5.143   3.126 -0.7014 -0.8031  0.3670
 9546TIP3    H252834   2.477   5.037   3.229  0.8208 -1.1651 -0.4573
 9547TIP3   OH252835   6.614   7.019   3.128  0.8879  0.3967 -0.2299
 9547TIP3    H152836   6.597   7.099   3.177  1.4293  0.3408  0.0671
 9547TIP3    H252837   6.539   6.962   3.148 -0.6789  1.6396 -2.2813
 9548TIP3   OH252838   1.478   4.902   3.519  0.3038 -0.5752  0.3660
 9548TIP3    H152839   1.526   4.977   3.553 -0.3157 -0.1054  0.2171
 9548TIP3    H252840   1.422   4.938   3.450 -0.7965 -0.9741  1.0155
 9549TIP3   OH252841   6.439   0.922   3.466 -0.4956 -0.4545  0.6071
 9549TIP3    H152842   6.406   1.002   3.425 -0.8172  0.3948  2.4146
 9549TIP3    H252843   6.529   0.914   3.433 -0.2143  1.0656  0.9035
 9550TIP3   OH252844   3.882   1.439   2.366 -0.2594 -0.0143  0.1324
 9550TIP3    H152845   3.906   1.513   2.422 -2.6839 -0.1852  1.5370
 9550TIP3    H252846   3.807   1.471   2.316 -0.4562 -1.0917 -0.2796
 9551TIP3   OH252847   6.093   6.575   3.930  0.4640  0.2383  0.1978
 9551TIP3    H152848   6.086   6.480   3.921 -0.4399  0.4231 -1.4476
 9551TIP3    H252849   6.164   6.600   3.870 -0.5080  0.7533 -0.7776
 9552TIP3   OH252850   4.173   5.289   2.779 -0.1661  0.0645 -0.1446
 9552TIP3    H152851   4.256   5.311   2.822 -0.5229  2.7880 -0.6762
 9552TIP3    H252852   4.126   5.373   2.772 -2.4280 -1.1801 -1.0029
 9553TIP3   OH252853   4.580   7.116   4.527 -0.4880  0.1720  0.3385
 9553TIP3    H152854   4.540   7.051   4.584 -0.5141 -0.0589  0.0628
 9553TIP3    H252855   4.549   7.093   4.439 -0.6745  0.6897  0.2657
 9554TIP3   OH252856   7.602   5.149   2.640 -0.0682 -0.1201  0.0971
 9554TIP3    H152857   7.526   5.144   2.583 -0.0224  2.9932 -0.4114
 9554TIP3    H252858   7.605   5.064   2.684 -1.9316 -1.4780 -2.2040
 9555TIP3   OH252859   4.920   6.325   2.895  0.1956 -0.6651 -0.2224
 9555TIP3    H152860   4.934   6.247   2.840  0.5993 -1.6469  1.2004
 9555TIP3    H252861   4.838   6.362   2.864  1.2094 -0.2063 -2.5708
 9556TIP3   OH252862   6.077   2.335   4.523 -0.3769 -0.3362  0.0895
 9556TIP3    H152863   6.013   2.343   4.594 -0.8549 -0.3725 -0.3349
 9556TIP3    H252864   6.073   2.419   4.478 -1.3835 -0.9309 -0.9878
 9557TIP3   OH252865   6.384   6.345   4.935  0.2495 -0.1405  0.5454
 9557TIP3    H152866   6.431   6.427   4.949  0.9438 -0.5652  0.7690
 9557TIP3    H252867   6.293   6.364   4.960  0.6321  0.2444  1.7054
 9558TIP3   OH252868   6.493   7.126   3.552  0.4351 -0.2770 -0.6484
 9558TIP3    H152869   6.552   7.129   3.477  1.4212 -0.1406  0.1201
 9558TIP3    H252870   6.550   7.128   3.628 -0.5420 -0.6234  0.1161
 9559TIP3   OH252871   6.015   2.352   3.209  0.3737 -0.0691 -0.2697
 9559TIP3    H152872   5.933   2.309   3.185  0.6242 -1.9895  1.9536
 9559TIP3    H252873   6.017   2.349   3.304  2.5938  0.7651 -0.2284
 9560TIP3   OH252874   2.845   5.858   2.486  0.1186 -0.3198  0.1005
 9560TIP3    H152875   2.772   5.855   2.424  0.5765 -0.0063 -0.4763
 9560TIP3    H252876   2.804   5.860   2.572 -0.5806  0.7817 -0.2312
 9561TIP3   OH252877   0.994   1.477   3.604  0.0804 -0.5920  0.3909
 9561TIP3    H152878   0.940   1.457   3.527 -0.6856  0.0416  0.7615
 9561TIP3    H252879   0.971   1.408   3.667  0.2383 -0.7402  0.2876
 9562TIP3   OH252880   6.866   4.304   3.090  0.3833 -0.2516 -0.7689
 9562TIP3    H152881   6.833   4.250   3.019 -2.0777 -0.7797  0.6678
 9562TIP3    H252882   6.932   4.248   3.133  0.5737 -0.6216 -1.5165
 9563TIP3   OH252883   6.038   7.195   5.011 -0.0235  0.3981  0.4574
 9563TIP3    H152884   5.951   7.175   4.977  0.3281 -1.6945  0.6157
 9563TIP3    H252885   6.052   7.287   4.991 -1.9265  0.5514 -0.3321
 9564TIP3   OH252886   4.818   6.152   3.803 -0.7304 -0.2990  0.3861
 9564TIP3    H152887   4.806   6.247   3.804  0.6896 -0.0471 -1.2487
 9564TIP3    H252888   4.829   6.130   3.711  1.0019 -1.7530  0.8750
 9565TIP3   OH252889   7.466   5.341   3.720  0.3026  0.3486  0.0746
 9565TIP3    H152890   7.478   5.267   3.780 -1.0916  0.3818  0.4483
 9565TIP3    H252891   7.485   5.419   3.773  3.6850  0.2598 -0.8360
 9566TIP3   OH252892   1.486   6.465   2.715 -0.5742  0.6571  0.1648
 9566TIP3    H152893   1.425   6.474   2.642 -2.3779 -0.6299  1.4478
 9566TIP3    H252894   1.571   6.488   2.677 -1.7898  2.4475 -1.7011
 9567TIP3   OH252895   5.094   7.235   3.082 -0.5935 -0.1108 -0.2653
 9567TIP3    H152896   5.030   7.298   3.047 -0.6924 -0.2734 -0.3789
 9567TIP3    H252897   5.141   7.204   3.005 -0.0297  0.3918 -0.1241
 9568TIP3   OH252898   3.387   4.714   2.506  0.4491 -0.1826  0.8342
 9568TIP3    H152899   3.388   4.750   2.594 -0.1609  0.7623  0.4701
 9568TIP3    H252900   3.389   4.791   2.449  2.2741 -0.8014 -0.0013
 9569TIP3   OH252901   1.675   1.378   4.718  0.6534  0.1980  0.0739
 9569TIP3    H152902   1.674   1.309   4.651 -1.3941  0.5594 -0.3333
 9569TIP3    H252903   1.582   1.399   4.733  1.1705  2.2327  0.8369
 9570TIP3   OH252904   2.016   6.438   3.647 -0.3255  0.3379 -0.0653
 9570TIP3    H152905   2.040   6.347   3.629  0.0550  0.5028 -0.3914
 9570TIP3    H252906   1.923   6.434   3.670 -0.0902 -0.2573  0.8471
 9571TIP3   OH252907   3.772   5.580   5.053 -0.0168  0.5132 -0.6864
 9571TIP3    H152908   3.851   5.634   5.050 -1.7801  3.2838 -1.0505
 9571TIP3    H252909   3.756   5.557   4.961  0.1731  0.2619 -0.6563
 9572TIP3   OH252910   0.112   0.326   3.868  0.5761  0.0928  0.3582
 9572TIP3    H152911   0.128   0.273   3.946 -2.4251 -2.2040 -0.3889
 9572TIP3    H252912   0.169   0.288   3.801 -0.6970 -1.5350  0.1376
 9573TIP3   OH252913   2.095   3.799   2.504  0.5174  0.6997 -0.0671
 9573TIP3    H152914   2.033   3.841   2.563  1.1157  0.5039  0.7254
 9573TIP3    H252915   2.123   3.720   2.550  0.9080  0.4803 -0.6639
 9574TIP3   OH252916   3.213   1.927   2.270 -0.5090 -0.2009  0.0865
 9574TIP3    H152917   3.283   1.991   2.258 -1.0909  0.0978 -2.3370
 9574TIP3    H252918   3.155   1.940   2.195 -1.4072 -2.6396  0.2450
 9575TIP3   OH252919   3.580   2.378   2.913  0.3248 -0.2930  0.5022
 9575TIP3    H152920   3.609   2.327   2.837  2.5771 -0.3782  1.3271
 9575TIP3    H252921   3.542   2.313   2.972 -0.8123 -0.3246 -0.2304
 9576TIP3   OH252922   2.861   7.496   2.327  0.6525  0.6279 -0.4708
 9576TIP3    H152923   2.891   7.575   2.372 -0.0600  0.7565 -0.2082
 9576TIP3    H252924   2.791   7.462   2.383  0.4319  0.2389 -0.9799
 9577TIP3   OH252925   3.537   1.898   2.587 -0.3477  0.4185  0.0255
 9577TIP3    H152926   3.565   1.843   2.660 -1.1918  0.2916  0.2737
 9577TIP3    H252927   3.609   1.959   2.573 -0.3725  0.7733  1.3005
 9578TIP3   OH252928   4.893   2.524   3.858  0.3205 -0.0144 -0.2593
 9578TIP3    H152929   4.922   2.598   3.911  1.7670 -1.1069  0.5468
 9578TIP3    H252930   4.798   2.521   3.871  0.4686  0.5964  1.1480
 9579TIP3   OH252931   1.778   5.992   4.700  0.7444  0.9268  0.1574
 9579TIP3    H152932   1.703   6.026   4.748 -0.7809 -0.6809 -0.9457
 9579TIP3    H252933   1.820   5.932   4.762 -0.9183 -0.7561 -0.2532
 9580TIP3   OH252934   3.967   2.122   3.166  0.1123  0.4605 -0.4517
 9580TIP3    H152935   3.958   2.040   3.213  1.2120  1.0342  0.8285
 9580TIP3    H252936   4.058   2.148   3.180  0.0190  1.4742 -1.5469
 9581TIP3   OH252937   3.283   3.896   4.314 -0.1075  0.2331 -0.1128
 9581TIP3    H152938   3.197   3.889   4.354 -0.3953  0.5843 -0.6426
 9581TIP3    H252939   3.339   3.933   4.382 -0.5642  0.7373 -0.0058
 9582TIP3   OH252940   3.556   6.944   3.029  0.0214  0.3727 -0.1624
 9582TIP3    H152941   3.583   6.934   2.937  0.8449  0.4976  0.0596
 9582TIP3    H252942   3.486   6.880   3.040  1.4512 -1.2758 -0.2718
 9583TIP3   OH252943   6.369   6.206   2.837  0.0415  0.0008  0.1323
 9583TIP3    H152944   6.388   6.257   2.916  2.2642 -2.3570  1.2989
 9583TIP3    H252945   6.291   6.155   2.860 -0.0314  0.2181  0.3650
 9584TIP3   OH252946   5.044   6.379   3.869  0.6600 -0.2594 -0.5207
 9584TIP3    H152947   5.052   6.444   3.798 -0.6498 -0.5161 -0.9292
 9584TIP3    H252948   4.958   6.396   3.907  0.7740 -1.0472  0.1048
 9585TIP3   OH252949   5.765   3.103   3.323  0.5734  0.2174 -0.0110
 9585TIP3    H152950   5.825   3.163   3.367 -0.1183  1.1179 -0.2354
 9585TIP3    H252951   5.774   3.124   3.230  2.1488 -1.7865 -0.3670
 9586TIP3   OH252952   3.766   1.958   2.719  0.2702  0.3179 -0.3725
 9586TIP3    H152953   3.829   1.940   2.648  1.1841 -0.3902  0.5913
 9586TIP3    H252954   3.776   1.885   2.779 -1.7852 -0.0127 -0.3589
 9587TIP3   OH252955   0.705   0.202   3.356 -0.1375  0.3488 -0.2421
 9587TIP3    H152956   0.678   0.136   3.419 -1.4858 -0.3019 -1.4479
 9587TIP3    H252957   0.742   0.153   3.283  0.8183  1.0581 -0.2630
 9588TIP3   OH252958   5.248   4.716   3.117 -0.0683  0.5264  0.3925
 9588TIP3    H152959   5.312   4.650   3.091 -1.0621 -0.7029  0.9453
 9588TIP3    H252960   5.167   4.688   3.075 -0.5494  1.3051  0.7819
 9589TIP3   OH252961   1.877   5.159   3.089  0.0591 -0.1786  0.3135
 9589TIP3    H152962   1.854   5.189   3.176  0.3181 -0.0796  0.3500
 9589TIP3    H252963   1.813   5.200   3.030  2.0513  2.7849  0.0004
 9590TIP3   OH252964   3.227   1.972   2.536  0.4191  0.6079 -0.3239
 9590TIP3    H152965   3.234   1.938   2.447 -1.1020 -3.1664  0.7821
 9590TIP3    H252966   3.305   1.939   2.580  0.3325  1.0043  0.1314
 9591TIP3   OH252967   2.968   6.032   3.760 -0.0892 -0.2868  0.2234
 9591TIP3    H152968   2.878   6.057   3.737 -0.4897 -0.0372  1.9620
 9591TIP3    H252969   3.011   6.115   3.783  0.6519 -0.3882 -0.7141
 9592TIP3   OH252970   5.706   0.127   4.340  0.6743 -0.0346 -0.1115
 9592TIP3    H152971   5.629   0.142   4.394  0.5631  0.7251 -0.4603
 9592TIP3    H252972   5.772   0.187   4.375  1.8499 -2.1453  1.5598
 9593TIP3   OH252973   5.097   0.451   3.448 -0.5220  0.0633  0.1869
 9593TIP3    H152974   5.187   0.473   3.425 -0.3039  0.5662  1.4070
 9593TIP3    H252975   5.044   0.514   3.399 -0.1518  0.3607  0.1591
 9594TIP3   OH252976   5.695   5.416   3.047  0.0949  0.3978 -0.4978
 9594TIP3    H152977   5.688   5.503   3.085 -1.4878  0.1910 -0.2338
 9594TIP3    H252978   5.685   5.356   3.121  0.1179  0.0019 -0.8104
 9595TIP3   OH252979   1.460   5.911   3.409  0.3488  0.0568 -0.2936
 9595TIP3    H152980   1.485   5.865   3.329  3.6568  3.8423 -1.7907
 9595TIP3    H252981   1.510   5.867   3.478  0.2918 -1.0201 -0.9051
 9596TIP3   OH252982   7.293   2.849   2.817  0.2198  1.1412 -0.4071
 9596TIP3    H152983   7.353   2.784   2.854  1.2588  0.3328 -3.2535
 9596TIP3    H252984   7.331   2.933   2.839  0.2791  0.7442  1.0905
 9597TIP3   OH252985   0.527   7.218   2.914 -0.3191  0.4939  0.7248
 9597TIP3    H152986   0.506   7.307   2.884  2.1567  0.6038 -0.9193
 9597TIP3    H252987   0.500   7.162   2.841  0.3089  0.1547  0.7483
 9598TIP3   OH252988   4.341   2.611   3.445 -0.2571  0.6364  0.2163
 9598TIP3    H152989   4.433   2.636   3.448 -0.7226  2.3999  0.7388
 9598TIP3    H252990   4.337   2.530   3.496  0.7556  1.4484  1.6579
 9599TIP3   OH252991   2.744   5.424   2.180  0.0635 -0.3696 -0.2866
 9599TIP3    H152992   2.709   5.395   2.264 -0.2587 -0.6242 -0.5029
 9599TIP3    H252993   2.694   5.374   2.115  0.7480 -0.6541 -0.6060
 9600TIP3   OH252994   7.045   5.418   3.881 -0.4409  0.0688  0.0165
 9600TIP3    H152995   7.072   5.434   3.791  1.2983  0.4478  0.5766
 9600TIP3    H252996   6.996   5.497   3.905 -0.6452  0.0980 -0.4723
 9601TIP3   OH252997   1.761   6.882   4.324 -0.4954 -0.5397  0.4203
 9601TIP3    H152998   1.775   6.887   4.229 -0.3224  1.1319  0.5138
 9601TIP3    H252999   1.668   6.859   4.332 -0.2901 -1.6349 -0.1448
 9602TIP3   OH253000   1.261   6.385   2.394  0.1015  0.4018 -0.2338
 9602TIP3    H153001   1.291   6.457   2.338 -0.8282 -1.0213 -2.7202
 9602TIP3    H253002   1.330   6.319   2.386 -1.2949 -0.9291 -2.0582
 9603TIP3   OH253003   1.167   6.232   5.165 -0.1171  0.1027  0.2684
 9603TIP3    H153004   1.188   6.231   5.072 -0.6299 -0.0055  0.1481
 9603TIP3    H253005   1.071   6.240   5.168 -0.0295  1.1645  0.7936
 9604TIP3   OH253006   3.228   3.544   3.634 -0.1386  0.1352 -0.3040
 9604TIP3    H153007   3.275   3.465   3.606  1.0490  0.3745  0.9201
 9604TIP3    H253008   3.200   3.585   3.552  0.7280 -0.6610 -1.0261
 9605TIP3   OH253009   3.697   3.271   4.322 -0.1004  0.1361 -0.0478
 9605TIP3    H153010   3.704   3.210   4.248  0.3020  0.1422 -0.0167
 9605TIP3    H253011   3.776   3.255   4.374  0.1253  0.8459 -0.1602
 9606TIP3   OH253012   1.194   6.870   4.773  0.7353 -0.3115 -0.2761
 9606TIP3    H153013   1.230   6.836   4.855  1.1143  0.2551 -0.1947
 9606TIP3    H253014   1.178   6.963   4.792 -0.7897 -0.5524 -0.3114
 9607TIP3   OH253015   0.834   6.566   3.788 -0.3384 -1.0480  0.0398
 9607TIP3    H153016   0.757   6.510   3.802 -1.7107  0.7271 -0.0782
 9607TIP3    H253017   0.860   6.549   3.697 -1.8625 -0.1936 -0.5863
 9608TIP3   OH253018   1.809   3.417   4.145  0.4911  0.4597  0.2937
 9608TIP3    H153019   1.827   3.340   4.199 -2.0453 -1.6513 -1.6123
 9608TIP3    H253020   1.886   3.427   4.090  0.5560 -1.2441  0.0407
 9609TIP3   OH253021   1.820   4.565   4.149  0.1276  0.5875 -0.5539
 9609TIP3    H153022   1.854   4.612   4.225 -1.6750  1.6944 -0.3766
 9609TIP3    H253023   1.795   4.479   4.183 -0.5683  1.0376  0.1098
 9610TIP3   OH253024   7.372   0.365   3.959 -0.0798  0.1524 -0.3295
 9610TIP3    H153025   7.413   0.449   3.980  3.0196 -1.1464 -0.6185
 9610TIP3    H253026   7.381   0.357   3.864 -0.0809 -0.6387 -0.2688
 9611TIP3   OH253027   4.515   4.213   4.691  0.1885  0.1407  0.4460
 9611TIP3    H153028   4.435   4.184   4.734  1.2039 -1.6895  1.1830
 9611TIP3    H253029   4.509   4.179   4.602  0.2846 -0.2578  0.5926
 9612TIP3   OH253030   1.596   4.132   1.976  0.1752  0.1121 -0.1453
 9612TIP3    H153031   1.515   4.151   1.930 -1.3388  1.4926  2.8639
 9612TIP3    H253032   1.604   4.036   1.971 -1.8563 -0.0968 -0.1654
 9613TIP3   OH253033   0.041   3.579   3.237  0.2089  0.7056  0.1404
 9613TIP3    H153034   0.103   3.583   3.164  0.6504  0.2107  0.4911
 9613TIP3    H253035   0.093   3.594   3.315  0.0224 -0.4359  0.5041
 9614TIP3   OH253036   0.398   6.936   3.639  0.3767 -0.3703  0.0493
 9614TIP3    H153037   0.372   6.935   3.546 -0.3054 -0.0118  0.2281
 9614TIP3    H253038   0.325   6.978   3.683  1.2461  0.5985  0.5970
 9615TIP3   OH253039   0.586   5.828   3.777  0.0368  0.4066  0.2958
 9615TIP3    H153040   0.591   5.923   3.786  0.1814  0.2791  1.8932
 9615TIP3    H253041   0.661   5.795   3.828 -0.3862 -0.5814  0.3039
 9616TIP3   OH253042   0.662   6.989   3.061  0.6398  0.0029  0.2160
 9616TIP3    H153043   0.631   7.067   3.014 -0.1412 -0.7678 -0.5834
 9616TIP3    H253044   0.756   7.003   3.070  0.6718  0.5826 -0.8221
 9617TIP3   OH253045   5.534   3.974   2.818 -0.0616  0.0638 -0.5744
 9617TIP3    H153046   5.623   3.995   2.846  0.1179 -1.4202  0.0689
 9617TIP3    H253047   5.544   3.944   2.728  0.2533 -1.0020 -0.2046
 9618TIP3   OH253048   0.651   3.020   3.226 -0.7071 -0.9757  0.4998
 9618TIP3    H153049   0.607   3.020   3.141  0.2483 -2.4343 -0.0504
 9618TIP3    H253050   0.614   3.094   3.273 -0.0742  0.9170 -1.7930
 9619TIP3   OH253051   5.369   3.683   3.176 -0.3572 -0.2830 -0.0742
 9619TIP3    H153052   5.423   3.712   3.249 -1.0786 -0.4217  0.5231
 9619TIP3    H253053   5.422   3.701   3.098 -0.1999  1.2783  0.3630
 9620TIP3   OH253054   3.669   6.735   4.172 -0.1055 -0.2443 -0.4849
 9620TIP3    H153055   3.590   6.731   4.225 -0.6659 -0.4377 -1.3182
 9620TIP3    H253056   3.709   6.819   4.196  0.0136 -0.6229  0.7258
 9621TIP3   OH253057   3.096   3.676   2.723 -0.3972  0.2614 -0.0849
 9621TIP3    H153058   3.181   3.689   2.763 -0.4326  0.2871 -0.0187
 9621TIP3    H253059   3.045   3.753   2.748  0.1196  1.1482 -1.5987
 9622TIP3   OH253060   2.928   0.358   2.778 -0.0774 -0.2526 -0.1608
 9622TIP3    H153061   2.879   0.315   2.707  0.8120  0.2447 -1.1107
 9622TIP3    H253062   3.001   0.298   2.796  0.2152  0.0503 -0.3213
 9623TIP3   OH253063   3.763   1.106   5.053 -0.3255 -0.0785 -0.2804
 9623TIP3    H153064   3.677   1.072   5.077 -0.2926 -0.1681 -0.2894
 9623TIP3    H253065   3.744   1.185   5.002 -0.4273 -0.6611 -1.1662
 9624TIP3   OH253066   2.593   5.850   3.745 -0.2518 -0.1608 -0.1647
 9624TIP3    H153067   2.530   5.778   3.749 -1.1377  0.6211  0.4757
 9624TIP3    H253068   2.631   5.853   3.833 -0.4297  0.3272 -0.1020
 9625TIP3   OH253069   0.249   5.041   4.237 -0.0836 -0.2062  0.2507
 9625TIP3    H153070   0.237   5.072   4.147 -0.5526 -0.5462  0.1927
 9625TIP3    H253071   0.258   5.122   4.288  0.1933 -0.0115 -0.0976
 9626TIP3   OH253072   6.603   5.198   2.224 -0.0016  0.0432 -0.4091
 9626TIP3    H153073   6.647   5.250   2.291  0.2315 -2.6212  1.6429
 9626TIP3    H253074   6.662   5.124   2.208 -0.3316  0.2478 -3.1888
 9627TIP3   OH253075   7.629   7.242   4.342 -0.1490  0.1098  0.1784
 9627TIP3    H153076   7.571   7.276   4.411  1.0883  2.7154  0.0314
 9627TIP3    H253077   7.609   7.295   4.265 -0.6776 -1.9854 -1.2260
 9628TIP3   OH253078   1.625   0.487   2.810 -1.0001 -0.3592  0.1547
 9628TIP3    H153079   1.548   0.540   2.830 -0.9159 -0.1438 -0.0878
 9628TIP3    H253080   1.605   0.401   2.846 -1.4321 -0.3568 -0.0789
 9629TIP3   OH253081   3.738   7.118   3.935 -0.5772  0.1910 -0.0068
 9629TIP3    H153082   3.815   7.166   3.905 -0.8820  0.0351 -1.1026
 9629TIP3    H253083   3.664   7.168   3.902 -0.9092 -0.5695 -0.4672
 9630TIP3   OH253084   4.385   6.330   2.485  0.0978  0.0035 -0.0149
 9630TIP3    H153085   4.418   6.408   2.441  0.5042  0.1749  0.5815
 9630TIP3    H253086   4.296   6.318   2.450 -0.8843  2.0747  1.5714
 9631TIP3   OH253087   3.387   0.803   1.976 -0.0416 -0.2120  0.3571
 9631TIP3    H153088   3.321   0.845   1.921 -0.7804  0.7318  1.8861
 9631TIP3    H253089   3.448   0.874   1.999  1.2335 -0.9529 -0.5838
 9632TIP3   OH253090   5.574   6.257   4.190 -0.1766 -0.0272 -0.4024
 9632TIP3    H153091   5.534   6.307   4.261  1.4700  0.9144 -0.0815
 9632TIP3    H253092   5.532   6.291   4.111 -0.0622  0.9077 -0.0785
 9633TIP3   OH253093   6.653   0.167   3.015  0.2186 -0.0092  0.2928
 9633TIP3    H153094   6.634   0.163   2.921  0.0104  1.2840  0.2587
 9633TIP3    H253095   6.592   0.104   3.054 -0.3672  0.1383 -0.3532
 9634TIP3   OH253096   0.173   2.230   2.963 -0.0675 -0.1227 -0.7133
 9634TIP3    H153097   0.173   2.213   3.058  1.5085  3.1144  0.0033
 9634TIP3    H253098   0.222   2.157   2.926 -1.0341 -1.6550  0.8790
 9635TIP3   OH253099   2.427   3.770   2.035 -0.2553 -0.2712 -0.1097
 9635TIP3    H153100   2.363   3.699   2.028 -1.8088  1.0512  0.1500
 9635TIP3    H253101   2.428   3.793   2.128  1.3059 -0.8582  0.0518
 9636TIP3   OH253102   3.011   2.531   2.271  0.5449  0.0008  0.3976
 9636TIP3    H153103   3.022   2.443   2.235  1.3147  0.2956 -0.1184
 9636TIP3    H253104   3.073   2.535   2.344 -0.9205 -0.5520  1.7339
 9637TIP3   OH253105   0.120   3.933   3.727  0.6476 -0.1026 -0.0656
 9637TIP3    H153106   0.147   4.018   3.763 -0.0991  0.5972 -1.0848
 9637TIP3    H253107   0.171   3.924   3.646 -0.0372 -0.1356 -0.4966
 9638TIP3   OH253108   4.136   4.781   3.544 -0.0831 -0.0726 -0.7928
 9638TIP3    H153109   4.107   4.866   3.511  2.5746  1.7416  1.1660
 9638TIP3    H253110   4.119   4.784   3.638  1.5654 -1.0014 -0.4265
 9639TIP3   OH253111   6.807   0.557   4.149 -0.1675 -0.0229  0.0720
 9639TIP3    H153112   6.767   0.470   4.151 -1.0789  0.3701 -0.4235
 9639TIP3    H253113   6.743   0.614   4.190  0.8072  0.2939  1.2237
 9640TIP3   OH253114   5.876   2.220   2.123  0.2891  0.6395 -0.4952
 9640TIP3    H153115   5.813   2.149   2.131 -0.2039  0.9098 -1.6738
 9640TIP3    H253116   5.956   2.178   2.091 -1.0742  0.9443 -5.0105
 9641TIP3   OH253117   4.185   6.802   4.131 -0.0386  0.3070  0.0802
 9641TIP3    H153118   4.234   6.743   4.189  0.1061 -0.4823 -0.8328
 9641TIP3    H253119   4.096   6.769   4.133 -0.3287  1.0845  0.8726
 9642TIP3   OH253120   2.239   2.726   4.220 -0.1955 -0.0263  0.0355
 9642TIP3    H153121   2.204   2.643   4.255  1.3326 -0.7742 -0.1545
 9642TIP3    H253122   2.283   2.766   4.294  1.5098 -0.7637 -0.5370
 9643TIP3   OH253123   1.032   5.913   3.862  0.2391 -0.1116 -0.2004
 9643TIP3    H153124   0.947   5.956   3.861 -0.2713 -1.1093 -0.1427
 9643TIP3    H253125   1.055   5.908   3.955  0.7893  0.9483 -0.2558
 9644TIP3   OH253126   2.597   7.584   2.673 -0.0616  0.2540  0.1824
 9644TIP3    H153127   2.550   7.624   2.600  1.2577  1.5624  0.0253
 9644TIP3    H253128   2.673   7.542   2.633 -0.4396 -0.8470  0.5768
 9645TIP3   OH253129   2.123   4.203   2.808 -0.5323  0.2981  0.0694
 9645TIP3    H153130   2.212   4.240   2.813 -0.3098 -0.1776 -0.2838
 9645TIP3    H253131   2.118   4.165   2.720 -0.8687 -0.2207  0.3095
 9646TIP3   OH253132   5.555   0.931   4.247  1.1820 -0.3029 -0.3275
 9646TIP3    H153133   5.571   0.851   4.297 -2.4368 -0.2123  1.3369
 9646TIP3    H253134   5.615   0.996   4.284  1.6476 -1.3545  0.8074
 9647TIP3   OH253135   5.148   0.201   3.282 -0.4764 -0.0090 -0.1842
 9647TIP3    H153136   5.189   0.224   3.366  1.1210 -1.5095 -0.5066
 9647TIP3    H253137   5.139   0.285   3.237 -0.8252  0.7560  1.2459
 9648TIP3   OH253138   0.682   4.845   3.021 -0.5633 -0.3224 -0.2067
 9648TIP3    H153139   0.605   4.892   3.055  0.0365  0.1686  0.5033
 9648TIP3    H253140   0.713   4.900   2.948 -1.2850 -0.8841 -0.9598
 9649TIP3   OH253141   6.699   1.601   3.996  0.2929  0.2258 -0.7599
 9649TIP3    H153142   6.643   1.679   3.997  0.5070  0.4108 -1.9617
 9649TIP3    H253143   6.663   1.545   4.066 -0.9930  0.6190 -1.0762
 9650TIP3   OH253144   7.417   1.800   3.539 -0.8728  0.2749  0.0501
 9650TIP3    H153145   7.349   1.774   3.477 -0.1350  0.3672 -0.8142
 9650TIP3    H253146   7.481   1.728   3.537 -0.8702  0.2422  0.7676
 9651TIP3   OH253147   4.054   7.100   3.881  0.1353  0.2167  0.4373
 9651TIP3    H153148   4.149   7.110   3.878  0.2180 -0.3730  0.9423
 9651TIP3    H253149   4.035   7.072   3.970 -0.6249  1.3211  0.6507
 9652TIP3   OH253150   1.762   3.955   2.751  0.0686  0.1974  0.0962
 9652TIP3    H153151   1.765   3.950   2.656 -1.4155 -1.3819  0.0967
 9652TIP3    H253152   1.673   3.929   2.775  0.6536 -0.2723  1.9632
 9653TIP3   OH253153   4.089   2.743   2.588  0.4831  0.8781  0.0642
 9653TIP3    H153154   4.127   2.672   2.640  0.0985  0.2428 -0.5191
 9653TIP3    H253155   4.056   2.701   2.509 -0.1770  1.6391 -0.0762
 9654TIP3   OH253156   4.182   4.968   3.823 -1.2659 -0.1135 -0.1302
 9654TIP3    H153157   4.222   4.953   3.909 -0.0522 -1.2590 -0.8453
 9654TIP3    H253158   4.208   5.057   3.800 -1.1730  0.0195  0.4685
 9655TIP3   OH253159   7.222   5.366   3.512 -0.2311 -0.1392  0.3645
 9655TIP3    H153160   7.307   5.391   3.546  0.2376 -1.5666  0.3054
 9655TIP3    H253161   7.161   5.430   3.549  0.8057  0.6933  0.6752
 9656TIP3   OH253162   4.771   1.987   3.099  0.1062 -0.5825  0.7070
 9656TIP3    H153163   4.846   2.045   3.106 -0.5223  0.3683 -0.1471
 9656TIP3    H253164   4.809   1.899   3.091  1.1827 -0.0064 -0.9103
 9657TIP3   OH253165   3.202   2.268   2.043  0.0721 -0.0059  0.1226
 9657TIP3    H153166   3.264   2.323   1.994 -0.3885 -0.7790 -1.3396
 9657TIP3    H253167   3.116   2.294   2.011 -0.2101 -0.8259  0.2010
 9658TIP3   OH253168   7.220   3.776   3.628 -0.7035  0.2758 -0.2336
 9658TIP3    H153169   7.292   3.810   3.681  0.0730  0.0155 -1.0893
 9658TIP3    H253170   7.223   3.681   3.640  0.7540  0.0049 -2.2333
 9659TIP3   OH253171   2.130   4.696   3.171 -0.0930  0.4226 -0.1336
 9659TIP3    H153172   2.063   4.765   3.175 -1.1474 -0.3982 -2.2106
 9659TIP3    H253173   2.090   4.621   3.215 -0.3886  0.0798 -0.9601
 9660TIP3   OH253174   2.000   0.798   4.096  0.2875  0.5378  0.3334
 9660TIP3    H153175   2.083   0.808   4.048 -0.0188 -0.3153 -0.4195
 9660TIP3    H253176   1.957   0.882   4.086  0.8470  0.8243  0.2859
 9661TIP3   OH253177   3.914   1.341   2.674 -0.3114 -0.4074 -0.5203
 9661TIP3    H153178   4.009   1.337   2.681 -0.3265  0.6898  0.8196
 9661TIP3    H253179   3.896   1.344   2.580  0.9421 -1.0233 -0.7904
 9662TIP3   OH253180   1.609   1.769   2.686  0.2008  0.2787 -0.0085
 9662TIP3    H153181   1.694   1.809   2.698  0.0315  0.3871  0.9405
 9662TIP3    H253182   1.588   1.731   2.772 -0.3796 -0.3792 -0.4256
 9663TIP3   OH253183   3.887   2.866   3.162 -0.6903 -0.3555  0.2388
 9663TIP3    H153184   3.913   2.924   3.234  2.0130  0.0897 -0.9552
 9663TIP3    H253185   3.936   2.785   3.178  2.4650  0.7599 -2.4827
 9664TIP3   OH253186   0.526   1.727   4.038 -0.1935 -0.1693 -0.0766
 9664TIP3    H153187   0.495   1.775   4.115 -1.4635  2.7675 -2.2272
 9664TIP3    H253188   0.610   1.768   4.017  0.2933 -1.1635 -0.1312
 9665TIP3   OH253189   4.031   4.316   2.410  0.2199  0.5626 -0.3624
 9665TIP3    H153190   3.965   4.367   2.456  1.0654 -0.5448  2.2755
 9665TIP3    H253191   4.114   4.342   2.450  1.0855 -0.1120 -1.6292
 9666TIP3   OH253192   4.273   3.355   3.981 -0.4664  0.2974  0.3389
 9666TIP3    H153193   4.199   3.361   4.042 -1.5861 -0.1618 -0.9160
 9666TIP3    H253194   4.286   3.261   3.969 -0.9173  0.3748 -0.8674
 9667TIP3   OH253195   2.451   3.355   3.787 -0.6068 -0.1151  0.3727
 9667TIP3    H153196   2.434   3.383   3.697 -0.3145 -1.9601 -0.2867
 9667TIP3    H253197   2.367   3.325   3.820 -0.3824 -1.1244  0.0709
 9668TIP3   OH253198   6.340   5.320   2.675  0.2614  0.3052  0.1285
 9668TIP3    H153199   6.263   5.311   2.731  0.6609  1.2304  0.8536
 9668TIP3    H253200   6.309   5.373   2.601  0.6371  2.4387  1.4031
 9669TIP3   OH253201   2.866   6.359   3.081  0.5600  0.3660  0.0596
 9669TIP3    H153202   2.779   6.331   3.109 -0.0454  1.5459 -0.5924
 9669TIP3    H253203   2.921   6.348   3.159 -0.4807  0.9532  0.8952
 9670TIP3   OH253204   0.933   2.720   3.064  0.1837 -0.3195  0.0739
 9670TIP3    H153205   0.994   2.744   3.134 -3.5042  1.2319  3.1609
 9670TIP3    H253206   0.968   2.639   3.028  3.8395  0.3268  1.6945
 9671TIP3   OH253207   2.786   3.737   3.114  0.0410 -0.3223 -0.1712
 9671TIP3    H153208   2.698   3.773   3.127 -0.1480 -1.4268  2.2764
 9671TIP3    H253209   2.844   3.800   3.156  0.3594  0.0160 -1.0980
 9672TIP3   OH253210   4.627   3.744   3.358  0.6040 -0.1062  0.5726
 9672TIP3    H153211   4.609   3.650   3.346 -0.7728  0.3426 -1.5338
 9672TIP3    H253212   4.715   3.756   3.323  0.5120 -0.5074  0.1880
 9673TIP3   OH253213   5.258   0.819   3.623 -0.7707  0.3145 -0.0459
 9673TIP3    H153214   5.280   0.862   3.540  0.6007 -0.4861 -0.1286
 9673TIP3    H253215   5.303   0.871   3.690 -2.0574  1.0925  0.2554
 9674TIP3   OH253216   4.847   3.282   2.862 -0.2077  0.7201 -0.0060
 9674TIP3    H153217   4.935   3.313   2.882 -0.0639  0.9751 -0.9913
 9674TIP3    H253218   4.852   3.187   2.871  0.6001  0.5750 -1.5696
 9675TIP3   OH253219   5.237   4.384   3.321 -0.0568 -0.1837  0.3654
 9675TIP3    H153220   5.271   4.319   3.259 -1.0982  0.4615 -0.9421
 9675TIP3    H253221   5.192   4.333   3.388  0.4227 -0.8591  0.1898
 9676TIP3   OH253222   1.351   3.652   4.081 -0.3029  0.2562 -0.0770
 9676TIP3    H153223   1.331   3.604   4.161  1.9519  1.7534  1.5388
 9676TIP3    H253224   1.425   3.605   4.042  1.0426  1.5436  0.7992
 9677TIP3   OH253225   0.992   3.715   4.544  0.3147 -0.8378 -0.1944
 9677TIP3    H153226   1.053   3.643   4.561 -0.6289 -0.9445  3.6572
 9677TIP3    H253227   1.031   3.790   4.588 -1.3223 -0.4286  0.6295
 9678TIP3   OH253228   4.928   6.981   2.791  0.9017 -0.4549 -0.1531
 9678TIP3    H153229   4.991   6.946   2.853  0.1770 -3.7323 -1.0584
 9678TIP3    H253230   4.966   7.063   2.761  2.4608 -0.0303  2.6807
 9679TIP3   OH253231   6.230   6.835   5.091  0.1981  0.0997  0.2008
 9679TIP3    H153232   6.233   6.806   5.000 -0.9903 -0.5671  0.3524
 9679TIP3    H253233   6.318   6.818   5.125  0.9168  1.1388 -1.0316
 9680TIP3   OH253234   1.857   6.486   4.152  0.0900 -0.0728  0.0575
 9680TIP3    H153235   1.767   6.519   4.158  0.4805  0.7236  2.9760
 9680TIP3    H253236   1.880   6.498   4.060 -1.7327  2.6782 -0.1665
 9681TIP3   OH253237   1.693   3.482   2.133 -0.0540  0.3949  0.1297
 9681TIP3    H153238   1.755   3.553   2.145 -0.6671  1.1620 -1.0376
 9681TIP3    H253239   1.744   3.411   2.094  0.3600  0.5436  0.4016
 9682TIP3   OH253240   6.454   2.024   4.649 -0.0851  0.4407  0.1479
 9682TIP3    H153241   6.399   2.097   4.620  1.5037  2.6244  2.2226
 9682TIP3    H253242   6.427   1.950   4.594 -0.1143  3.1069 -3.9143
 9683TIP3   OH253243   5.285   7.540   3.210 -0.2551  0.6942  0.0340
 9683TIP3    H153244   5.347   7.467   3.206 -0.6912  0.3611 -1.0058
 9683TIP3    H253245   5.338   7.615   3.236  0.0483 -0.1473  1.9573
 9684TIP3   OH253246   1.551   5.584   4.243  0.0470  0.2239  0.0818
 9684TIP3    H153247   1.523   5.577   4.152  0.6720  1.0726 -0.1943
 9684TIP3    H253248   1.553   5.494   4.275 -1.4221  0.0152 -0.3476
 9685TIP3   OH253249   3.825   7.052   2.362  0.8007 -0.6298  0.2383
 9685TIP3    H153250   3.802   6.985   2.426  0.9133 -0.7216  0.1841
 9685TIP3    H253251   3.915   7.076   2.384  1.0965 -1.1713 -0.3155
 9686TIP3   OH253252   0.725   1.532   2.447  0.1234  0.4652 -0.4409
 9686TIP3    H153253   0.670   1.604   2.415 -0.2478 -0.4803 -2.0776
 9686TIP3    H253254   0.663   1.462   2.467  0.5332  0.3511  0.4844
 9687TIP3   OH253255   7.316   1.127   3.293 -0.2527  0.4278  0.0003
 9687TIP3    H153256   7.266   1.170   3.223  0.1067 -2.4756 -2.1826
 9687TIP3    H253257   7.251   1.073   3.338 -0.3190  1.7038  1.5535
 9688TIP3   OH253258   5.075   7.648   2.640 -0.3577 -0.2106 -0.1864
 9688TIP3    H153259   5.148   7.590   2.661 -1.2517 -1.0420  0.7284
 9688TIP3    H253260   5.046   7.620   2.554  1.0006  0.7789 -1.0014
 9689TIP3   OH253261   6.177   5.176   4.453 -0.4122  0.3129 -0.1292
 9689TIP3    H153262   6.187   5.111   4.522  2.8488  2.3228  1.5522
 9689TIP3    H253263   6.094   5.220   4.472 -0.4691 -0.4170  1.3683
 9690TIP3   OH253264   1.982   7.643   4.619  0.3456  0.1578  0.6691
 9690TIP3    H153265   1.927   7.566   4.601  2.0733 -1.2797  1.2099
 9690TIP3    H253266   1.922   7.708   4.655 -1.0941 -1.1245  0.6951
 9691TIP3   OH253267   6.459   5.354   5.205  0.0215  0.1085  0.5325
 9691TIP3    H153268   6.461   5.261   5.181 -1.0708 -0.0306  0.9708
 9691TIP3    H253269   6.480   5.399   5.123 -0.9174 -0.4694 -0.0441
 9692TIP3   OH253270   6.323   4.439   4.078 -0.5978  0.3616  0.7658
 9692TIP3    H153271   6.237   4.468   4.108 -1.6436 -0.8818 -0.7962
 9692TIP3    H253272   6.326   4.346   4.100 -0.5523 -0.1007 -0.9949
 9693TIP3   OH253273   0.702   4.332   4.111  0.5843 -0.3781 -0.3401
 9693TIP3    H153274   0.745   4.299   4.189 -0.8658  0.2643  0.7816
 9693TIP3    H253275   0.770   4.381   4.065  1.2244  0.0373  1.0058
 9694TIP3   OH253276   3.981   4.011   3.885 -0.4242 -0.4976  0.0296
 9694TIP3    H153277   3.926   3.978   3.814 -0.7289 -0.5814  0.2998
 9694TIP3    H253278   3.921   4.019   3.959 -0.3963  0.8359 -0.0727
 9695TIP3   OH253279   5.223   5.650   2.580  0.1865 -0.4442 -0.1757
 9695TIP3    H153280   5.270   5.669   2.499 -0.0692 -1.2106 -0.5020
 9695TIP3    H253281   5.144   5.605   2.553 -1.2379  1.6442  0.2943
 9696TIP3   OH253282   0.828   1.069   3.131 -0.2069  0.4958 -0.4739
 9696TIP3    H153283   0.741   1.029   3.129  0.4946 -1.1408  0.4228
 9696TIP3    H253284   0.810   1.163   3.128 -2.1147  0.2743  1.4375
 9697TIP3   OH253285   5.767   2.293   3.165  0.1720  0.5214 -0.4147
 9697TIP3    H153286   5.723   2.253   3.240 -0.8648  1.7591 -0.3266
 9697TIP3    H253287   5.710   2.276   3.091  1.4754 -1.1973 -1.0829
 9698TIP3   OH253288   5.018   4.353   4.468 -0.0014  0.6922 -0.2945
 9698TIP3    H153289   5.024   4.258   4.470 -0.5964  0.6464  1.7273
 9698TIP3    H253290   5.109   4.383   4.472  0.1341  0.1651  1.3620
 9699TIP3   OH253291   4.642   1.103   4.596 -0.4753  0.0670 -0.2014
 9699TIP3    H153292   4.708   1.118   4.663 -2.4909  0.8827  1.7386
 9699TIP3    H253293   4.662   1.016   4.561  1.5822  0.2993  0.2642
 9700TIP3   OH253294   7.547   0.079   2.905 -0.1013 -0.0191  0.1852
 9700TIP3    H153295   7.573   0.098   2.995  2.4207 -0.2476 -0.4163
 9700TIP3    H253296   7.624   0.038   2.866 -2.1136 -2.7850 -1.2582
 9701TIP3   OH253297   4.473   3.641   3.674  0.4355 -0.7252 -0.6030
 9701TIP3    H153298   4.442   3.579   3.607  0.4336 -0.5269 -0.7868
 9701TIP3    H253299   4.424   3.721   3.657 -1.5442 -1.4401  1.2739
 9702TIP3   OH253300   2.598   4.822   2.620 -0.0910  0.0074  0.3389
 9702TIP3    H153301   2.651   4.765   2.676 -1.5603 -1.4144  0.3553
 9702TIP3    H253302   2.631   4.805   2.532 -0.8818 -1.3224  0.2800
 9703TIP3   OH253303   1.009   5.163   3.820  0.4093 -1.0411 -0.1149
 9703TIP3    H153304   0.942   5.173   3.887 -0.0738 -0.0882 -0.7266
 9703TIP3    H253305   0.998   5.073   3.788 -0.8337 -0.7799 -0.4638
 9704TIP3   OH253306   3.437   0.544   3.221  0.2822  0.4120  0.0357
 9704TIP3    H153307   3.447   0.621   3.166 -2.0553 -0.7441 -2.2276
 9704TIP3    H253308   3.490   0.476   3.179  0.6444  0.2186  0.7840
 9705TIP3   OH253309   3.615   6.878   3.527 -0.4713  0.2535 -0.4602
 9705TIP3    H153310   3.533   6.914   3.562 -2.1843 -1.4259 -2.4738
 9705TIP3    H253311   3.588   6.801   3.477  2.2234  0.3043 -2.1919
 9706TIP3   OH253312   4.287   6.440   3.294 -0.2263  0.1949 -0.1215
 9706TIP3    H153313   4.250   6.528   3.305  0.1873  0.3559  0.0281
 9706TIP3    H253314   4.351   6.433   3.365  0.0089 -0.0822 -0.3608
 9707TIP3   OH253315   2.631   4.549   2.369  0.4403 -0.2861 -0.7211
 9707TIP3    H153316   2.563   4.611   2.393  1.4236  0.1535  1.1056
 9707TIP3    H253317   2.597   4.464   2.396  0.9234  0.0340  1.0284
 9708TIP3   OH253318   4.424   0.895   2.975  0.0133  0.5120 -0.2776
 9708TIP3    H153319   4.438   0.830   3.044 -1.8709 -0.3528 -0.6530
 9708TIP3    H253320   4.505   0.894   2.924  0.2040 -1.2042  0.0208
 9709TIP3   OH253321   5.018   2.497   2.712  0.1371  0.5137  0.0168
 9709TIP3    H153322   5.057   2.443   2.780 -3.0108 -0.8950  0.8889
 9709TIP3    H253323   5.042   2.454   2.630  1.0162  0.1769  0.4333
 9710TIP3   OH253324   4.965   1.091   3.308 -0.6176  0.2889  0.3531
 9710TIP3    H153325   4.984   1.075   3.401  0.5244 -1.0243 -0.0730
 9710TIP3    H253326   4.997   1.012   3.263 -1.2057  0.8759 -1.1585
 9711TIP3   OH253327   6.459   4.596   4.379  0.1954 -0.2527 -0.0423
 9711TIP3    H153328   6.401   4.522   4.359  1.4809 -1.0420 -1.0766
 9711TIP3    H253329   6.459   4.602   4.474  0.9217 -2.3705  0.1627
 9712TIP3   OH253330   5.551   4.794   3.023 -0.6888 -0.2575  0.2450
 9712TIP3    H153331   5.549   4.828   3.112  1.5289 -0.2620  0.3681
 9712TIP3    H253332   5.477   4.733   3.018 -1.4418  0.4902  1.7390
 9713TIP3   OH253333   4.346   7.534   2.544  0.4787 -0.5134  0.6842
 9713TIP3    H153334   4.419   7.513   2.603  1.1647  1.6800  0.6830
 9713TIP3    H253335   4.384   7.526   2.456  0.1454 -1.2853  0.5980
 9714TIP3   OH253336   0.830   5.947   3.448  0.1522 -0.1397  0.0787
 9714TIP3    H153337   0.844   5.897   3.529 -2.3989 -1.4671 -0.2041
 9714TIP3    H253338   0.847   5.885   3.378  0.5750  0.4949 -0.3931
 9715TIP3   OH253339   2.130   2.486   4.320  0.0049  0.4025  0.4673
 9715TIP3    H153340   2.221   2.459   4.335  0.7431  1.7262 -1.3372
 9715TIP3    H253341   2.079   2.405   4.328  1.1290 -0.1674  2.7446
 9716TIP3   OH253342   7.477   2.673   2.494 -0.0197  0.6325  0.0971
 9716TIP3    H153343   7.405   2.700   2.437  1.1525  0.0490 -1.7665
 9716TIP3    H253344   7.463   2.579   2.508  0.3852  0.4930 -0.3592
 9717TIP3   OH253345   2.437   4.773   3.999 -0.1981  0.1256  0.0687
 9717TIP3    H153346   2.382   4.758   3.921  2.2544  0.7354 -1.9140
 9717TIP3    H253347   2.445   4.687   4.039  0.2409 -0.6969 -1.6620
 9718TIP3   OH253348   5.343   6.097   3.002 -0.1943  0.3420  0.2591
 9718TIP3    H153349   5.298   6.016   2.976 -0.2324  0.5061 -0.2020
 9718TIP3    H253350   5.283   6.167   2.976  1.8332  0.8141 -3.8920
 9719TIP3   OH253351   6.214   6.121   3.179 -0.2842 -0.4259  0.3379
 9719TIP3    H153352   6.228   6.031   3.211  0.5802 -0.7662 -0.9302
 9719TIP3    H253353   6.205   6.111   3.084  2.6070  1.0799 -0.1923
 9720TIP3   OH253354   7.214   6.693   2.620 -0.0444 -0.2831  0.2763
 9720TIP3    H153355   7.217   6.736   2.706  1.7182 -0.6468  0.4227
 9720TIP3    H253356   7.305   6.686   2.594 -0.5954  1.3899 -2.4503
 9721TIP3   OH253357   1.408   1.789   4.956 -0.5200 -0.4439 -0.1313
 9721TIP3    H153358   1.343   1.857   4.969  0.7582  0.8078  0.0197
 9721TIP3    H253359   1.480   1.813   5.014 -0.0528 -1.9627 -0.0346
 9722TIP3   OH253360   7.045   0.793   2.599  0.7107 -0.3213  0.1313
 9722TIP3    H153361   7.116   0.737   2.629 -0.2226 -0.1624  2.9240
 9722TIP3    H253362   7.035   0.858   2.669 -0.6153  1.1317 -1.3236
 9723TIP3   OH253363   6.831   3.209   4.787 -0.7070  0.2950  0.3567
 9723TIP3    H153364   6.767   3.211   4.858  0.7647  0.2467  1.7477
 9723TIP3    H253365   6.906   3.162   4.824 -0.3982 -0.9357 -1.6990
 9724TIP3   OH253366   7.243   3.906   4.785 -0.2394 -0.0240  0.3218
 9724TIP3    H153367   7.161   3.886   4.741  0.0586 -0.3805 -0.0833
 9724TIP3    H253368   7.296   3.951   4.719  0.1571 -0.4430  0.3463
 9725TIP3   OH253369   5.416   2.439   2.747 -0.4743  0.3374 -0.3045
 9725TIP3    H153370   5.480   2.409   2.682  0.2951 -0.6590  0.8654
 9725TIP3    H253371   5.393   2.528   2.718 -0.5289 -0.2403 -2.1837
 9726TIP3   OH253372   3.821   0.572   3.508  0.3301 -0.1897 -0.2984
 9726TIP3    H153373   3.864   0.535   3.585  1.5045  1.1985 -0.2457
 9726TIP3    H253374   3.733   0.595   3.539  0.6340 -0.0723  0.5122
 9727TIP3   OH253375   3.329   3.869   2.513  0.4088  0.4169 -0.1656
 9727TIP3    H153376   3.388   3.867   2.438  1.8034  1.7286  0.8420
 9727TIP3    H253377   3.378   3.915   2.581 -1.9532  2.0678  0.5636
 9728TIP3   OH253378   1.522   7.318   3.768  0.3554 -0.1473  0.4792
 9728TIP3    H153379   1.597   7.259   3.769  1.6866  1.4653  0.0870
 9728TIP3    H253380   1.554   7.399   3.808 -1.1775  0.5916  0.3074
 9729TIP3   OH253381   2.833   1.595   2.555  0.1984  0.0985  0.1503
 9729TIP3    H153382   2.895   1.665   2.534  0.5365 -0.5799 -1.2844
 9729TIP3    H253383   2.765   1.638   2.606  1.6210  0.9493  1.4187
 9730TIP3   OH253384   0.039   1.357   2.327  0.0209 -0.1887  0.0313
 9730TIP3    H153385   0.062   1.301   2.401  0.3724 -1.2599 -0.8555
 9730TIP3    H253386   0.006   1.297   2.260 -0.5882  0.7859 -0.5759
 9731TIP3   OH253387   3.058   1.700   3.536 -0.4573 -0.0524  0.5345
 9731TIP3    H153388   3.147   1.681   3.506 -0.7991 -0.3222 -0.3059
 9731TIP3    H253389   3.038   1.785   3.496  0.6289  1.6686  3.3332
 9732TIP3   OH253390   4.659   7.222   3.841 -0.0292  0.3133  0.5232
 9732TIP3    H153391   4.671   7.308   3.880 -1.8447  1.0626 -0.4464
 9732TIP3    H253392   4.701   7.228   3.755  1.4640 -0.4087  1.1682
 9733TIP3   OH253393   5.736   3.684   3.787  0.1266  0.3400  0.3721
 9733TIP3    H153394   5.791   3.647   3.856  0.0532 -0.7280 -0.1315
 9733TIP3    H253395   5.768   3.644   3.707 -2.0668 -1.1657  0.1693
 9734TIP3   OH253396   3.178   2.926   4.131 -0.0682 -0.3772 -0.3399
 9734TIP3    H153397   3.205   2.852   4.185 -0.9167 -0.9137 -0.6218
 9734TIP3    H253398   3.259   2.956   4.089  0.8147  0.7235  1.9795
 9735TIP3   OH253399   0.052   2.775   3.961  0.0253  0.1361 -0.3578
 9735TIP3    H153400   0.062   2.693   3.912  0.7788 -0.2563  0.4228
 9735TIP3    H253401   0.084   2.755   4.048 -1.0432  0.9074  0.2335
 9736TIP3   OH253402   3.836   1.928   2.110 -0.1176 -0.1911  0.1543
 9736TIP3    H153403   3.842   1.997   2.044  1.0822  0.4440  0.8900
 9736TIP3    H253404   3.743   1.927   2.136 -0.4394  0.0894 -0.9562
 9737TIP3   OH253405   7.622   0.009   3.454  0.2308  0.1497  0.3193
 9737TIP3    H153406   7.542  -0.036   3.430 -0.9081  1.0757  2.1606
 9737TIP3    H253407   7.691  -0.055   3.439 -1.0487 -1.2970  0.3942
 9738TIP3   OH253408   2.872   3.902   2.283  0.5741  0.3440 -0.2135
 9738TIP3    H153409   2.926   3.915   2.361 -0.1826  0.3259  0.3235
 9738TIP3    H253410   2.888   3.811   2.258  0.4414  0.1943  0.2274
 9739TIP3   OH253411   6.796   0.361   3.435 -0.8316  0.8642 -0.1683
 9739TIP3    H153412   6.833   0.345   3.348  1.5324  1.4627  0.6606
 9739TIP3    H253413   6.757   0.448   3.429 -0.8760  0.8123 -0.6868
 9740TIP3   OH253414   3.881   6.524   4.438 -0.4274 -0.6343 -0.3924
 9740TIP3    H153415   3.935   6.448   4.459  0.4405  0.2176  0.5300
 9740TIP3    H253416   3.874   6.572   4.520 -1.2392  0.1218 -0.8873
 9741TIP3   OH253417   5.192   4.752   2.271 -0.2678  0.3571  0.4838
 9741TIP3    H153418   5.136   4.753   2.348  2.0457 -0.1938  2.3021
 9741TIP3    H253419   5.229   4.840   2.267  0.7535 -0.0370  0.9340
 9742TIP3   OH253420   7.013   2.955   3.770  0.1122  0.4428 -0.6248
 9742TIP3    H153421   6.921   2.978   3.775 -0.6806 -2.3011 -1.1498
 9742TIP3    H253422   7.020   2.872   3.817  2.4086  0.7637 -0.2516
 9743TIP3   OH253423   2.191   1.592   2.608 -0.8556 -0.1086 -0.9292
 9743TIP3    H153424   2.243   1.663   2.569  0.0998  0.2042  0.8217
 9743TIP3    H253425   2.224   1.513   2.567  1.0605  0.0814  0.1141
 9744TIP3   OH253426   0.573   1.146   4.345  0.2080 -0.2094  0.0421
 9744TIP3    H153427   0.602   1.056   4.332  0.2187 -0.2234  0.1590
 9744TIP3    H253428   0.545   1.175   4.258  0.5633 -0.1956 -0.0690
 9745TIP3   OH253429   4.612   5.058   2.305 -0.3665  0.4456  0.6564
 9745TIP3    H153430   4.676   5.021   2.366 -0.6415 -0.7189  0.2643
 9745TIP3    H253431   4.664   5.116   2.249  0.5183 -0.9845 -0.0815
 9746TIP3   OH253432   1.742   7.151   3.805  0.3068  0.3729  0.0727
 9746TIP3    H153433   1.733   7.061   3.834  0.8882  0.3188  0.0878
 9746TIP3    H253434   1.771   7.199   3.883  2.9453  0.0378 -0.6214
 9747TIP3   OH253435   6.058   4.556   3.142 -0.0439  0.4055 -0.2706
 9747TIP3    H153436   6.014   4.480   3.106 -0.4153  0.6245 -0.2848
 9747TIP3    H253437   6.126   4.578   3.078  0.9504 -0.7058  0.3600
 9748TIP3   OH253438   2.737   6.145   3.931 -0.6088 -0.2907 -0.1985
 9748TIP3    H153439   2.782   6.228   3.913 -0.8465 -0.0934  0.0924
 9748TIP3    H253440   2.806   6.086   3.960 -0.5367  0.0243  0.2939
 9749TIP3   OH253441   6.789   7.641   3.647 -0.3174 -0.1906  0.1783
 9749TIP3    H153442   6.767   7.681   3.562 -3.2739  1.0381  1.3646
 9749TIP3    H253443   6.745   7.556   3.646  1.7225 -1.3056 -0.3835
 9750TIP3   OH253444   5.522   7.438   4.409 -0.2221  0.8165 -0.4267
 9750TIP3    H153445   5.568   7.466   4.488 -1.0600  0.7336  0.0991
 9750TIP3    H253446   5.573   7.476   4.337  1.4305 -0.3830  0.0644
 9751TIP3   OH253447   4.987   7.190   2.622 -0.1005 -0.1343 -0.2986
 9751TIP3    H153448   5.043   7.250   2.573 -1.2542  1.0417 -0.2463
 9751TIP3    H253449   4.937   7.144   2.555 -0.0773 -0.1453 -0.3082
 9752TIP3   OH253450   7.542   6.636   3.819  0.3041  0.2033  0.3232
 9752TIP3    H153451   7.582   6.591   3.894 -0.4477 -0.9849  0.0441
 9752TIP3    H253452   7.448   6.627   3.833 -0.0330 -3.3266 -2.4736
 9753TIP3   OH253453   2.116   6.457   3.917  0.4604 -0.0837 -0.7940
 9753TIP3    H153454   2.191   6.402   3.895  0.8547  0.2931 -0.4246
 9753TIP3    H253455   2.058   6.451   3.842 -0.1126 -2.0297 -0.2517
 9754TIP3   OH253456   7.251   4.024   2.850  0.4047  0.1574  0.5917
 9754TIP3    H153457   7.190   4.096   2.830 -0.7866 -0.5948  1.3892
 9754TIP3    H253458   7.292   4.050   2.932  2.7434  1.6196 -0.9201
 9755TIP3   OH253459   0.904   5.517   2.346 -0.5241 -0.0211  0.5013
 9755TIP3    H153460   0.874   5.541   2.258  1.3529 -0.0241 -0.1956
 9755TIP3    H253461   0.999   5.510   2.337 -0.4589 -2.0213  2.0497
 9756TIP3   OH253462   3.438   2.538   4.301 -0.5408  0.5995  0.1629
 9756TIP3    H153463   3.468   2.514   4.213 -2.7174  1.2197 -0.8274
 9756TIP3    H253464   3.454   2.460   4.354 -0.9659 -0.5064 -1.2647
 9757TIP3   OH253465   5.982   2.296   3.489 -0.0229 -0.2042 -0.5428
 9757TIP3    H153466   6.032   2.228   3.535 -0.4828 -0.6472 -0.6845
 9757TIP3    H253467   5.905   2.309   3.544  0.7498  1.2670  0.2628
 9758TIP3   OH253468   3.407   7.116   1.861  0.4150 -0.2595  0.3275
 9758TIP3    H153469   3.400   7.126   1.766  1.1617 -2.1534  0.0343
 9758TIP3    H253470   3.332   7.165   1.896  1.0863  1.9288 -1.0844
 9759TIP3   OH253471   7.075   5.376   3.297 -0.0163  0.0698  0.1252
 9759TIP3    H153472   7.088   5.308   3.232  1.7600  1.0892 -0.6546
 9759TIP3    H253473   7.137   5.356   3.367  0.2045  0.6120  0.0958
 9760TIP3   OH253474   7.138   0.573   3.673  0.3644 -0.3103  0.1720
 9760TIP3    H153475   7.183   0.490   3.659  0.0656 -0.7120  1.4660
 9760TIP3    H253476   7.070   0.553   3.738  0.8377  1.1085  1.1553
 9761TIP3   OH253477   7.074   0.020   3.869 -0.4514 -0.2275 -0.2038
 9761TIP3    H153478   7.070   0.112   3.897  0.9176 -0.2167  0.0192
 9761TIP3    H253479   7.030   0.018   3.784  0.3303  0.8301 -0.6558
 9762TIP3   OH253480   0.557   7.436   5.075  0.0597  0.4888  0.3066
 9762TIP3    H153481   0.522   7.482   4.999  0.4278 -0.0079 -0.1720
 9762TIP3    H253482   0.642   7.477   5.091  0.4363 -0.0854 -0.1871
 9763TIP3   OH253483   5.713   4.116   2.572  0.4202 -0.2481  0.1753
 9763TIP3    H153484   5.802   4.135   2.544 -0.5432  0.1377 -3.1168
 9763TIP3    H253485   5.662   4.191   2.543 -1.0275 -0.4781  1.9381
 9764TIP3   OH253486   0.370   4.206   4.242 -0.7205  0.3175  0.0776
 9764TIP3    H153487   0.446   4.243   4.286  0.7277 -2.7257  0.3601
 9764TIP3    H253488   0.406   4.165   4.163 -2.0942 -0.8703  0.0313
 9765TIP3   OH253489   3.554   3.577   4.070  0.2256 -0.0059  0.2765
 9765TIP3    H153490   3.580   3.669   4.083 -1.1370  0.4302  0.0847
 9765TIP3    H253491   3.488   3.580   4.001  2.1864 -1.4883 -1.8129
 9766TIP3   OH253492   4.376   2.219   4.175 -0.0945 -0.4193  0.3159
 9766TIP3    H153493   4.295   2.180   4.144  0.4146 -1.2868  0.0543
 9766TIP3    H253494   4.445   2.160   4.144  0.7434  0.9680 -0.5693
 9767TIP3   OH253495   5.427   0.112   3.327 -0.0686 -0.3188  0.2568
 9767TIP3    H153496   5.391   0.179   3.269  0.5434 -0.0939  0.1392
 9767TIP3    H253497   5.418   0.149   3.415 -1.3466 -0.8140  0.3680
 9768TIP3   OH253498   4.922   0.520   2.368  0.0090 -0.0494  0.0896
 9768TIP3    H153499   4.901   0.612   2.354  0.1299 -0.0529 -0.1184
 9768TIP3    H253500   5.016   0.519   2.387  0.0591 -0.1555 -0.1608
 9769TIP3   OH253501   5.621   4.999   4.849 -0.0480  0.2874  0.4514
 9769TIP3    H153502   5.685   5.029   4.785 -0.9954  0.9935 -0.1999
 9769TIP3    H253503   5.647   4.910   4.870  0.5789  0.2260 -0.5435
 9770TIP3   OH253504   7.155   2.798   4.439 -0.0083 -0.1542  0.5716
 9770TIP3    H153505   7.197   2.786   4.525 -1.5795 -1.5975  1.1894
 9770TIP3    H253506   7.134   2.709   4.410  0.7216  0.2791 -1.4693
 9771TIP3   OH253507   1.556   1.668   3.283 -0.0412 -0.5254  0.0285
 9771TIP3    H153508   1.490   1.732   3.258  1.6549  0.7675 -1.3519
 9771TIP3    H253509   1.520   1.584   3.254 -1.7920 -0.1292  0.8581
 9772TIP3   OH253510   3.365   3.006   2.936  0.1396 -0.1462  0.4454
 9772TIP3    H153511   3.448   3.016   2.983 -0.0695 -0.4924  0.9069
 9772TIP3    H253512   3.302   2.981   3.005  0.0111 -1.5269 -0.1492
 9773TIP3   OH253513   5.940   0.416   3.719 -0.4448  0.2792  0.0446
 9773TIP3    H153514   5.876   0.475   3.678 -0.5657 -0.1167 -0.3369
 9773TIP3    H253515   6.010   0.408   3.654  0.3608  1.2939  0.7454
 9774TIP3   OH253516   7.342   3.307   4.388 -0.2795  0.4848  0.2486
 9774TIP3    H153517   7.284   3.231   4.396 -0.5194  0.6947  0.5301
 9774TIP3    H253518   7.310   3.368   4.454 -0.0903  0.8351  0.0166
 9775TIP3   OH253519   1.894   1.681   2.263  0.4016 -0.4798  0.5219
 9775TIP3    H153520   1.828   1.740   2.300  0.3032  0.2949 -0.8255
 9775TIP3    H253521   1.844   1.621   2.208  0.8515  0.5612 -1.0782
 9776TIP3   OH253522   6.662   6.512   5.130 -0.0115  0.2603 -0.0838
 9776TIP3    H153523   6.735   6.572   5.115 -0.0061  0.0742 -0.8461
 9776TIP3    H253524   6.602   6.529   5.058  0.4827 -1.3856 -0.9308
 9777TIP3   OH253525   6.894   2.934   4.073  0.1092 -0.0750  0.5404
 9777TIP3    H153526   6.843   2.885   4.008 -0.1938  0.4721  0.3528
 9777TIP3    H253527   6.922   2.869   4.137 -2.9764 -0.0698  2.0768
 9778TIP3   OH253528   5.132   4.109   2.946 -0.3430  0.4629 -0.0851
 9778TIP3    H153529   5.132   4.018   2.914 -0.3501 -0.0439  1.2891
 9778TIP3    H253530   5.223   4.126   2.969 -0.5214  0.4033  0.7008
 9779TIP3   OH253531   6.539   2.891   4.380  0.5278  0.1907  0.0519
 9779TIP3    H153532   6.620   2.929   4.416 -0.1599  0.8772  0.9212
 9779TIP3    H253533   6.469   2.938   4.425 -0.4128  1.3903 -2.5150
 9780TIP3   OH253534   4.235   5.730   2.424 -0.5413 -0.0130  0.1882
 9780TIP3    H153535   4.192   5.715   2.340 -0.9480  0.1285  0.3692
 9780TIP3    H253536   4.257   5.824   2.424 -0.1752 -0.0946  0.0737
 9781TIP3   OH253537   5.859   3.328   3.489 -0.0872 -0.0163  0.1487
 9781TIP3    H153538   5.876   3.419   3.513 -0.8030  0.2332 -0.2391
 9781TIP3    H253539   5.765   3.317   3.505 -0.1036 -0.5348 -0.2880
 9782TIP3   OH253540   1.300   2.257   4.191  0.0576  0.2209  0.1218
 9782TIP3    H153541   1.373   2.220   4.141  0.5119  0.3737  0.6606
 9782TIP3    H253542   1.242   2.183   4.207  0.0465  0.1148 -0.3869
 9783TIP3   OH253543   1.293   0.742   5.114 -0.1495  0.6227  0.2957
 9783TIP3    H153544   1.381   0.720   5.144 -0.1445 -0.5275 -0.5413
 9783TIP3    H253545   1.277   0.828   5.152  0.6536  0.1068  1.9079
 9784TIP3   OH253546   3.134   2.288   2.324 -0.1625 -0.3486 -0.2286
 9784TIP3    H153547   3.225   2.304   2.346  0.0153 -2.1528  0.5036
 9784TIP3    H253548   3.134   2.277   2.229  0.3011  0.0912 -0.2841
 9785TIP3   OH253549   1.860   1.265   2.816 -0.1787  0.4766  0.5609
 9785TIP3    H153550   1.883   1.188   2.868  1.4037  0.0730 -0.6428
 9785TIP3    H253551   1.923   1.332   2.843  0.4576  0.3614 -0.5548
 9786TIP3   OH253552   0.789   6.633   2.608  0.6475 -0.0687  0.3227
 9786TIP3    H153553   0.846   6.587   2.546 -1.3037 -0.5218 -1.2288
 9786TIP3    H253554   0.832   6.621   2.693  1.7018 -2.2849 -0.4426
 9787TIP3   OH253555   6.806   6.598   4.021  0.5458 -0.4239  0.0249
 9787TIP3    H153556   6.858   6.590   3.941  0.2810  1.4246 -0.3882
 9787TIP3    H253557   6.823   6.687   4.052  0.4965 -1.0395  1.9487
 9788TIP3   OH253558   3.302   4.881   3.855 -0.4745 -0.0400  0.4232
 9788TIP3    H153559   3.264   4.940   3.920 -0.8740 -0.8914  0.9894
 9788TIP3    H253560   3.229   4.858   3.798 -0.2325  0.3150 -0.0350
 9789TIP3   OH253561   6.493   0.009   3.924 -0.5021 -0.3540 -0.1617
 9789TIP3    H153562   6.461  -0.041   3.849  1.2325  1.4677 -2.2903
 9789TIP3    H253563   6.561   0.066   3.887 -1.4326  2.6245  2.2734
 9790TIP3   OH253564   5.513   0.945   2.787 -0.5279  0.5671  0.4136
 9790TIP3    H153565   5.609   0.949   2.789 -0.3589 -1.3562 -1.2746
 9790TIP3    H253566   5.492   0.895   2.709 -2.8780 -0.2836  1.4838
 9791TIP3   OH253567   2.843   6.614   3.234 -0.0583 -0.6261 -0.0834
 9791TIP3    H153568   2.825   6.565   3.154 -1.0313  0.1550 -0.3571
 9791TIP3    H253569   2.914   6.565   3.276  0.8436 -0.7718 -1.6701
 9792TIP3   OH253570   4.327   0.878   4.064 -0.2243  0.3749  0.3426
 9792TIP3    H153571   4.261   0.908   4.126 -0.9043 -0.7559  0.2061
 9792TIP3    H253572   4.397   0.841   4.119 -0.2180  0.5627  0.4615
 9793TIP3   OH253573   5.650   6.723   2.970  0.5466  0.4498  0.1404
 9793TIP3    H153574   5.667   6.738   2.877  0.4351 -0.6148 -0.0673
 9793TIP3    H253575   5.623   6.809   3.004  0.5515  0.8401 -0.8131
 9794TIP3   OH253576   5.314   5.143   4.264 -0.1197 -0.3411 -0.3927
 9794TIP3    H153577   5.369   5.137   4.341  1.1031 -2.1211 -1.3372
 9794TIP3    H253578   5.373   5.127   4.191 -1.7444 -1.5479 -1.5044
 9795TIP3   OH253579   2.973   4.976   3.576 -0.0889  0.3670  0.4010
 9795TIP3    H153580   2.932   5.027   3.505  2.0518  2.6699  0.6627
 9795TIP3    H253581   2.960   4.885   3.550 -0.6761  1.0904 -2.2139
 9796TIP3   OH253582   4.781   2.245   2.603  0.2926  0.0478  0.2252
 9796TIP3    H153583   4.699   2.218   2.562 -0.1192 -0.4035  1.3214
 9796TIP3    H253584   4.811   2.168   2.652  0.5081  0.7098  1.1690
 9797TIP3   OH253585   5.222   0.474   3.133  0.1523  0.5258  0.6437
 9797TIP3    H153586   5.248   0.536   3.201  0.0317  1.2844  0.0048
 9797TIP3    H253587   5.209   0.527   3.055 -0.6530 -0.2053  0.2623
 9798TIP3   OH253588   4.707   5.248   4.321  0.3949  0.3610  0.1591
 9798TIP3    H153589   4.704   5.171   4.263 -0.3704 -0.5069  1.2929
 9798TIP3    H253590   4.627   5.296   4.301 -0.0077 -0.0852  0.6726
 9799TIP3   OH253591   1.663   7.647   3.583  0.8037 -0.9265 -0.4572
 9799TIP3    H153592   1.739   7.629   3.527  0.8254 -0.5025 -0.5705
 9799TIP3    H253593   1.682   7.602   3.665  0.7816 -1.5447 -0.7840
 9800TIP3   OH253594   5.435   6.459   2.553 -0.3343  0.0027 -0.1467
 9800TIP3    H153595   5.415   6.385   2.610 -0.1892 -0.0961 -0.2250
 9800TIP3    H253596   5.350   6.481   2.514 -0.3422 -0.2462 -0.2725
 9801TIP3   OH253597   4.928   0.807   2.315  0.2098  0.1422 -0.5014
 9801TIP3    H153598   4.862   0.875   2.331  2.1636  1.9904  0.1020
 9801TIP3    H253599   4.990   0.817   2.387  1.2627 -1.4336 -1.1452
 9802TIP3   OH253600   6.624   2.929   2.308  0.1127  0.2020 -0.6186
 9802TIP3    H153601   6.630   3.016   2.268  1.0069  0.5568  0.2370
 9802TIP3    H253602   6.530   2.911   2.314 -0.1483  1.7080  0.4145
 9803TIP3   OH253603   4.479   4.274   4.220  0.5609  0.0904  0.4535
 9803TIP3    H153604   4.402   4.299   4.272  1.1711 -0.3543  1.6089
 9803TIP3    H253605   4.446   4.265   4.131 -0.7188 -0.0520  0.9241
 9804TIP3   OH253606   0.941   2.140   2.857 -0.0391  0.2364 -0.2930
 9804TIP3    H153607   0.910   2.201   2.791 -2.3430  1.3895  1.7147
 9804TIP3    H253608   0.877   2.069   2.856 -1.7753  1.5951  2.4315
 9805TIP3   OH253609   1.727   4.398   2.540  0.0205  0.0111  0.6518
 9805TIP3    H153610   1.784   4.448   2.598 -0.7542 -0.0173  1.4452
 9805TIP3    H253611   1.660   4.362   2.597 -0.6646 -0.1586 -0.2411
 9806TIP3   OH253612   5.810   6.411   3.454 -0.4947  0.4668  0.1959
 9806TIP3    H153613   5.857   6.331   3.477  0.5328  0.4694 -1.7191
 9806TIP3    H253614   5.809   6.412   3.359 -0.2575  2.8579  0.1652
 9807TIP3   OH253615   3.613   7.259   4.665  0.6031 -0.0306 -0.3881
 9807TIP3    H153616   3.680   7.260   4.733 -1.3132 -0.9075  1.6656
 9807TIP3    H253617   3.551   7.327   4.692  1.0989  1.5123 -2.8121
 9808TIP3   OH253618   5.532   1.415   2.580  0.1478  0.2083  0.1837
 9808TIP3    H153619   5.558   1.339   2.632  0.2874  0.5305  0.5898
 9808TIP3    H253620   5.528   1.487   2.643  0.4337  0.6300 -0.2755
 9809TIP3   OH253621   5.988   7.189   2.117  0.4566  0.2854  0.2106
 9809TIP3    H153622   5.936   7.261   2.152  1.2846  0.8697  0.2425
 9809TIP3    H253623   5.928   7.145   2.056 -0.4333  0.2833  1.0519
 9810TIP3   OH253624   5.951   6.956   4.640 -0.0401  0.4561 -0.2199
 9810TIP3    H153625   5.991   6.910   4.566  0.8404 -0.0525  0.5456
 9810TIP3    H253626   5.984   6.910   4.717 -1.3589  0.6378  0.4824
 9811TIP3   OH253627   0.308   2.798   3.080 -0.1995  0.2098  0.1977
 9811TIP3    H153628   0.313   2.710   3.117 -1.5984 -0.2348 -0.5873
 9811TIP3    H253629   0.370   2.797   3.007 -0.3646 -0.1926  0.0609
 9812TIP3   OH253630   3.040   1.429   4.579 -0.0816  0.1225  0.1901
 9812TIP3    H153631   2.946   1.441   4.591 -0.8121 -1.6958 -2.7691
 9812TIP3    H253632   3.074   1.411   4.667 -2.1450  2.4703  1.5839
 9813TIP3   OH253633   2.361   5.366   4.514 -0.4581  0.7149  0.3466
 9813TIP3    H153634   2.455   5.348   4.510 -0.6826 -0.4778 -0.0508
 9813TIP3    H253635   2.322   5.282   4.537 -1.5687  0.7707 -1.2432
 9814TIP3   OH253636   4.635   6.774   2.750 -0.3163  0.3446 -0.7299
 9814TIP3    H153637   4.539   6.777   2.751 -0.4058 -0.8032 -2.4812
 9814TIP3    H253638   4.661   6.855   2.794 -2.0374 -0.5340  2.2830
 9815TIP3   OH253639   6.738   0.351   4.549  0.6525  0.0627  0.0206
 9815TIP3    H153640   6.720   0.442   4.572  1.9755 -0.0126  1.5728
 9815TIP3    H253641   6.815   0.328   4.602  1.1215 -1.5739 -1.2805
 9816TIP3   OH253642   0.314   7.280   3.534  0.3039  0.0760  0.1207
 9816TIP3    H153643   0.310   7.258   3.441 -3.0684  0.2748  0.1040
 9816TIP3    H253644   0.299   7.196   3.578 -0.3840  0.3470  0.4078
 9817TIP3   OH253645   5.148   2.543   3.759 -0.3541  0.7652 -0.3438
 9817TIP3    H153646   5.147   2.634   3.727 -1.3083  0.5693 -0.8852
 9817TIP3    H253647   5.059   2.527   3.791 -0.3031 -0.1152 -0.6220
 9818TIP3   OH253648   5.410   2.921   3.472  0.2851  0.7316 -0.4410
 9818TIP3    H153649   5.493   2.877   3.454  0.0833  0.8781 -1.8833
 9818TIP3    H253650   5.418   3.006   3.429 -0.4315  0.9441 -0.1802
 9819TIP3   OH253651   7.589   0.642   4.647 -0.0380  0.4494  0.9451
 9819TIP3    H153652   7.507   0.620   4.692  0.1447  0.2595  1.1900
 9819TIP3    H253653   7.645   0.566   4.661  0.4928  0.9298  1.5281
 9820TIP3   OH253654   7.412   2.505   3.957 -0.4885 -0.9942 -0.8245
 9820TIP3    H153655   7.345   2.445   3.990 -0.1357 -1.9908 -1.8143
 9820TIP3    H253656   7.444   2.462   3.877  1.1989 -0.4535 -0.4709
 9821TIP3   OH253657   1.146   7.010   4.282  0.7248  0.1274 -0.0831
 9821TIP3    H153658   1.053   6.998   4.263  1.1523 -1.3530 -1.6083
 9821TIP3    H253659   1.187   7.013   4.195  2.2376 -0.8021  0.5584
 9822TIP3   OH253660   1.721   2.602   3.402 -0.2725 -0.3259  0.1843
 9822TIP3    H153661   1.689   2.691   3.418  1.3443  0.7611 -2.0940
 9822TIP3    H253662   1.815   2.607   3.418  0.0139 -1.3186 -1.0506
 9823TIP3   OH253663   4.737   4.144   3.707  0.0827 -0.7391 -0.3269
 9823TIP3    H153664   4.681   4.069   3.687 -0.3607 -0.8928  1.3618
 9823TIP3    H253665   4.812   4.107   3.753 -0.6820 -0.0934  1.5531
 9824TIP3   OH253666   0.859   3.418   4.069  0.2934  0.3816 -0.1162
 9824TIP3    H153667   0.887   3.488   4.129  2.2473 -0.6943  0.3204
 9824TIP3    H253668   0.931   3.409   4.007 -0.8852  0.1889 -1.5112
 9825TIP3   OH253669   5.054   5.128   2.414 -0.5015  0.2373 -0.6445
 9825TIP3    H153670   5.129   5.093   2.365  0.8644  1.5640  0.3943
 9825TIP3    H253671   5.077   5.118   2.506 -1.5710  0.7465 -0.2958
 9826TIP3   OH253672   0.663   1.107   3.488 -0.7121  0.1558  0.4702
 9826TIP3    H153673   0.684   1.018   3.462  0.1705  0.4082  0.2787
 9826TIP3    H253674   0.746   1.155   3.480 -0.6814  0.5454  2.4840
 9827TIP3   OH253675   2.386   2.303   3.585 -0.2948  0.2167  0.0275
 9827TIP3    H153676   2.429   2.246   3.522 -1.5277 -0.5242 -0.1655
 9827TIP3    H253677   2.434   2.386   3.579  2.1115 -1.0146  0.9450
 9828TIP3   OH253678   2.536   4.267   3.019 -0.3902  0.2746  0.8542
 9828TIP3    H153679   2.503   4.324   2.949 -0.3006  0.9522  1.3581
 9828TIP3    H253680   2.460   4.250   3.074 -0.6930 -1.0566  0.0825
 9829TIP3   OH253681   5.143   0.116   2.235 -0.9090 -0.0260 -0.0388
 9829TIP3    H153682   5.110   0.129   2.145 -1.5333 -0.0648  0.1759
 9829TIP3    H253683   5.193   0.196   2.254 -1.5718  0.4136 -0.0857
 9830TIP3   OH253684   3.405   0.249   2.677  0.1886 -0.6655 -0.2724
 9830TIP3    H153685   3.486   0.198   2.664  1.0326  0.6353 -0.3432
 9830TIP3    H253686   3.376   0.271   2.589  0.6345  0.1651 -0.2250
 9831TIP3   OH253687   3.960   3.694   2.261 -0.3461  0.0304 -0.1885
 9831TIP3    H153688   3.882   3.727   2.307 -0.9872 -1.3252 -0.2527
 9831TIP3    H253689   4.033   3.739   2.303 -1.1327  1.0351  0.1440
 9832TIP3   OH253690   6.492   2.791   4.743  0.7135  0.6073 -0.0540
 9832TIP3    H153691   6.490   2.728   4.670  2.5682  1.8241 -1.2352
 9832TIP3    H253692   6.427   2.758   4.804 -0.1283 -1.0962 -1.7514
 9833TIP3   OH253693   3.682   0.548   3.053  0.5795  0.4020  0.1733
 9833TIP3    H153694   3.660   0.524   2.963 -0.3349 -1.5706  0.8668
 9833TIP3    H253695   3.677   0.644   3.054 -0.8567  0.4040 -1.5201
 9834TIP3   OH253696   5.183   5.079   3.631  0.2771  0.0308  0.0944
 9834TIP3    H153697   5.222   5.012   3.574  1.2381  0.9244 -0.3201
 9834TIP3    H253698   5.195   5.161   3.584 -2.4470  0.3499 -0.2270
 9835TIP3   OH253699   7.657   2.764   3.287 -0.3756 -0.1347  0.1235
 9835TIP3    H153700   7.727   2.729   3.342 -1.5975 -3.5728 -0.2307
 9835TIP3    H253701   7.593   2.800   3.348 -0.2218 -0.9227  0.7647
 9836TIP3   OH253702   4.851   7.485   2.206 -0.2746 -0.1096 -0.6980
 9836TIP3    H153703   4.798   7.476   2.285  1.1710  0.3303  0.3708
 9836TIP3    H253704   4.822   7.567   2.167 -1.6282 -0.7743 -1.1501
 9837TIP3   OH253705   2.627   0.302   3.574 -0.0667  0.5453  0.5834
 9837TIP3    H153706   2.655   0.285   3.664 -0.3882  2.1054  1.0010
 9837TIP3    H253707   2.707   0.296   3.522 -0.0323 -1.4081  0.7716
 9838TIP3   OH253708   7.050   2.699   3.901 -0.3286  0.7851 -0.1722
 9838TIP3    H153709   7.015   2.694   3.990  0.4846  2.8275  0.3110
 9838TIP3    H253710   7.058   2.607   3.874 -2.6607  0.1480  0.9875
 9839TIP3   OH253711   7.273   1.496   3.205  0.6479 -0.1878  0.0295
 9839TIP3    H153712   7.232   1.432   3.147 -2.0448  0.4888  1.0231
 9839TIP3    H253713   7.320   1.444   3.270  1.1983 -1.0207 -1.0136
 9840TIP3   OH253714   1.435   7.376   4.350 -0.1824 -0.0434  0.5857
 9840TIP3    H153715   1.346   7.383   4.384 -0.3836 -0.3346  0.1209
 9840TIP3    H253716   1.431   7.417   4.263 -0.6351 -2.8126 -0.8264
 9841TIP3   OH253717   2.730   4.184   3.683  0.3430 -0.3092 -0.2051
 9841TIP3    H153718   2.812   4.198   3.636  0.9591  1.2663  1.2442
 9841TIP3    H253719   2.668   4.156   3.615  1.6567  0.0475 -1.6020
 9842TIP3   OH253720   5.070   3.423   2.946 -0.0828 -0.3704 -0.0604
 9842TIP3    H153721   5.115   3.343   2.972  0.3274  0.2564  1.2857
 9842TIP3    H253722   5.129   3.464   2.882  0.0264 -0.7983 -0.2378
 9843TIP3   OH253723   0.476   4.778   2.438  0.3628 -0.3444  0.5235
 9843TIP3    H153724   0.438   4.856   2.479 -0.6954 -0.5973  0.0725
 9843TIP3    H253725   0.535   4.812   2.371 -2.8305  0.2379 -2.2985
 9844TIP3   OH253726   5.388   0.712   3.932 -0.0833 -0.3319  0.7896
 9844TIP3    H153727   5.429   0.642   3.984  1.8495 -0.4997 -0.8432
 9844TIP3    H253728   5.336   0.666   3.867  1.8530 -0.3771 -0.8204
 9845TIP3   OH253729   6.869   1.252   3.660  0.5998 -0.1850 -0.2223
 9845TIP3    H153730   6.853   1.344   3.641 -2.2206 -0.4100  0.6771
 9845TIP3    H253731   6.917   1.253   3.744 -1.9472  0.4953  1.3242
 9846TIP3   OH253732   6.016   1.103   2.808 -0.3426 -0.1672  0.3855
 9846TIP3    H153733   6.062   1.106   2.724  0.0951 -1.2871  0.5638
 9846TIP3    H253734   6.068   1.159   2.865  1.3395 -1.9891  0.7953
 9847TIP3   OH253735   5.052   3.174   3.910 -0.4596 -0.1056  0.1091
 9847TIP3    H153736   5.103   3.217   3.842  1.9981 -1.7903  0.7511
 9847TIP3    H253737   5.088   3.206   3.993 -0.4507 -1.2569  0.5829
 9848TIP3   OH253738   2.497   6.961   4.266 -0.3783 -0.3060  0.7688
 9848TIP3    H153739   2.533   6.905   4.198 -1.4090  0.3571 -0.3533
 9848TIP3    H253740   2.402   6.946   4.263 -0.7877  2.0338 -0.1180
 9849TIP3   OH253741   7.573   1.183   4.018  0.0710  0.2704  0.5065
 9849TIP3    H153742   7.599   1.229   4.098 -0.0822 -0.6050  1.0789
 9849TIP3    H253743   7.633   1.216   3.951  0.4233  0.7743  1.0541
 9850TIP3   OH253744   5.032   6.593   2.790 -0.1161 -0.4469  0.3647
 9850TIP3    H153745   4.966   6.641   2.841  1.8127  0.7512  1.8870
 9850TIP3    H253746   5.006   6.501   2.797 -1.9989  0.0463  0.2838
 9851TIP3   OH253747   5.620   6.533   5.377  0.2803 -0.2990 -0.2043
 9851TIP3    H153748   5.635   6.441   5.353  1.8706  0.1901 -1.2840
 9851TIP3    H253749   5.707   6.574   5.368 -0.5043  1.4249 -0.3123
 9852TIP3   OH253750   0.781   5.141   2.447  0.3970  1.0326  0.5927
 9852TIP3    H153751   0.712   5.113   2.507 -1.8985  1.1810 -1.8065
 9852TIP3    H253752   0.747   5.219   2.405  2.4336  1.6238 -0.0855
 9853TIP3   OH253753   2.215   0.651   3.453 -0.3387  0.0441  0.6144
 9853TIP3    H153754   2.274   0.582   3.481  0.5191  0.2242 -0.6301
 9853TIP3    H253755   2.257   0.688   3.375 -2.1619  0.0848 -0.4018
 9854TIP3   OH253756   4.562   0.407   2.134  0.3253  0.7165  0.2015
 9854TIP3    H153757   4.589   0.368   2.217 -0.9858  1.2969  0.9294
 9854TIP3    H253758   4.485   0.357   2.108  0.1421  1.1785 -0.1523
 9855TIP3   OH253759   1.816   0.698   3.708 -0.0148  0.1908  0.4161
 9855TIP3    H153760   1.787   0.745   3.786  3.1210  3.7607 -0.2626
 9855TIP3    H253761   1.749   0.715   3.642 -1.2322 -0.3496  1.4920
 9856TIP3   OH253762   6.349   5.661   3.142 -0.3170 -0.0847 -0.3527
 9856TIP3    H153763   6.441   5.664   3.169  0.0124  0.5305 -1.4936
 9856TIP3    H253764   6.326   5.568   3.145  0.6888 -0.3801 -1.1643
 9857TIP3   OH253765   4.916   7.405   2.813  0.6010 -0.4776 -0.5626
 9857TIP3    H153766   4.963   7.358   2.744 -1.7472  0.3059 -2.8578
 9857TIP3    H253767   4.970   7.482   2.831  1.8742 -1.3394 -0.5901
 9858TIP3   OH253768   2.393   0.044   3.504  0.4083  0.5045 -1.1194
 9858TIP3    H153769   2.456   0.005   3.444  1.9508  1.2937 -0.0874
 9858TIP3    H253770   2.315  -0.009   3.495  1.4510 -0.9572 -1.9354
 9859TIP3   OH253771   6.928   6.994   2.915 -0.0227 -0.4892  0.0294
 9859TIP3    H153772   6.877   6.929   2.867  0.6020 -0.8341 -0.1747
 9859TIP3    H253773   6.862   7.049   2.959 -0.5520 -1.3192  0.2862
 9860TIP3   OH253774   2.014   2.281   4.968 -0.1317  0.1231 -0.5402
 9860TIP3    H153775   2.043   2.219   5.036 -0.1638 -0.7270 -1.2788
 9860TIP3    H253776   1.950   2.231   4.917  1.9912 -0.2949 -2.9885
 9861TIP3   OH253777   5.309   2.909   2.916 -0.0162  0.0627  0.0899
 9861TIP3    H153778   5.291   2.816   2.930  0.5581 -0.0971 -0.2211
 9861TIP3    H253779   5.380   2.929   2.977 -1.0831  0.6423  1.1693
 9862TIP3   OH253780   3.385   5.353   3.766  0.1667  0.0087 -0.8174
 9862TIP3    H153781   3.418   5.365   3.855  1.8119 -0.2132 -1.3690
 9862TIP3    H253782   3.405   5.435   3.722  0.8743 -0.4790 -1.4265
 9863TIP3   OH253783   0.944   1.121   3.372 -0.1598 -0.3406  0.0945
 9863TIP3    H153784   0.964   1.202   3.324 -0.7130  0.1090  0.6102
 9863TIP3    H253785   0.886   1.072   3.314  0.1964 -0.3853 -0.2283
 9864TIP3   OH253786   4.965   4.043   3.843  0.0812  0.2175 -0.6607
 9864TIP3    H153787   5.049   4.088   3.844 -0.4554  1.2645 -0.1727
 9864TIP3    H253788   4.983   3.956   3.807  1.9108 -0.6337  2.0111
 9865TIP3   OH253789   1.097   1.308   3.200 -0.0524  0.0206 -0.4729
 9865TIP3    H153790   1.096   1.401   3.221 -0.2898 -0.0988  0.0691
 9865TIP3    H253791   1.026   1.297   3.137 -1.1019 -0.0591  0.6899
 9866TIP3   OH253792   2.956   4.699   3.451 -0.1523  0.5503  0.1618
 9866TIP3    H153793   3.050   4.684   3.436 -0.4310 -0.2903 -0.8551
 9866TIP3    H253794   2.925   4.742   3.371 -0.8510 -0.1774  0.0319
 9867TIP3   OH253795   7.419   2.554   3.030  0.2858 -0.5405  0.1480
 9867TIP3    H153796   7.447   2.539   3.121 -1.4767 -0.1221  0.8037
 9867TIP3    H253797   7.489   2.517   2.977  2.0925  0.5335  1.6607
 9868TIP3   OH253798   3.964   3.262   4.846  0.0536 -0.1477 -0.2299
 9868TIP3    H153799   3.944   3.230   4.934 -0.8778  1.1517  0.0502
 9868TIP3    H253800   3.882   3.302   4.816  0.9887  1.4052 -0.8025
 9869TIP3   OH253801   7.387   0.476   2.768  0.3912 -0.3219  0.3384
 9869TIP3    H153802   7.386   0.571   2.776  1.5988 -0.3354  1.0045
 9869TIP3    H253803   7.389   0.459   2.674 -0.6355  0.2747  0.1951
 9870TIP3   OH253804   7.197   4.707   3.337  0.4404  0.2962  0.2722
 9870TIP3    H153805   7.274   4.762   3.324  1.0618 -0.5539  0.3247
 9870TIP3    H253806   7.225   4.639   3.398 -0.4558  0.1848  0.5792
 9871TIP3   OH253807   5.012   5.085   3.297 -0.2645  0.3807  0.0523
 9871TIP3    H153808   4.966   5.168   3.304  1.0082  1.0438  1.0339
 9871TIP3    H253809   4.992   5.054   3.209 -1.8144  1.0689  0.1369
 9872TIP3   OH253810   1.688   7.106   2.993  0.3248 -0.0685  0.6506
 9872TIP3    H153811   1.723   7.183   3.039  0.3451 -0.9072  2.0853
 9872TIP3    H253812   1.693   7.130   2.900  1.9001  1.0023  0.9736
 9873TIP3   OH253813   1.765   6.958   2.334 -0.0446  0.1708 -0.3574
 9873TIP3    H153814   1.835   6.901   2.366 -1.3454 -0.9123  0.7211
 9873TIP3    H253815   1.780   6.965   2.240 -0.1069 -2.4733 -0.6588
 9874TIP3   OH253816   5.432   7.203   3.566 -0.5199  0.4048 -0.0642
 9874TIP3    H153817   5.401   7.152   3.492  1.5330  0.0161 -0.7347
 9874TIP3    H253818   5.353   7.235   3.609 -1.8207 -1.3826 -0.9961
 9875TIP3   OH253819   3.797   1.493   4.589 -0.2429 -0.3768 -0.7275
 9875TIP3    H153820   3.882   1.450   4.589  0.3039  0.6173 -1.9653
 9875TIP3    H253821   3.777   1.510   4.681  0.9673 -0.4994 -0.4331
 9876TIP3   OH253822   3.133   0.115   2.491  0.6211 -0.0034 -0.5700
 9876TIP3    H153823   3.121   0.057   2.566  0.2934  1.7171  0.7609
 9876TIP3    H253824   3.051   0.107   2.442  0.0387  0.3090  0.3264
 9877TIP3   OH253825   7.377   2.534   3.334  0.0746 -0.3316  0.1449
 9877TIP3    H153826   7.430   2.548   3.412 -0.3626 -2.4060  0.8731
 9877TIP3    H253827   7.353   2.442   3.337 -2.1571  0.1220 -1.0443
 9878TIP3   OH253828   0.243   3.325   4.368 -0.3659 -0.4041  0.6629
 9878TIP3    H153829   0.182   3.395   4.393  0.4745 -0.2210  2.3314
 9878TIP3    H253830   0.297   3.312   4.446  0.4713 -1.8916 -0.1361
 9879TIP3   OH253831   3.871   6.383   2.804  0.1505  0.1454  0.0981
 9879TIP3    H153832   3.944   6.321   2.799 -0.2045 -0.2758  0.0047
 9879TIP3    H253833   3.802   6.342   2.751 -0.3672  0.2381  0.6844
 9880TIP3   OH253834   5.724   6.505   3.697 -0.4896  0.7254  0.7027
 9880TIP3    H153835   5.773   6.584   3.718  0.2536  0.3606  0.3911
 9880TIP3    H253836   5.760   6.476   3.613  0.0954 -0.5877  1.3704
 9881TIP3   OH253837   2.053   7.378   4.878  0.5247  0.4931 -0.2484
 9881TIP3    H153838   1.970   7.410   4.844  0.6853 -0.8077 -1.9919
 9881TIP3    H253839   2.110   7.455   4.877 -0.1625  1.0125 -0.6903
 9882TIP3   OH253840   2.978   4.152   3.546  0.1453 -0.4544 -0.0789
 9882TIP3    H153841   2.999   4.245   3.545  1.6369 -0.7475  0.3613
 9882TIP3    H253842   3.064   4.109   3.548 -0.5133 -1.8385 -0.4537
 9883TIP3   OH253843   4.192   0.582   2.749  0.0648 -0.4449  0.1862
 9883TIP3    H153844   4.186   0.668   2.707  0.7161 -0.3248  0.3352
 9883TIP3    H253845   4.105   0.568   2.786 -0.3830 -0.3467 -0.7874
 9884TIP3   OH253846   7.488   6.154   4.628 -0.0723  0.3435 -0.2186
 9884TIP3    H153847   7.490   6.059   4.636 -0.5115  0.1353 -2.0845
 9884TIP3    H253848   7.573   6.183   4.661 -1.3790 -0.2351  4.3351
 9885TIP3   OH253849   0.984   2.480   2.970  0.2878  0.1923  0.1850
 9885TIP3    H153850   1.054   2.428   2.930  0.3574 -1.3061  2.1198
 9885TIP3    H253851   0.918   2.487   2.901  0.6560 -1.7825 -0.4357
 9886TIP3   OH253852   4.246   0.600   4.147 -0.1115 -0.1831  0.2726
 9886TIP3    H153853   4.229   0.645   4.064  0.5706 -0.9256 -0.2852
 9886TIP3    H253854   4.318   0.540   4.128 -0.1837 -0.6287  1.3140
 9887TIP3   OH253855   5.485   5.734   2.081 -0.4597 -0.5207  0.3638
 9887TIP3    H153856   5.501   5.828   2.085  2.0918 -0.9302  1.6671
 9887TIP3    H253857   5.482   5.714   1.987  1.5494  0.5308  0.0108
 9888TIP3   OH253858   3.696   4.023   4.353  0.4560 -0.3752 -0.7437
 9888TIP3    H153859   3.751   4.091   4.392  0.5895  0.1746 -1.8610
 9888TIP3    H253860   3.692   3.955   4.420 -0.1762  0.9702  0.6473
 9889TIP3   OH253861   0.131   7.504   3.451 -0.7143 -0.3610  0.0512
 9889TIP3    H153862   0.098   7.415   3.467 -1.4740  0.0005  0.5717
 9889TIP3    H253863   0.218   7.491   3.414  0.9984 -1.3551  3.8453
 9890TIP3   OH253864   3.855   2.133   2.351 -0.0394 -0.2103 -0.3198
 9890TIP3    H153865   3.827   2.107   2.263  4.1355 -2.7783 -1.1954
 9890TIP3    H253866   3.934   2.184   2.336 -1.0213  2.1877  1.9848
 9891TIP3   OH253867   2.172   0.738   4.970 -0.4340 -0.2509  0.3455
 9891TIP3    H153868   2.266   0.753   4.984 -1.0330  2.0724  2.9022
 9891TIP3    H253869   2.144   0.811   4.915 -0.4948 -1.9964 -2.0617
 9892TIP3   OH253870   1.978   5.830   3.571  0.1571  0.2261  0.2576
 9892TIP3    H153871   2.024   5.796   3.647  1.3649 -1.0331 -0.9749
 9892TIP3    H253872   1.911   5.764   3.553  1.6768 -0.9685 -1.3726
 9893TIP3   OH253873   6.675   6.623   3.205  0.6494  0.4905  0.0765
 9893TIP3    H153874   6.696   6.533   3.180 -0.2513  0.3165 -0.0816
 9893TIP3    H253875   6.659   6.668   3.122  1.8889  1.0225  0.0961
 9894TIP3   OH253876   2.284   3.313   2.072  0.0646  0.0347  0.3706
 9894TIP3    H153877   2.250   3.400   2.049  0.4788 -0.4889 -2.7267
 9894TIP3    H253878   2.217   3.252   2.041  0.7439 -0.8070  0.5360
 9895TIP3   OH253879   4.085   2.267   4.680  0.1669 -0.0660 -0.2059
 9895TIP3    H153880   4.001   2.239   4.642 -0.0782 -0.3392  0.5242
 9895TIP3    H253881   4.142   2.191   4.671  0.3262  0.0975 -0.6397
 9896TIP3   OH253882   1.752   4.967   2.353  0.2852 -0.2042  0.4253
 9896TIP3    H153883   1.773   4.901   2.419  0.8023 -0.2112  0.2619
 9896TIP3    H253884   1.785   4.929   2.271 -0.0386 -0.0456  0.2228
 9897TIP3   OH253885   5.536   6.790   4.025 -0.0480 -0.0313  0.5646
 9897TIP3    H153886   5.464   6.832   4.072 -1.1812  0.3562 -1.4015
 9897TIP3    H253887   5.499   6.767   3.940  1.4546 -2.1567  0.4098
 9898TIP3   OH253888   4.260   0.620   2.176  0.1578  0.0470  0.2560
 9898TIP3    H153889   4.303   0.573   2.248  0.9684  1.1051  0.4892
 9898TIP3    H253890   4.173   0.639   2.209 -0.4378 -1.8366 -0.0954
 9899TIP3   OH253891   3.062   5.261   2.417 -0.6491 -0.2942  0.1482
 9899TIP3    H153892   3.151   5.297   2.414 -0.3431 -1.0096  0.5110
 9899TIP3    H253893   3.061   5.196   2.346 -0.4995 -1.1263  0.8857
 9900TIP3   OH253894   4.738   0.343   3.523 -0.4279 -0.6047  0.4339
 9900TIP3    H153895   4.766   0.398   3.596 -0.7978 -1.1956  1.0333
 9900TIP3    H253896   4.714   0.405   3.454 -0.2119 -0.0354  0.8619
 9901TIP3   OH253897   3.235   6.838   4.088  0.0430  0.7162 -0.4557
 9901TIP3    H153898   3.171   6.891   4.040 -0.0512 -0.3079 -1.4933
 9901TIP3    H253899   3.285   6.793   4.021 -0.8344 -1.6389  0.3592
 9902TIP3   OH253900   7.231   0.402   4.901 -0.8307 -0.6589  0.4700
 9902TIP3    H153901   7.228   0.308   4.888  0.7239 -0.4994 -1.6124
 9902TIP3    H253902   7.314   0.418   4.946 -0.0228 -0.1746 -1.1120
 9903TIP3   OH253903   5.840   7.219   2.463 -0.0680  0.1326  0.3271
 9903TIP3    H153904   5.746   7.210   2.444  0.0820 -0.2717 -0.2605
 9903TIP3    H253905   5.874   7.129   2.458  0.2970  0.2372  0.8457
 9904TIP3   OH253906   2.685   7.067   4.950 -0.1516  0.0120  0.6993
 9904TIP3    H153907   2.611   7.091   4.893 -0.6743 -0.1357  1.3038
 9904TIP3    H253908   2.688   6.971   4.945  0.7674  0.0742 -0.2638
 9905TIP3   OH253909   1.870   4.807   2.888 -0.3279 -0.8526 -0.3090
 9905TIP3    H153910   1.778   4.784   2.896 -1.3295  2.7087  0.2040
 9905TIP3    H253911   1.903   4.804   2.978 -0.4046 -0.5893 -0.2700
 9906TIP3   OH253912   1.757   3.069   3.298 -0.8186  0.2012 -0.5949
 9906TIP3    H153913   1.737   2.990   3.247  2.3315  0.3608 -2.3211
 9906TIP3    H253914   1.748   3.141   3.235 -1.3947  0.9908  0.3578
 9907TIP3   OH253915   0.705   5.591   4.836 -0.3067  0.4414  0.7618
 9907TIP3    H153916   0.694   5.682   4.864 -1.2271  0.2197  1.1552
 9907TIP3    H253917   0.744   5.548   4.912 -1.0493  0.2482  1.0475
 9908TIP3   OH253918   3.771   3.881   2.318 -0.3653 -0.2110  0.4279
 9908TIP3    H153919   3.682   3.856   2.344 -1.2766  2.4075  0.1378
 9908TIP3    H253920   3.805   3.927   2.394  1.2019 -2.0438  0.9125
 9909TIP3   OH253921   7.375   3.901   3.216 -0.1100 -0.1237  0.0098
 9909TIP3    H153922   7.291   3.884   3.259  0.4112  2.8048  2.5628
 9909TIP3    H253923   7.362   3.985   3.171  1.2777  0.1301  0.0236
 9910TIP3   OH253924   5.923   7.234   3.486  0.8043  0.1055  0.6252
 9910TIP3    H153925   5.888   7.292   3.553  2.0361 -1.0842  2.3563
 9910TIP3    H253926   5.983   7.289   3.435  1.1299  0.6232  1.5484
 9911TIP3   OH253927   4.424   1.172   3.964  0.1737 -0.2895  0.9293
 9911TIP3    H153928   4.498   1.161   3.903 -2.3671  0.2913 -2.5677
 9911TIP3    H253929   4.386   1.084   3.971  0.5629 -0.3926  1.9418
 9912TIP3   OH253930   7.164   3.703   3.266 -0.0807 -0.0070 -0.0412
 9912TIP3    H153931   7.179   3.611   3.246  1.8097  0.3268 -0.4323
 9912TIP3    H253932   7.160   3.707   3.361  3.9344 -0.0843  0.2937
 9913TIP3   OH253933   3.701   5.886   3.157 -0.3972 -0.0580 -0.6774
 9913TIP3    H153934   3.684   5.820   3.090 -2.1161  0.1331 -0.4868
 9913TIP3    H253935   3.658   5.965   3.124 -0.7219  0.2048  0.3407
 9914TIP3   OH253936   1.988   6.152   3.648 -0.1258  0.4949  0.2406
 9914TIP3    H153937   1.911   6.133   3.593  1.1598  1.3846 -1.9805
 9914TIP3    H253938   1.978   6.093   3.723 -3.0542  0.6985  0.1397
 9915TIP3   OH253939   0.551   1.065   3.022  1.0406  0.6032  0.1627
 9915TIP3    H153940   0.547   0.994   2.957  3.3117 -0.1006  0.7031
 9915TIP3    H253941   0.581   1.141   2.972  2.8326  0.0509  0.3293
 9916TIP3   OH253942   1.605   1.875   4.533 -0.7254 -0.2476 -0.2973
 9916TIP3    H153943   1.633   1.794   4.574 -2.8004 -0.7428  0.2643
 9916TIP3    H253944   1.603   1.939   4.605 -1.7817 -0.4309 -0.1527
 9917TIP3   OH253945   7.519   1.028   2.708  0.1701 -0.1398  0.2431
 9917TIP3    H153946   7.448   1.058   2.651 -1.5262 -1.0293  1.8088
 9917TIP3    H253947   7.545   1.106   2.757 -1.0280 -0.1949  0.9895
 9918TIP3   OH253948   7.347   6.940   4.137  0.6994  0.5196  0.3733
 9918TIP3    H153949   7.317   6.987   4.060  1.0804  1.6686  0.9020
 9918TIP3    H253950   7.277   6.877   4.156 -1.2519  2.7864  1.2842
 9919TIP3   OH253951   1.873   1.855   2.690  0.0170 -0.0970  0.2633
 9919TIP3    H153952   1.916   1.854   2.604  1.0267 -1.4866  0.7356
 9919TIP3    H253953   1.875   1.946   2.717  2.7969 -0.0700  0.2576
 9920TIP3   OH253954   7.253   0.995   4.414 -0.0260  0.0910  0.5416
 9920TIP3    H153955   7.270   0.966   4.325  0.9365 -0.5823  0.9264
 9920TIP3    H253956   7.238   1.089   4.407 -0.4072 -0.0357 -0.3817
 9921TIP3   OH253957   1.868   6.316   3.000 -0.1197 -1.1652  1.0242
 9921TIP3    H153958   1.898   6.269   2.922  1.5273 -0.2983  1.0741
 9921TIP3    H253959   1.782   6.350   2.977  1.7348  2.2639 -1.9667
 9922TIP3   OH253960   6.550   0.339   2.420 -0.2882  0.2265 -0.7494
 9922TIP3    H153961   6.594   0.423   2.428  0.6138 -0.1982 -1.1458
 9922TIP3    H253962   6.580   0.288   2.495 -1.9538  0.7313  0.3098
 9923TIP3   OH253963   6.700   2.588   3.448  0.0458 -0.3136  0.2346
 9923TIP3    H153964   6.766   2.606   3.515 -0.4208  0.5909  0.4752
 9923TIP3    H253965   6.633   2.537   3.493 -1.1594  1.8202  1.0066
 9924TIP3   OH253966   0.273   3.512   2.716  0.5217  0.6576  0.3845
 9924TIP3    H153967   0.320   3.551   2.789  2.2132 -2.0606  0.8720
 9924TIP3    H253968   0.235   3.432   2.751 -0.3144  0.2899 -1.2514
 9925TIP3   OH253969   1.375   5.873   2.628 -0.2217 -0.0732 -0.0944
 9925TIP3    H153970   1.290   5.839   2.598  1.0471 -2.2507 -1.5074
 9925TIP3    H253971   1.427   5.883   2.548  1.2489  0.0017  0.8351
 9926TIP3   OH253972   3.588   5.248   3.109 -0.3441 -0.0270 -0.1794
 9926TIP3    H153973   3.658   5.197   3.066 -0.9129 -0.6066 -0.4336
 9926TIP3    H253974   3.564   5.314   3.045  0.7292  0.8920  0.3337
 9927TIP3   OH253975   2.554   6.764   3.914  0.2390 -0.1867  0.7962
 9927TIP3    H153976   2.509   6.711   3.979  0.2354  0.2346  1.1419
 9927TIP3    H253977   2.515   6.737   3.830  0.7127 -1.1981  0.8944
 9928TIP3   OH253978   3.088   7.255   3.578 -0.6422  0.4706  0.3737
 9928TIP3    H153979   3.069   7.325   3.516 -2.1711 -0.5464 -0.3735
 9928TIP3    H253980   3.091   7.299   3.663 -0.7656  1.5564 -0.1707
 9929TIP3   OH253981   7.498   7.034   3.673 -0.4049 -0.4822  0.0130
 9929TIP3    H153982   7.488   7.071   3.585 -1.2230 -0.1186  0.2519
 9929TIP3    H253983   7.570   6.972   3.664 -0.3629 -0.3246 -0.8778
 9930TIP3   OH253984   1.387   6.724   3.446  0.0007  0.0411  0.4936
 9930TIP3    H153985   1.334   6.735   3.524  0.5818  0.8912  0.7840
 9930TIP3    H253986   1.411   6.813   3.420  0.3092 -0.2633 -0.3052
 9931TIP3   OH253987   1.875   3.885   1.972 -0.6471  0.0499 -0.2542
 9931TIP3    H153988   1.893   3.795   1.944 -1.2477 -0.4660  0.9294
 9931TIP3    H253989   1.782   3.898   1.950 -0.1283  1.0411 -2.0576
 9932TIP3   OH253990   1.168   0.420   4.768  0.1549 -0.3028 -0.0730
 9932TIP3    H153991   1.219   0.501   4.778 -0.9700  0.3097  0.9818
 9932TIP3    H253992   1.201   0.363   4.837 -1.4531  0.6077  1.5446
 9933TIP3   OH253993   5.138   3.726   2.291 -0.0579  0.4354 -0.0852
 9933TIP3    H153994   5.070   3.788   2.268  0.3428  0.5768 -0.9423
 9933TIP3    H253995   5.218   3.761   2.250  0.7240  0.7347  1.6196
 9934TIP3   OH253996   4.172   5.703   4.195  0.9726  0.3663  0.1213
 9934TIP3    H153997   4.128   5.731   4.276 -1.1408 -0.0847 -0.8050
 9934TIP3    H253998   4.195   5.784   4.151 -0.4066  0.6592 -0.1063
 9935TIP3   OH253999   4.524   1.155   3.171  0.1523  0.5455 -0.3410
 9935TIP3    H154000   4.510   1.249   3.166 -0.0082  0.6045  0.9558
 9935TIP3    H254001   4.598   1.138   3.112 -0.8157  1.2329 -1.8261
 9936TIP3   OH254002   2.622   4.713   2.051  0.1105  0.2928  0.4070
 9936TIP3    H154003   2.633   4.806   2.072  0.7537  0.2772  0.1679
 9936TIP3    H254004   2.684   4.668   2.110  1.0401  0.1537 -0.6441
 9937TIP3   OH254005   1.547   2.864   4.190  0.1102 -0.2835  0.2154
 9937TIP3    H154006   1.498   2.786   4.165  0.1323 -0.1003 -0.4183
 9937TIP3    H254007   1.635   2.831   4.211 -0.1527 -0.5527  0.9239
 9938TIP3   OH254008   3.901   0.948   3.384  0.0444  0.1728 -0.1459
 9938TIP3    H154009   3.855   0.881   3.334 -0.0481 -0.5232  0.8374
 9938TIP3    H254010   3.956   0.898   3.446 -0.2500  0.9905  0.8002
 9939TIP3   OH254011   3.043   4.411   3.582 -0.4951  0.0205 -0.9696
 9939TIP3    H154012   3.068   4.454   3.500 -0.4074  1.4775 -0.2118
 9939TIP3    H254013   2.949   4.430   3.591 -0.3320  0.5364 -0.3488
 9940TIP3   OH254014   7.526   6.913   2.619  0.2951  0.2112 -0.7916
 9940TIP3    H154015   7.600   6.905   2.679 -0.1695  1.2425 -0.0583
 9940TIP3    H254016   7.529   7.003   2.588 -1.4286  0.6722  0.2947
 9941TIP3   OH254017   3.889   5.648   3.444  0.3410  0.2512  0.2826
 9941TIP3    H154018   3.983   5.639   3.463  0.0892  0.8399  2.0383
 9941TIP3    H254019   3.886   5.705   3.367  1.4473 -1.5678 -1.1853
 9942TIP3   OH254020   7.363   2.295   2.826 -0.3518  0.0089  0.1203
 9942TIP3    H154021   7.326   2.349   2.756 -1.4097 -0.1660  0.5255
 9942TIP3    H254022   7.373   2.354   2.900  0.0591  0.0157  0.0664
 9943TIP3   OH254023   4.846   5.170   4.573 -0.3096 -0.1695 -0.0876
 9943TIP3    H154024   4.872   5.178   4.482 -0.2958  1.9438  0.0420
 9943TIP3    H254025   4.831   5.077   4.587  0.6542 -0.6339 -1.9652
 9944TIP3   OH254026   7.189   5.662   3.440  0.3645 -0.0224 -0.0657
 9944TIP3    H154027   7.241   5.605   3.383  0.7511  1.8141 -1.6678
 9944TIP3    H254028   7.135   5.602   3.492  1.2874 -1.8436 -1.1177
 9945TIP3   OH254029   7.100   0.295   2.134  0.3473 -0.1124  0.3370
 9945TIP3    H154030   7.111   0.217   2.080  1.4495  0.9837 -1.1023
 9945TIP3    H254031   7.089   0.261   2.223 -0.4801 -1.9287 -0.4051
 9946TIP3   OH254032   4.598   3.006   2.981 -0.2862 -0.2454 -0.1273
 9946TIP3    H154033   4.591   3.008   2.886 -0.4262  2.2821 -0.1285
 9946TIP3    H254034   4.681   2.960   2.998  0.5889  0.7426 -1.5488
 9947TIP3   OH254035   3.270   2.772   2.826 -0.1391  0.8004  0.3253
 9947TIP3    H154036   3.320   2.697   2.860  0.9412  0.8353 -1.0886
 9947TIP3    H254037   3.319   2.849   2.856 -0.0844  0.8654  0.0791
 9948TIP3   OH254038   0.247   6.538   3.764 -0.2339 -0.0289  0.0467
 9948TIP3    H154039   0.179   6.580   3.712 -0.8935 -1.2857 -0.1539
 9948TIP3    H254040   0.328   6.582   3.737 -0.8977  1.2240  0.0055
 9949TIP3   OH254041   2.906   3.443   2.747 -0.2497 -0.2660 -0.4666
 9949TIP3    H154042   2.952   3.524   2.768 -0.3975 -0.3780  0.3381
 9949TIP3    H254043   2.967   3.374   2.770 -0.5604 -0.4007 -0.0221
 9950TIP3   OH254044   7.498   6.431   4.494  0.1840 -0.2127  0.5884
 9950TIP3    H154045   7.493   6.335   4.492  2.2714 -0.3825  0.8881
 9950TIP3    H254046   7.478   6.458   4.405 -2.7561 -0.6955  0.9877
 9951TIP3   OH254047   0.347   1.669   2.998 -0.1178  0.4567  0.0293
 9951TIP3    H154048   0.411   1.718   2.946 -0.7536  0.9609 -0.2946
 9951TIP3    H254049   0.312   1.604   2.937 -0.6011  0.8074 -0.0678
 9952TIP3   OH254050   5.426   3.302   2.374 -0.2737 -0.1063  0.1076
 9952TIP3    H154051   5.414   3.221   2.325 -0.0878 -0.6002  0.8722
 9952TIP3    H254052   5.358   3.360   2.339  0.2428 -0.2234 -1.1647
 9953TIP3   OH254053   0.708   4.141   2.247  0.0919  0.1351 -0.2086
 9953TIP3    H154054   0.639   4.169   2.187 -1.0213  1.3197  1.5299
 9953TIP3    H254055   0.665   4.079   2.306  0.6943  0.3533  0.4800
 9954TIP3   OH254056   6.343   1.758   4.579 -0.2602 -0.3828  0.1262
 9954TIP3    H154057   6.292   1.690   4.536  0.9298 -0.9930 -0.3681
 9954TIP3    H254058   6.314   1.755   4.671 -1.3104 -0.4976 -0.1933
 9955TIP3   OH254059   4.938   3.465   3.413  0.3029  0.1600 -0.2022
 9955TIP3    H154060   4.999   3.473   3.340 -0.3515  2.7105 -0.5836
 9955TIP3    H254061   4.852   3.459   3.372  0.0163  0.4971  0.3392
 9956TIP3   OH254062   3.166   1.669   4.036  1.0713 -0.1420  0.1630
 9956TIP3    H154063   3.166   1.668   3.940  1.0955  0.4507  0.1550
 9956TIP3    H254064   3.138   1.581   4.060 -2.0120  0.5846 -0.4013
 9957TIP3   OH254065   1.953   3.248   4.303  0.3594  0.2195  0.6386
 9957TIP3    H154066   1.999   3.168   4.279 -2.6528 -1.8293  1.0766
 9957TIP3    H254067   1.927   3.235   4.394 -0.3173  1.6031  0.6718
 9958TIP3   OH254068   6.769   3.940   3.631  0.3936  0.8364  0.1475
 9958TIP3    H154069   6.855   3.938   3.589 -0.1176 -0.6025 -0.8793
 9958TIP3    H254070   6.784   3.903   3.718  0.9235  1.1792  0.2066
 9959TIP3   OH254071   0.868   3.613   4.259 -0.9945 -1.1480  0.1148
 9959TIP3    H154072   0.851   3.669   4.335  2.4371 -0.5284  0.5626
 9959TIP3    H254073   0.821   3.656   4.187  0.8933  2.0694  0.5811
 9960TIP3   OH254074   3.713   3.567   3.035 -0.4751 -0.5914  0.0962
 9960TIP3    H154075   3.644   3.632   3.046 -1.2154 -1.3954  0.3744
 9960TIP3    H254076   3.784   3.613   2.990 -0.6595  0.6070  1.0031
 9961TIP3   OH254077   0.029   0.664   3.161  0.3724 -0.9522  0.0621
 9961TIP3    H154078  -0.032   0.727   3.122  1.2237 -0.6252 -0.7859
 9961TIP3    H254079  -0.005   0.648   3.249  0.3382  0.9963  0.4423
 9962TIP3   OH254080   7.296   0.184   3.344 -0.0410 -1.2434  0.2961
 9962TIP3    H154081   7.331   0.212   3.428 -1.2703  0.2284  0.3562
 9962TIP3    H254082   7.303   0.262   3.288  1.4077 -2.3899 -1.2040
 9963TIP3   OH254083   5.825   7.404   2.265  0.7275 -0.1482 -0.1535
 9963TIP3    H154084   5.731   7.420   2.254  0.5162 -1.0403  0.2895
 9963TIP3    H254085   5.833   7.365   2.351  1.3322 -1.4020 -0.7551
 9964TIP3   OH254086   0.484   4.690   2.885  0.0894 -0.1973  0.1297
 9964TIP3    H154087   0.551   4.741   2.930  0.2685  0.0545 -0.4213
 9964TIP3    H254088   0.403   4.740   2.898 -0.0779 -0.6907  1.1151
 9965TIP3   OH254089   4.831   3.493   4.414 -0.1621 -0.1148  0.3945
 9965TIP3    H154090   4.915   3.538   4.407  0.5773 -1.1462  1.8730
 9965TIP3    H254091   4.850   3.416   4.469 -1.7669 -1.1611 -0.4244
 9966TIP3   OH254092   1.876   1.146   4.104  0.1870  0.7659 -0.1718
 9966TIP3    H154093   1.963   1.170   4.074 -1.0056  3.3452 -1.8937
 9966TIP3    H254094   1.849   1.074   4.047  1.1086  0.0351  0.2988
 9967TIP3   OH254095   3.350   4.430   3.561  0.5316  0.2056 -0.1111
 9967TIP3    H154096   3.328   4.418   3.469  0.0363  1.8963 -0.2558
 9967TIP3    H254097   3.308   4.356   3.606 -1.0928  0.5344 -1.0078
 9968TIP3   OH254098   1.268   6.455   3.350  0.1698 -0.0355 -0.1552
 9968TIP3    H154099   1.237   6.543   3.373  0.9301  0.4969 -1.0807
 9968TIP3    H254100   1.234   6.399   3.419 -1.0973  0.8439 -0.0381
 9969TIP3   OH254101   6.863   2.487   3.256 -0.3764 -0.1125  0.7482
 9969TIP3    H154102   6.790   2.488   3.319 -0.7730  4.7578  0.6150
 9969TIP3    H254103   6.941   2.476   3.310 -0.9251  0.1643  1.6278
 9970TIP3   OH254104   4.123   1.421   2.191 -0.3452  0.0934  0.1200
 9970TIP3    H154105   4.170   1.504   2.187 -0.9964  0.5263  1.1263
 9970TIP3    H254106   4.049   1.438   2.249 -1.4030 -0.7502 -0.9179
 9971TIP3   OH254107   4.911   4.841   2.837  0.1386  0.3640 -0.5652
 9971TIP3    H154108   4.982   4.783   2.866 -1.3602 -0.3965  1.8340
 9971TIP3    H254109   4.848   4.782   2.795  0.2123  0.8076 -1.3045
 9972TIP3   OH254110   6.224   2.444   3.630 -0.0407 -0.4041 -0.6378
 9972TIP3    H154111   6.153   2.487   3.582 -0.9303  1.3517  2.0212
 9972TIP3    H254112   6.197   2.352   3.635  0.0430 -0.6555 -3.2591
 9973TIP3   OH254113   1.128   5.319   3.103  0.7199 -0.0142  0.2826
 9973TIP3    H154114   1.189   5.320   3.177  0.6994 -3.9992  0.5674
 9973TIP3    H254115   1.178   5.358   3.031  1.5975  1.7285  1.7520
 9974TIP3   OH254116   1.639   1.678   2.946  0.5724  0.3183  0.6818
 9974TIP3    H154117   1.595   1.611   2.998 -2.2472 -1.4592 -3.4410
 9974TIP3    H254118   1.725   1.641   2.926 -0.3719 -1.4655 -0.2728
 9975TIP3   OH254119   6.162   4.505   5.152  0.1130 -0.7291 -0.9086
 9975TIP3    H154120   6.164   4.561   5.075 -0.7764  0.4140 -0.1269
 9975TIP3    H254121   6.132   4.420   5.119  0.7228 -0.5564 -1.9689
 9976TIP3   OH254122   1.134   2.826   3.374  0.1216 -0.4074 -0.1251
 9976TIP3    H154123   1.130   2.734   3.349  0.2533 -0.8116  1.2566
 9976TIP3    H254124   1.054   2.864   3.337 -0.0515 -1.1257 -0.5087
 9977TIP3   OH254125   4.772   3.654   2.577 -0.5595 -0.2964 -0.3353
 9977TIP3    H154126   4.864   3.655   2.551 -0.3178  3.1453  0.1907
 9977TIP3    H254127   4.772   3.620   2.666  0.7291  2.5299  0.8568
 9978TIP3   OH254128   6.514   0.638   2.122 -0.3972 -0.3075  0.2233
 9978TIP3    H154129   6.485   0.571   2.184 -0.0290 -0.1901  0.5224
 9978TIP3    H254130   6.605   0.655   2.146 -0.3672  0.0103 -0.1121
 9979TIP3   OH254131   3.727   6.157   1.919  0.3205 -0.1118 -0.4997
 9979TIP3    H154132   3.822   6.149   1.912  0.5464  1.5817  0.0730
 9979TIP3    H254133   3.693   6.105   1.846  1.5495 -2.6824  0.6236
 9980TIP3   OH254134   5.744   0.533   3.576  0.0164 -0.0444  0.1148
 9980TIP3    H154135   5.714   0.614   3.618  1.0497  0.2416  0.3208
 9980TIP3    H254136   5.781   0.561   3.492  2.6959  0.0727  1.2362
 9981TIP3   OH254137   6.290   6.190   3.677 -0.3349 -0.6709  0.4916
 9981TIP3    H154138   6.376   6.167   3.713  0.2810  0.7177 -0.0463
 9981TIP3    H254139   6.300   6.180   3.582 -0.4637  0.4373  0.3536
 9982TIP3   OH254140   1.883   5.151   3.511  0.8364 -0.3959  0.3763
 9982TIP3    H154141   1.842   5.132   3.595 -1.4988  0.7423 -0.3978
 9982TIP3    H254142   1.953   5.213   3.532  0.7321 -0.6560  1.5478
 9983TIP3   OH254143   4.729   0.972   3.618  0.4675 -0.0991  0.0850
 9983TIP3    H154144   4.809   1.021   3.599  0.1654 -0.2305 -1.6521
 9983TIP3    H254145   4.759   0.882   3.631  0.6273 -0.1360 -0.4980
 9984TIP3   OH254146   3.887   1.985   4.139  0.2645  0.1256 -0.2806
 9984TIP3    H154147   3.880   1.941   4.054  2.4633 -3.4529  1.1958
 9984TIP3    H254148   3.835   1.932   4.198  1.0732  0.8987  1.1716
 9985TIP3   OH254149   4.656   5.380   4.587  0.8692  0.3087  0.3399
 9985TIP3    H154150   4.734   5.326   4.591 -0.4767 -1.7062  1.0419
 9985TIP3    H254151   4.623   5.370   4.498  0.5475 -0.1735  0.5078
 9986TIP3   OH254152   2.437   0.979   3.629  0.4801  0.2107 -0.5919
 9986TIP3    H154153   2.457   1.034   3.553  0.5119 -3.0010 -3.0801
 9986TIP3    H254154   2.347   0.949   3.614  1.4144 -2.6714 -0.9124
 9987TIP3   OH254155   3.493   5.558   2.695 -0.3334 -0.3840 -0.3103
 9987TIP3    H154156   3.464   5.630   2.750 -0.0987  0.1157 -0.8219
 9987TIP3    H254157   3.529   5.494   2.756  1.6403  0.9530  0.0204
 9988TIP3   OH254158   0.807   4.335   3.506  0.3127  0.0634 -0.2454
 9988TIP3    H154159   0.870   4.293   3.564  1.1519  0.7081 -0.6704
 9988TIP3    H254160   0.785   4.268   3.442  1.0340  0.0071 -0.4463
 9989TIP3   OH254161   2.540   1.078   3.172 -0.2103  0.6694 -0.0628
 9989TIP3    H154162   2.624   1.048   3.137 -0.2861  1.2289 -0.7656
 9989TIP3    H254163   2.541   1.173   3.157 -0.4593  0.8598  1.0438
 9990TIP3   OH254164   3.041   4.142   4.956  0.5167 -0.0945  0.1562
 9990TIP3    H154165   3.017   4.221   4.908 -0.2626  0.1008  0.8482
 9990TIP3    H254166   2.998   4.071   4.908 -0.4470  0.1239  0.6750
 9991TIP3   OH254167   5.799   2.524   2.966  0.0224  0.0363  0.8764
 9991TIP3    H154168   5.837   2.436   2.959  0.5502  0.3954 -1.6892
 9991TIP3    H254169   5.708   2.512   2.941 -0.3181  0.0199  2.0412
 9992TIP3   OH254170   2.182   0.121   4.052  0.0570 -0.3155  0.1459
 9992TIP3    H154171   2.239   0.079   3.988  0.2758  0.9681 -0.5292
 9992TIP3    H254172   2.128   0.180   4.000 -1.5411 -1.1045  0.8396
 9993TIP3   OH254173   6.206   2.862   4.208 -0.0972  0.4365  0.3762
 9993TIP3    H154174   6.278   2.924   4.199 -0.4239  0.7381 -0.2047
 9993TIP3    H254175   6.160   2.890   4.287  0.7917 -0.1531  1.1305
 9994TIP3   OH254176   6.941   0.659   4.548  0.0956 -0.2029 -0.5085
 9994TIP3    H154177   6.852   0.693   4.546 -0.3010 -1.2454 -1.1588
 9994TIP3    H254178   6.938   0.585   4.607  0.8884  0.6505  0.6556
 9995TIP3   OH254179   1.607   3.851   3.162  0.4232 -0.2861 -0.6331
 9995TIP3    H154180   1.591   3.853   3.067  0.1281  1.4013 -0.5851
 9995TIP3    H254181   1.529   3.808   3.198  0.7025 -1.2684 -1.1641
 9996TIP3   OH254182   2.342   3.283   2.730  0.6294  0.1418 -0.4083
 9996TIP3    H154183   2.432   3.309   2.753 -0.0838  3.0892 -0.5440
 9996TIP3    H254184   2.295   3.284   2.813  0.3894  0.2018 -0.5452
 9997TIP3   OH254185   5.590   7.029   4.441 -0.4972 -0.6850  0.0588
 9997TIP3    H154186   5.536   6.951   4.432 -1.8718  0.2555 -0.1561
 9997TIP3    H254187   5.539   7.099   4.401  0.6927  0.3400  0.2459
 9998TIP3   OH254188   4.721   0.701   3.110 -0.4632  0.3484  0.2219
 9998TIP3    H154189   4.785   0.666   3.048  0.3554  0.7498  0.8258
 9998TIP3    H254190   4.669   0.762   3.059  0.7646  1.3303  0.1049
 9999TIP3   OH254191   7.075   2.217   2.829 -0.5417 -0.1092 -0.1456
 9999TIP3    H154192   7.155   2.200   2.778  0.9358  0.5834  1.8087
 9999TIP3    H254193   7.004   2.180   2.776  0.8887  0.4658 -2.6152
10000TIP3   OH254194   4.203   0.113   4.775  0.0910 -0.2397  0.0234
10000TIP3    H154195   4.271   0.095   4.841  0.5300  1.1734 -0.0033
10000TIP3    H254196   4.121   0.114   4.825  0.2680 -0.3992  0.3268
10001TIP3   OH254197   6.519   5.465   2.926  0.0170  0.1845  0.2930
10001TIP3    H154198   6.518   5.406   2.851  1.2345 -0.0134  0.4031
10001TIP3    H254199   6.609   5.499   2.928  0.1166 -0.1166  1.8933
10002TIP3   OH254200   5.089   2.297   4.018 -0.2737 -0.1427  0.0550
10002TIP3    H154201   4.997   2.272   4.024 -1.1924  2.3829 -1.8553
10002TIP3    H254202   5.090   2.376   3.964  3.1702 -0.7910 -1.1187
10003TIP3   OH254203   2.749   0.927   3.047 -0.6209  0.8751 -0.0912
10003TIP3    H154204   2.697   0.847   3.037 -0.7198  0.9211  0.0377
10003TIP3    H254205   2.839   0.897   3.051 -0.7558  0.5988  1.6572
10004TIP3   OH254206   1.617   0.426   4.667  0.2908  0.1552 -0.5553
10004TIP3    H154207   1.577   0.500   4.712  0.2644 -1.0661  1.5787
10004TIP3    H254208   1.542   0.373   4.636  0.2136 -0.7220  1.0193
10005TIP3   OH254209   2.859   4.465   2.249 -0.0405  0.5944  0.1388
10005TIP3    H154210   2.795   4.515   2.299 -0.4050 -0.1596  0.4346
10005TIP3    H254211   2.809   4.423   2.180 -0.4979 -2.4713  2.1346
10006TIP3   OH254212   3.298   6.713   2.060 -0.0716 -0.2666 -0.4872
10006TIP3    H154213   3.362   6.743   2.125  0.0583 -0.4318 -0.5373
10006TIP3    H254214   3.332   6.628   2.031 -0.9317 -0.9053  0.3477
10007TIP3   OH254215   5.158   1.944   3.621  0.3681 -0.2239  0.7366
10007TIP3    H154216   5.083   1.893   3.651  1.1461 -2.6569 -1.1699
10007TIP3    H254217   5.233   1.886   3.632  1.0830 -0.2361 -2.9445
10008TIP3   OH254218   5.547   1.702   2.290 -0.0682  0.5361 -0.7338
10008TIP3    H154219   5.518   1.610   2.289  0.7690  0.2197  0.4718
10008TIP3    H254220   5.490   1.744   2.355  0.5170  0.4905 -0.1734
10009TIP3   OH254221   0.976   3.353   3.131 -0.0164 -0.0480  0.1255
10009TIP3    H154222   0.937   3.426   3.178 -0.0316 -0.6118  1.0180
10009TIP3    H254223   0.971   3.279   3.193  0.6966 -0.6088 -0.4638
10010TIP3   OH254224   0.692   1.202   4.083  0.0399 -0.2901 -0.3012
10010TIP3    H154225   0.680   1.135   4.015  1.1022 -0.8243  0.0224
10010TIP3    H254226   0.768   1.173   4.133 -0.7749  0.0518  1.1967
10011TIP3   OH254227   4.704   6.606   2.556 -0.0552 -0.6230 -0.2867
10011TIP3    H154228   4.653   6.623   2.477 -1.0366 -1.6002  0.1115
10011TIP3    H254229   4.661   6.657   2.625  0.2406 -0.4991 -0.1909
10012TIP3   OH254230   2.958   6.276   4.942  0.4824 -0.2837 -0.2594
10012TIP3    H154231   2.948   6.233   4.857  2.4591 -2.3664  0.4562
10012TIP3    H254232   3.044   6.248   4.973  0.2769  1.3076  1.9572
10013TIP3   OH254233   4.491   4.765   2.895  0.3913 -0.1167 -0.1856
10013TIP3    H154234   4.567   4.732   2.847  1.5712  0.5056  1.1647
10013TIP3    H254235   4.468   4.847   2.851  1.7218  0.6604  0.5151
10014TIP3   OH254236   1.146   5.991   2.341 -0.4834  0.7337 -0.4598
10014TIP3    H154237   1.126   5.913   2.391 -2.9220  0.5084 -1.6284
10014TIP3    H254238   1.234   5.977   2.308 -0.6356 -1.2303 -0.1259
10015TIP3   OH254239   1.322   5.046   2.405  0.1538 -0.3966 -0.4128
10015TIP3    H154240   1.240   5.041   2.455 -0.0300  0.9672 -0.5402
10015TIP3    H254241   1.297   5.029   2.315  0.0040  0.0057 -0.4493
10016TIP3   OH254242   5.136   5.237   3.073  0.1199 -0.0084  0.1052
10016TIP3    H154243   5.136   5.330   3.050  0.5132  0.0945  0.4977
10016TIP3    H254244   5.048   5.207   3.052 -0.4702  0.8013  1.3282
10017TIP3   OH254245   2.737   1.373   3.987  0.2093  0.5905  0.1231
10017TIP3    H154246   2.782   1.422   4.056  1.7187  0.3431 -0.6434
10017TIP3    H254247   2.797   1.302   3.966 -0.6182  0.1719 -0.8623
10018TIP3   OH254248   6.626   0.616   4.518 -0.1863 -0.2364  0.4060
10018TIP3    H154249   6.561   0.553   4.485  1.2730 -1.1992 -0.7358
10018TIP3    H254250   6.593   0.701   4.488 -0.9299 -0.6967 -0.1292
10019TIP3   OH254251   3.584   6.976   4.451 -0.3181  0.3037  0.0188
10019TIP3    H154252   3.530   6.959   4.373 -1.7129  2.4864  0.4281
10019TIP3    H254253   3.521   6.992   4.521  0.9182 -0.8562  1.4542
10020TIP3   OH254254   5.202   1.080   2.547  0.0880  0.4782 -0.3167
10020TIP3    H154255   5.258   1.134   2.603 -0.8027 -0.6544  1.7954
10020TIP3    H254256   5.171   1.140   2.479  1.5190  1.8258  0.1526
10021TIP3   OH254257   7.549   0.077   3.727 -0.1855 -0.0424  0.2731
10021TIP3    H154258   7.509   0.162   3.712 -1.3336 -0.9009 -2.0879
10021TIP3    H254259   7.621   0.073   3.664  0.1442 -0.6394  0.6790
10022TIP3   OH254260   2.575   4.641   4.595  0.5783  0.6794  0.0583
10022TIP3    H154261   2.543   4.619   4.508 -0.5085 -1.5359  0.9203
10022TIP3    H254262   2.498   4.628   4.652  1.9286 -0.6401  1.6747
10023TIP3   OH254263   6.368   7.533   3.712 -0.1610  0.9433  0.3311
10023TIP3    H154264   6.330   7.466   3.769  0.3026 -0.5213 -1.0210
10023TIP3    H254265   6.397   7.485   3.634  2.3652  2.3364  0.3101
10024TIP3   OH254266   3.781   2.262   4.432  0.0894  0.1476 -0.4283
10024TIP3    H154267   3.821   2.188   4.477  1.4030  0.6005 -0.7849
10024TIP3    H254268   3.856   2.313   4.399 -0.7928  1.1897 -0.8888
10025TIP3   OH254269   5.460   5.224   3.737 -0.1027 -0.0286  0.2001
10025TIP3    H154270   5.425   5.279   3.807  0.8476  0.1180  0.5640
10025TIP3    H254271   5.407   5.247   3.661 -1.7788 -0.8527  1.0498
10026TIP3   OH254272   6.356   5.821   2.564  0.1780  0.0697  0.2325
10026TIP3    H154273   6.367   5.912   2.536  1.5464 -0.3914 -0.8403
10026TIP3    H254274   6.442   5.781   2.551 -0.8654 -1.8905 -1.2879
10027TIP3   OH254275   1.862   2.076   5.415 -0.1345 -0.4946 -0.1235
10027TIP3    H154276   1.826   2.142   5.354 -0.6882 -0.3215  0.3810
10027TIP3    H254277   1.929   2.031   5.364 -1.1695 -0.9345 -1.1529
10028TIP3   OH254278   1.409   1.597   2.534 -0.4333  0.2605  0.5963
10028TIP3    H154279   1.408   1.632   2.445  0.3746 -0.3516  0.3419
10028TIP3    H254280   1.466   1.657   2.582 -1.4662  1.0377  0.9129
10029TIP3   OH254281   3.714   0.541   2.771 -0.3039 -0.1089 -0.1506
10029TIP3    H154282   3.790   0.484   2.781 -0.4276 -0.5073 -1.4058
10029TIP3    H254283   3.746   0.615   2.720  0.9511  3.1320  4.6176
10030TIP3   OH254284   0.549   3.385   2.305 -0.2549 -0.2483 -0.4600
10030TIP3    H154285   0.480   3.406   2.368 -0.1507 -1.6523  0.1678
10030TIP3    H254286   0.508   3.322   2.245  0.4048 -0.9567 -0.1875
10031TIP3   OH254287   4.371   5.158   4.079  0.1476  0.1116  0.0343
10031TIP3    H154288   4.451   5.179   4.030 -0.5814  2.3945 -0.3186
10031TIP3    H254289   4.370   5.221   4.150 -1.2874  0.0459  0.0930
10032TIP3   OH254290   4.172   0.476   5.192  0.5232  0.1129 -0.1556
10032TIP3    H154291   4.194   0.384   5.178  1.3687  0.2295  0.3094
10032TIP3    H254292   4.080   0.484   5.166  0.5331 -0.7951 -0.4789
10033TIP3   OH254293   3.600   4.396   3.306 -0.6221 -0.4605  0.7284
10033TIP3    H154294   3.588   4.396   3.211  0.0695 -1.5653  0.6176
10033TIP3    H254295   3.578   4.485   3.333  1.7164  0.6845 -0.8021
10034TIP3   OH254296   7.438   0.131   4.969  0.1422  0.7217  0.2714
10034TIP3    H154297   7.459   0.224   4.970 -0.0343  0.7974 -1.1865
10034TIP3    H254298   7.368   0.123   4.904  0.6764 -0.5232 -0.1760
10035TIP3   OH254299   2.978   3.241   3.461 -0.2229 -0.3415 -0.5863
10035TIP3    H154300   2.916   3.212   3.394 -0.2336  1.6394 -1.5238
10035TIP3    H254301   3.021   3.317   3.422 -0.2684  0.9442  1.7053
10036TIP3   OH254302   1.595   7.565   3.873  0.3561 -0.4010  0.0759
10036TIP3    H154303   1.632   7.649   3.846  0.4095 -0.5367 -0.2829
10036TIP3    H254304   1.508   7.587   3.906 -0.0310 -0.3123 -0.9463
10037TIP3   OH254305   0.218   7.657   3.651 -0.1212 -0.3283 -0.2807
10037TIP3    H154306   0.206   7.597   3.576 -1.8958  0.3426 -0.5952
10037TIP3    H254307   0.173   7.737   3.624  1.2809  0.7940  0.5802
10038TIP3   OH254308   0.558   7.336   3.167  0.1635  0.2322 -0.1374
10038TIP3    H154309   0.581   7.309   3.078  0.1000 -1.0110  0.2052
10038TIP3    H254310   0.643   7.349   3.210  0.2157 -0.8355  0.0988
10039TIP3   OH254311   1.307   4.309   3.863  0.0634  0.8442  0.1173
10039TIP3    H154312   1.335   4.278   3.949  1.5384  1.5268 -0.0849
10039TIP3    H254313   1.312   4.232   3.807  0.0752  0.6184  0.4278
10040TIP3   OH254314   3.367   1.270   2.135 -0.4036  0.2664 -0.2969
10040TIP3    H154315   3.401   1.210   2.068  0.2313  0.2008  0.0845
10040TIP3    H254316   3.335   1.213   2.204  2.6017  0.3291  1.2894
10041TIP3   OH254317   3.910   6.612   3.260 -1.0095  0.2822 -0.0487
10041TIP3    H154318   3.895   6.644   3.171  0.4349 -1.2413 -0.8710
10041TIP3    H254319   3.941   6.689   3.308 -1.2068  0.9751 -1.0018
10042TIP3   OH254320   6.136   2.031   3.116  0.3928  0.5219  0.2246
10042TIP3    H154321   6.196   2.104   3.109 -1.1808  1.8623  0.0780
10042TIP3    H254322   6.136   2.009   3.209  0.3552  1.1933  0.3898
10043TIP3   OH254323   2.055   1.312   3.526  0.1690  0.6409  0.1748
10043TIP3    H154324   2.103   1.297   3.444 -0.1473  0.4914  0.0145
10043TIP3    H254325   2.006   1.231   3.540 -1.8102  1.6031 -0.8617
10044TIP3   OH254326   2.201   0.244   3.798 -0.1227 -0.4513 -0.0755
10044TIP3    H154327   2.253   0.265   3.720 -0.9733 -1.6760 -1.0129
10044TIP3    H254328   2.190   0.327   3.843  1.0429  0.1515 -0.8471
10045TIP3   OH254329   4.498   7.410   2.276 -1.1030  0.0342  0.0844
10045TIP3    H154330   4.430   7.427   2.211 -0.2014  3.4088 -0.1572
10045TIP3    H254331   4.563   7.357   2.229 -1.9039 -0.2575 -0.7397
10046TIP3   OH254332   6.965   1.553   4.000 -0.2629 -0.2989 -0.0151
10046TIP3    H154333   6.953   1.556   4.095  0.0444 -0.0183  0.0167
10046TIP3    H254334   6.877   1.568   3.965 -0.0245  2.1080  0.2181
10047TIP3   OH254335   6.410   5.035   2.622  0.2944 -0.1272  0.0042
10047TIP3    H154336   6.335   5.031   2.563  0.0200 -0.4299  0.3745
10047TIP3    H254337   6.382   5.095   2.692  0.6078  0.2081 -0.1541
10048TIP3   OH254338   5.742   1.908   3.340 -0.4015  0.4400 -0.1300
10048TIP3    H154339   5.754   1.937   3.431 -0.0745 -1.9559  0.6538
10048TIP3    H254340   5.699   1.823   3.348  2.9306 -1.6210 -2.0051
10049TIP3   OH254341   4.233   6.492   2.203  0.2362  0.4453 -0.1491
10049TIP3    H154342   4.223   6.576   2.247  0.0719  0.5428 -0.3732
10049TIP3    H254343   4.324   6.493   2.171  0.9460 -0.3473  1.6795
10050TIP3   OH254344   0.234   6.234   3.848 -0.1198  0.0532  0.0886
10050TIP3    H154345   0.196   6.235   3.935 -1.6296  0.6602 -0.5330
10050TIP3    H254346   0.220   6.322   3.814 -1.6138 -0.7545 -1.5821
10051TIP3   OH254347   3.124   7.430   4.916 -0.5694 -0.2406  0.0057
10051TIP3    H154348   3.057   7.496   4.937 -1.8767 -1.1345 -1.1762
10051TIP3    H254349   3.149   7.449   4.826 -0.3499 -0.8336 -0.0638
10052TIP3   OH254350   2.518   6.940   2.521  0.5540  0.2114 -0.3154
10052TIP3    H154351   2.528   6.850   2.491 -0.6200 -0.8595  2.2228
10052TIP3    H254352   2.607   6.970   2.538  0.8972 -0.9659  0.0706
10053TIP3   OH254353   6.330   1.347   3.989 -0.0897  0.1859  0.1044
10053TIP3    H154354   6.372   1.274   4.034 -0.1330 -0.1168 -0.3398
10053TIP3    H254355   6.384   1.362   3.912 -0.4387  0.2052 -0.1399
10054TIP3   OH254356   6.009   6.057   3.736  0.2112 -0.0033  0.4615
10054TIP3    H154357   6.104   6.059   3.744  0.1390  0.2832  1.3672
10054TIP3    H254358   5.991   6.108   3.657  0.8111 -0.0793  0.2710
10055TIP3   OH254359   2.805   0.793   3.546 -0.1262  0.2364 -0.0825
10055TIP3    H154360   2.757   0.790   3.464  0.0368 -1.4233 -0.1545
10055TIP3    H254361   2.788   0.881   3.581 -0.5752  0.8044 -1.6400
10056TIP3   OH254362   6.613   1.619   3.576 -0.8004 -0.6228  0.0973
10056TIP3    H154363   6.576   1.609   3.664 -0.4890  0.2382  0.3397
10056TIP3    H254364   6.585   1.706   3.547 -1.5054 -1.1878 -0.9631
10057TIP3   OH254365   4.310   4.164   2.575  0.0329  0.0588 -0.1357
10057TIP3    H154366   4.390   4.150   2.624 -0.6416  0.5258  1.1455
10057TIP3    H254367   4.311   4.257   2.552 -0.7023  0.3530  0.9549
10058TIP3   OH254368   4.982   0.928   2.658  0.3328  0.7368 -0.2642
10058TIP3    H154369   5.063   0.939   2.608 -0.4487  1.8648 -1.3737
10058TIP3    H254370   4.981   1.000   2.720  0.3545  0.5134 -0.0038
10059TIP3   OH254371   6.902   6.578   3.513 -0.9244 -0.2786  0.4599
10059TIP3    H154372   6.988   6.611   3.486 -1.4768  0.4468 -0.4725
10059TIP3    H254373   6.904   6.485   3.491 -0.6262 -0.1166 -0.2285
10060TIP3   OH254374   1.410   7.323   3.414  0.1310 -0.1312 -0.2484
10060TIP3    H154375   1.450   7.323   3.501  0.2283 -1.4613 -0.2738
10060TIP3    H254376   1.395   7.415   3.394 -1.5990  0.1491  1.9656
10061TIP3   OH254377   4.809   2.187   4.044  0.4193 -0.1818 -0.3408
10061TIP3    H154378   4.747   2.122   4.078 -1.1291 -0.1211 -2.8062
10061TIP3    H254379   4.788   2.267   4.092  1.9649 -1.2312  2.3175
10062TIP3   OH254380   4.886   0.367   2.758  0.0229 -0.1725 -0.0758
10062TIP3    H154381   4.894   0.284   2.712  0.6905 -0.8666  1.2360
10062TIP3    H254382   4.803   0.360   2.806 -0.3933  0.3205 -0.7054
10063TIP3   OH254383   4.186   7.362   4.677  0.4579  0.2407 -0.1922
10063TIP3    H154384   4.198   7.397   4.766  0.0888  0.3109 -0.1696
10063TIP3    H254385   4.153   7.274   4.690  3.0139 -0.8171 -0.2113
10064TIP3   OH254386   5.800   4.602   3.555 -0.1871 -0.1454  0.3764
10064TIP3    H154387   5.816   4.681   3.606 -0.2696  0.7511 -0.9298
10064TIP3    H254388   5.714   4.571   3.585  0.5010 -0.6245  1.9645
10065TIP3   OH254389   0.900   3.195   3.356 -0.0024  0.1873  0.1286
10065TIP3    H154390   0.818   3.238   3.381  0.1747  0.3074  0.5130
10065TIP3    H254391   0.900   3.114   3.408  1.9177  1.9264  3.1654
10066TIP3   OH254392   6.490   2.136   4.264 -0.6146  0.2390  0.3028
10066TIP3    H154393   6.572   2.139   4.314 -0.0514  0.2128 -0.5832
10066TIP3    H254394   6.460   2.227   4.262 -2.2053 -0.1247  3.1140
10067TIP3   OH254395   1.849   4.846   2.097 -0.3662 -0.0575 -0.0817
10067TIP3    H154396   1.908   4.775   2.071  0.0372 -0.0410  0.7559
10067TIP3    H254397   1.852   4.907   2.024  1.3689  0.3773  0.2984
10068TIP3   OH254398   7.308   6.837   5.080 -0.0401 -0.2214  0.0591
10068TIP3    H154399   7.268   6.878   5.003  0.2866  1.8819  0.9718
10068TIP3    H254400   7.256   6.868   5.154  0.0341 -1.7311  0.7902
10069TIP3   OH254401   1.156   6.201   2.591 -0.3504 -0.3078 -0.5334
10069TIP3    H154402   1.181   6.271   2.531 -0.4541 -1.1126 -1.5527
10069TIP3    H254403   1.168   6.121   2.540 -1.9498 -0.9234  0.0013
10070TIP3   OH254404   4.046   0.845   2.688 -0.4343 -0.1418  0.0657
10070TIP3    H154405   4.113   0.875   2.627  0.6123  0.3244  1.4143
10070TIP3    H254406   4.022   0.923   2.738  0.5336 -0.9814  1.9316
10071TIP3   OH254407   4.401   0.475   2.896  0.1405  0.8121 -0.2431
10071TIP3    H154408   4.392   0.504   2.987  2.6835  1.6316 -0.1778
10071TIP3    H254409   4.348   0.537   2.846  0.5296  1.7472  0.4735
10072TIP3   OH254410   0.538   6.788   2.887 -0.7370 -0.1083 -0.1069
10072TIP3    H154411   0.585   6.830   2.959 -2.9933 -0.4972  1.7130
10072TIP3    H254412   0.508   6.860   2.833  0.2074  0.2495 -0.1747
10073TIP3   OH254413   0.464   3.112   4.838  0.2509 -0.3060 -0.3440
10073TIP3    H154414   0.373   3.112   4.809  0.5251 -0.2709 -1.2411
10073TIP3    H254415   0.486   3.205   4.847  0.7960 -0.2320 -2.1332
10074TIP3   OH254416   6.828   6.968   3.309  0.4715 -0.3630 -0.0627
10074TIP3    H154417   6.795   7.057   3.300  1.0600 -0.0150  0.9669
10074TIP3    H254418   6.770   6.915   3.255 -1.5214  0.2756  1.3131
10075TIP3   OH254419   6.795   0.541   2.967 -0.1420  0.0535  0.1686
10075TIP3    H154420   6.887   0.550   2.944 -0.2235  0.5982  0.0577
10075TIP3    H254421   6.762   0.630   2.973 -1.0541 -0.1567 -1.3282
10076TIP3   OH254422   7.581   1.296   2.827 -0.5142 -0.0189  0.3870
10076TIP3    H154423   7.508   1.269   2.882 -1.2146  1.0812  0.0353
10076TIP3    H254424   7.633   1.353   2.885  0.5864 -1.5121  0.9195
10077TIP3   OH254425   0.346   1.294   4.677  0.0434  0.5983  0.3565
10077TIP3    H154426   0.342   1.208   4.718  0.2572  0.0481 -0.7357
10077TIP3    H254427   0.428   1.332   4.709 -1.4291  1.6530  3.1718
10078TIP3   OH254428   1.437   5.854   4.880  0.2292 -0.1266  0.2946
10078TIP3    H154429   1.456   5.770   4.921 -1.3415  0.1699  1.7055
10078TIP3    H254430   1.343   5.853   4.864  0.3556  0.9524 -0.6520
10079TIP3   OH254431   3.036   0.569   2.075  0.1422  0.7685  0.2314
10079TIP3    H154432   3.006   0.652   2.112 -1.0084  0.7568 -0.6265
10079TIP3    H254433   3.029   0.581   1.980 -1.4187 -0.7748  0.0974
10080TIP3   OH254434   4.115   2.149   4.123  0.0150  0.3207  0.0722
10080TIP3    H154435   4.050   2.081   4.137  0.9057 -0.9499 -1.6428
10080TIP3    H254436   4.084   2.197   4.046 -0.6706  2.0109  1.3291
10081TIP3   OH254437   2.030   3.564   3.178 -0.0742  0.6741  0.1851
10081TIP3    H154438   1.952   3.601   3.218 -0.6896  0.4849 -0.8026
10081TIP3    H254439   2.040   3.611   3.095 -0.6454 -1.0323 -0.9153
10082TIP3   OH254440   4.991   3.785   3.727 -0.3082 -0.2445  0.3728
10082TIP3    H154441   4.921   3.733   3.765 -1.1676 -0.4617 -1.3943
10082TIP3    H254442   5.025   3.730   3.656  2.2013 -0.4786  1.6558
10083TIP3   OH254443   7.478   2.616   4.407  0.8076 -0.3432 -0.5533
10083TIP3    H154444   7.508   2.635   4.496 -0.5152 -0.5535 -0.0437
10083TIP3    H254445   7.515   2.687   4.354  0.0477  0.8698  0.4900
10084TIP3   OH254446   4.564   7.591   3.043  0.5553  0.6645  0.5213
10084TIP3    H154447   4.507   7.668   3.043  1.7211  1.5563 -0.5762
10084TIP3    H254448   4.533   7.539   3.118 -0.8933  1.6965  0.6927
10085TIP3   OH254449   5.908   4.135   3.663  0.1129 -0.2983  0.4367
10085TIP3    H154450   5.915   4.105   3.753  1.0265  0.1628  0.5307
10085TIP3    H254451   5.963   4.213   3.659 -1.1113  0.5656 -0.1555
10086TIP3   OH254452   7.455   3.590   3.339 -0.4717  0.0253  0.2811
10086TIP3    H154453   7.550   3.577   3.337 -0.5146 -0.2206 -1.0549
10086TIP3    H254454   7.443   3.684   3.329 -0.3763 -0.0622 -0.7968
10087TIP3   OH254455   5.969   4.278   3.094  0.1320 -0.8480  0.4779
10087TIP3    H154456   5.965   4.261   3.000  0.4443 -2.1580  0.6889
10087TIP3    H254457   5.881   4.258   3.126 -0.0261 -0.2292  0.4583
10088TIP3   OH254458   6.566   4.992   3.065 -0.1024 -0.1966  0.3675
10088TIP3    H154459   6.583   4.917   3.008  2.2261 -0.2198  0.9966
10088TIP3    H254460   6.500   4.961   3.126  0.1558 -1.4442  0.0398
10089TIP3   OH254461   1.485   2.739   3.766 -0.0926  0.2477 -0.4669
10089TIP3    H154462   1.537   2.819   3.769 -0.5888  0.5310  1.0956
10089TIP3    H254463   1.423   2.754   3.695 -0.5619  1.4930  0.1906
10090TIP3   OH254464   4.802   3.258   3.948  0.0289  0.0577  0.2413
10090TIP3    H154465   4.894   3.236   3.935  0.3620  0.1361  2.0779
10090TIP3    H254466   4.804   3.335   4.005 -1.1725  0.2075  0.1085
10091TIP3   OH254467   0.188   5.447   3.111 -0.2782 -0.4593  0.3874
10091TIP3    H154468   0.193   5.495   3.028  0.5710 -0.6775  0.3108
10091TIP3    H254469   0.122   5.495   3.162  0.9811  1.1986  0.5584
10092TIP3   OH254470   2.653   2.910   1.748  0.1822 -0.4011  0.1732
10092TIP3    H154471   2.742   2.907   1.785 -0.0615 -0.9714  0.7296
10092TIP3    H254472   2.649   2.834   1.690 -0.5084 -1.4088  1.4940
10093TIP3   OH254473   0.208   1.769   4.027  0.1478  0.2341  0.1590
10093TIP3    H154474   0.156   1.762   4.107 -0.1071 -0.6535 -0.0640
10093TIP3    H254475   0.204   1.681   3.988  1.1703  0.3575 -0.2696
10094TIP3   OH254476   3.212   5.021   3.356  0.2094 -0.2660  0.2113
10094TIP3    H154477   3.205   4.985   3.444  1.0959 -1.4214 -0.1575
10094TIP3    H254478   3.267   5.098   3.365  0.5975 -0.5902  0.6163
10095TIP3   OH254479   1.617   0.017   4.180  0.1703 -0.1955 -0.4140
10095TIP3    H154480   1.679  -0.050   4.210  0.5191 -0.2164 -1.1600
10095TIP3    H254481   1.667   0.099   4.181 -0.5227  0.2584  1.4179
10096TIP3   OH254482   2.387   2.889   4.417  0.0318  0.4279  0.0069
10096TIP3    H154483   2.467   2.938   4.438 -0.5762  0.4898  2.6129
10096TIP3    H254484   2.402   2.803   4.457 -1.3117  0.5595  0.8414
10097TIP3   OH254485   7.657   4.662   2.448 -0.5313 -0.5051  0.0994
10097TIP3    H154486   7.719   4.734   2.454 -0.1029 -0.9632  1.5332
10097TIP3    H254487   7.696   4.591   2.499 -1.2505 -1.5444 -0.7230
10098TIP3   OH254488   4.654   0.490   2.442 -0.2532  0.4563 -0.1870
10098TIP3    H154489   4.654   0.398   2.469 -2.0092 -0.1259 -1.8932
10098TIP3    H254490   4.743   0.506   2.410  0.3650 -0.3304  1.0716
10099TIP3   OH254491   1.516   4.447   2.923  0.0819  0.6946 -0.1718
10099TIP3    H154492   1.514   4.407   2.836  0.5707 -1.8867  0.9114
10099TIP3    H254493   1.425   4.445   2.953  0.1245  0.2195 -0.0659
10100TIP3   OH254494   2.946   3.043   4.060 -0.6258  0.0999  0.6189
10100TIP3    H154495   2.978   3.114   4.005  0.2993 -1.8605 -1.5444
10100TIP3    H254496   3.023   2.990   4.079 -1.0932  0.2072  3.1474
10101TIP3   OH254497   2.464   7.307   3.157  0.0461  0.8134  0.2314
10101TIP3    H154498   2.502   7.227   3.195 -1.5161  0.2599  0.7256
10101TIP3    H254499   2.374   7.307   3.190 -0.3099  2.1810 -0.7146
10102TIP3   OH254500   6.529   3.142   2.651  0.1825 -0.6414 -0.1340
10102TIP3    H154501   6.441   3.116   2.676  0.0056 -1.2307 -1.3022
10102TIP3    H254502   6.576   3.152   2.734 -1.1960  0.5016  0.5533
10103TIP3   OH254503   1.325   1.314   5.139 -0.3229 -0.6647  0.0258
10103TIP3    H154504   1.411   1.327   5.098  0.0198  0.4155  1.0098
10103TIP3    H254505   1.284   1.401   5.135 -0.9899 -0.9589  0.3858
10104TIP3   OH254506   2.840   1.343   2.531  0.7421 -0.1900 -0.5503
10104TIP3    H154507   2.855   1.437   2.531  0.6700 -0.1031  2.2003
10104TIP3    H254508   2.770   1.329   2.594  1.4175 -2.1621 -0.1483
10105TIP3   OH254509   3.058   2.537   4.385 -0.0132 -0.2714 -0.1244
10105TIP3    H154510   2.971   2.574   4.369  1.8039  3.3720 -2.8588
10105TIP3    H254511   3.095   2.592   4.453  1.3895  0.5982 -1.5375
10106TIP3   OH254512   0.368   4.871   3.302 -0.5169 -0.1994  0.5374
10106TIP3    H154513   0.309   4.803   3.269  0.5291 -1.0332  0.3273
10106TIP3    H254514   0.393   4.920   3.224 -0.1290 -0.4952  0.4743
10107TIP3   OH254515   4.058   1.308   4.310 -0.2849 -0.2012 -0.2688
10107TIP3    H154516   4.044   1.299   4.404  0.3980  0.1793 -0.1207
10107TIP3    H254517   4.151   1.288   4.298 -0.2732  0.1617 -0.8067
10108TIP3   OH254518   2.537   6.611   3.648  0.0015 -0.2559  0.3040
10108TIP3    H154519   2.626   6.613   3.613 -0.6371 -0.4364 -1.4820
10108TIP3    H254520   2.481   6.609   3.570 -1.6280  1.3669  1.3468
10109TIP3   OH254521   3.513   0.146   3.214 -1.0188  0.4579  0.1744
10109TIP3    H154522   3.508   0.221   3.274 -1.3060  0.5179  0.0784
10109TIP3    H254523   3.585   0.092   3.248 -2.0168 -0.1826  1.3581
10110TIP3   OH254524   4.627   5.033   3.442 -0.6343  0.2232 -0.2396
10110TIP3    H154525   4.584   5.052   3.526 -1.0398 -0.6820 -0.2288
10110TIP3    H254526   4.654   5.119   3.409 -0.6959  0.6169  0.6955
10111TIP3   OH254527   5.399   0.266   3.031 -0.2767  0.2912 -0.6023
10111TIP3    H154528   5.373   0.340   3.086 -2.0052 -0.0746 -0.8438
10111TIP3    H254529   5.317   0.239   2.988  0.5992 -0.8316 -1.6356
10112TIP3   OH254530   6.336   4.351   2.976 -0.2729  0.1353  0.5566
10112TIP3    H154531   6.320   4.418   2.910  0.6201  0.3212  0.5097
10112TIP3    H254532   6.341   4.400   3.059 -1.7882 -0.1428  0.8351
10113TIP3   OH254533   2.352   6.609   3.398  0.0473  0.0675  0.0450
10113TIP3    H154534   2.267   6.567   3.391 -0.4302  0.7853  1.3039
10113TIP3    H254535   2.411   6.552   3.349 -1.3385  0.1582 -1.8855
10114TIP3   OH254536   1.916   6.978   2.697  0.4214 -0.4113  0.3680
10114TIP3    H154537   1.904   6.931   2.780 -0.0639  0.2941  0.7022
10114TIP3    H254538   1.991   7.034   2.712  0.0625  0.0450  0.4869
10115TIP3   OH254539   2.924   0.918   2.747 -0.2555 -0.0818  0.7444
10115TIP3    H154540   2.986   0.847   2.765  1.5133  2.0272  3.7370
10115TIP3    H254541   2.952   0.953   2.663 -0.3595 -2.0241 -0.1647
10116TIP3   OH254542   6.970   2.482   2.884 -0.4228 -0.8410 -0.7810
10116TIP3    H154543   7.005   2.393   2.880 -0.6355 -0.9980  0.4239
10116TIP3    H254544   7.033   2.529   2.939 -1.3861 -0.7837  0.2987
10117TIP3   OH254545   0.311   6.636   3.146  0.5279  0.0561 -0.0978
10117TIP3    H154546   0.288   6.547   3.172  2.5646 -0.5789 -0.2534
10117TIP3    H254547   0.299   6.689   3.225 -0.0178 -0.4941  0.1882
10118TIP3   OH254548   6.739   5.054   5.170 -0.0472 -0.4639 -0.1337
10118TIP3    H154549   6.750   4.972   5.217  0.1319 -0.3087  0.0945
10118TIP3    H254550   6.798   5.116   5.214 -0.5795 -0.0702  0.0492
10119TIP3   OH254551   1.743   4.612   3.227 -0.3275  0.1572 -0.1744
10119TIP3    H154552   1.750   4.618   3.322 -2.3389  0.6582 -0.0088
10119TIP3    H254553   1.826   4.574   3.199  0.3503  0.1054  1.7647
10120TIP3   OH254554   3.194   7.449   2.052 -0.3639 -0.4204  0.0371
10120TIP3    H154555   3.113   7.491   2.024 -1.2384 -1.3483  1.0779
10120TIP3    H254556   3.217   7.493   2.134 -0.4606 -0.9454  0.3483
10121TIP3   OH254557   5.616   6.031   3.665  0.1967 -0.0834 -0.1184
10121TIP3    H154558   5.572   5.963   3.614  2.0662 -1.0871 -0.4855
10121TIP3    H254559   5.563   6.110   3.650 -0.8331 -0.9683 -1.3959
10122TIP3   OH254560   6.352   4.320   4.381  0.5724 -0.6144  0.0304
10122TIP3    H154561   6.375   4.254   4.316  1.5262 -0.2310 -0.0554
10122TIP3    H254562   6.390   4.288   4.462  0.8765 -0.2810  0.0270
10123TIP3   OH254563   5.521   5.096   4.091  0.1089  0.3425  0.5587
10123TIP3    H154564   5.575   5.160   4.046  0.4105  1.8689  2.9161
10123TIP3    H254565   5.580   5.024   4.111 -0.2352 -0.8093 -2.1126
10124TIP3   OH254566   5.137   0.672   2.175 -0.3045 -0.7545 -0.9870
10124TIP3    H154567   5.051   0.714   2.173  0.2402  0.4340 -0.5645
10124TIP3    H254568   5.167   0.684   2.266  1.1989  0.7773 -1.6273
10125TIP3   OH254569   3.859   4.684   3.334  0.2506  0.7770  0.3467
10125TIP3    H154570   3.768   4.672   3.306  0.2324  1.0572  0.2829
10125TIP3    H254571   3.889   4.596   3.357 -0.2691  0.7760  1.0739
10126TIP3   OH254572   5.757   2.308   4.293 -0.1501  0.5716 -0.5480
10126TIP3    H154573   5.729   2.311   4.385  0.6386  1.9546 -0.3215
10126TIP3    H254574   5.787   2.218   4.281  0.0501  0.4481  0.6626
10127TIP3   OH254575   0.225   6.118   2.635  0.1722 -0.2747 -0.2631
10127TIP3    H154576   0.225   6.213   2.621 -0.0406 -0.1502  0.5146
10127TIP3    H254577   0.177   6.082   2.561 -0.6244  0.3115 -0.0434
10128TIP3   OH254578   5.840   4.791   3.116  0.3401  0.3464  0.0434
10128TIP3    H154579   5.901   4.751   3.053  0.2545  1.4065 -0.7510
10128TIP3    H254580   5.764   4.814   3.063  0.3518  1.4583  0.4862
10129TIP3   OH254581   4.392   5.397   4.695 -0.2920  0.1993 -0.4252
10129TIP3    H154582   4.370   5.473   4.748  0.7477  0.1888  0.0395
10129TIP3    H254583   4.487   5.402   4.684 -0.2157 -0.9876 -0.4538
10130TIP3   OH254584   4.947   5.181   4.073  0.0658  0.1155 -0.1825
10130TIP3    H154585   5.041   5.196   4.070  0.1043 -0.2127 -2.2684
10130TIP3    H254586   4.910   5.252   4.020 -0.8599  0.2071  0.5677
10131TIP3   OH254587   3.604   7.634   2.174  0.5820  0.4159  0.4057
10131TIP3    H154588   3.648   7.647   2.258  0.7975  2.0572  0.0715
10131TIP3    H254589   3.515   7.666   2.189 -0.0348 -1.2560  0.5730
10132TIP3   OH254590   0.127   2.351   2.426 -0.5650  0.0346 -0.2674
10132TIP3    H154591   0.081   2.267   2.418 -0.3116  0.0158 -1.9065
10132TIP3    H254592   0.068   2.406   2.478  0.4077 -1.9076  3.2170
10133TIP3   OH254593   1.531   3.441   2.697 -0.3520  0.2543  0.0447
10133TIP3    H154594   1.599   3.493   2.655  1.0863 -1.4587  0.1191
10133TIP3    H254595   1.537   3.355   2.655 -1.9643 -0.1628  0.5962
10134TIP3   OH254596   1.021   6.313   3.222  0.3636 -0.7751  0.0313
10134TIP3    H154597   1.060   6.226   3.231  2.1362  0.1681  2.1940
10134TIP3    H254598   1.082   6.361   3.166  1.1486  0.0169  1.5248
10135TIP3   OH254599   1.416   3.864   2.120 -0.0446  0.1665  0.5122
10135TIP3    H154600   1.328   3.843   2.089  0.1528  0.1301 -0.0353
10135TIP3    H254601   1.403   3.936   2.182 -0.5476 -0.4210  1.1081
10136TIP3   OH254602   5.480   0.959   3.993  0.1846  0.5969 -0.3957
10136TIP3    H154603   5.436   0.876   3.976 -1.4090  0.9839  1.3665
10136TIP3    H254604   5.509   0.952   4.084  3.6446  0.5130 -1.3510
10137TIP3   OH254605   0.248   6.313   2.920  0.4385 -0.1442 -0.5632
10137TIP3    H154606   0.329   6.262   2.927 -1.1411 -2.8225 -0.4809
10137TIP3    H254607   0.229   6.340   3.010  1.6774  1.3526 -0.7064
10138TIP3   OH254608   4.409   0.640   3.875  0.1865 -0.5347  0.5248
10138TIP3    H154609   4.431   0.600   3.790 -1.5841  1.7709 -1.1330
10138TIP3    H254610   4.487   0.691   3.898  0.5387 -0.8723  0.0894
10139TIP3   OH254611   0.618   5.328   2.326 -0.0957 -0.3722 -0.2651
10139TIP3    H154612   0.691   5.355   2.271  0.5644 -0.0084  0.7608
10139TIP3    H254613   0.563   5.406   2.333 -0.4596 -0.5752 -0.8404
10140TIP3   OH254614   7.535   4.611   3.340  0.3836 -0.0484  0.4150
10140TIP3    H154615   7.454   4.595   3.388  0.9427 -0.5183  1.2258
10140TIP3    H254616   7.567   4.694   3.374  0.0447  0.3398 -0.1966
10141TIP3   OH254617   3.304   1.290   4.626  0.0069 -0.0321 -0.1362
10141TIP3    H154618   3.276   1.201   4.646 -2.2709  0.4855 -0.6415
10141TIP3    H254619   3.269   1.343   4.699 -0.2071  0.6580 -0.7284
10142TIP3   OH254620   3.664   5.536   4.768 -0.5195  0.0742  0.2369
10142TIP3    H154621   3.701   5.496   4.689  0.2185  1.7667 -0.3440
10142TIP3    H254622   3.573   5.555   4.746 -0.6679 -0.5991  0.2590
10143TIP3   OH254623   0.373   3.743   2.879 -0.3247 -0.3269  0.4725
10143TIP3    H154624   0.454   3.778   2.843 -0.2552  0.4929  1.3870
10143TIP3    H254625   0.305   3.771   2.817  0.0348 -0.6613 -0.0760
10144TIP3   OH254626   2.151   7.463   2.971  0.1307 -0.6862 -0.3111
10144TIP3    H154627   2.083   7.431   2.912 -1.4162  0.4843  0.7652
10144TIP3    H254628   2.213   7.508   2.914 -0.9746 -0.1628 -1.1337
10145TIP3   OH254629   0.137   4.286   3.147  0.4053  0.3265  0.7138
10145TIP3    H154630   0.114   4.205   3.192  2.2036 -0.7002 -0.1139
10145TIP3    H254631   0.224   4.269   3.111  0.0789  1.9982 -0.9876
10146TIP3   OH254632   1.570   5.423   2.498 -0.9723 -0.1009 -0.5341
10146TIP3    H154633   1.633   5.362   2.459  0.0059  1.3986 -1.3909
10146TIP3    H254634   1.576   5.408   2.592  0.8619  0.1812 -0.5822
10147TIP3   OH254635   1.049   6.080   4.115 -0.2771  0.6006 -0.3156
10147TIP3    H154636   1.016   6.020   4.182 -0.4176 -1.6886 -2.2785
10147TIP3    H254637   0.974   6.136   4.094 -0.9479 -0.2160 -0.1710
10148TIP3   OH254638   4.392   3.185   4.889 -0.0572 -0.4820 -0.5521
10148TIP3    H154639   4.463   3.248   4.878 -0.2885 -0.1196  0.0274
10148TIP3    H254640   4.338   3.196   4.810  0.1867 -0.3170 -0.6967
10149TIP3   OH254641   2.198   2.349   3.198 -0.6417  0.1114  0.1420
10149TIP3    H154642   2.253   2.377   3.271  0.7703  0.4349 -1.0182
10149TIP3    H254643   2.191   2.426   3.142 -2.3582  0.0977  0.2911
10150TIP3   OH254644   4.694   4.241   2.645  0.3926  0.2337  0.4397
10150TIP3    H154645   4.653   4.155   2.637  0.9551 -0.1251  1.1509
10150TIP3    H254646   4.641   4.287   2.710  0.5482  0.1233  0.6481
10151TIP3   OH254647   4.158   1.137   3.714 -0.5138 -0.1083  0.2866
10151TIP3    H154648   4.185   1.221   3.749 -2.1187  1.4231 -1.8831
10151TIP3    H254649   4.239   1.093   3.690  0.3021  1.7785 -0.5723
10152TIP3   OH254650   3.334   3.076   2.397  0.0094 -0.2827 -0.0314
10152TIP3    H154651   3.358   3.137   2.466  0.3845 -0.1176 -0.3064
10152TIP3    H254652   3.400   3.089   2.329 -1.0015  0.3842 -0.9224
10153TIP3   OH254653   6.155   3.248   3.786  0.2312  0.2293  0.0273
10153TIP3    H154654   6.235   3.296   3.806  0.7052 -0.9743  1.1639
10153TIP3    H254655   6.084   3.305   3.817  0.6028  1.3825 -1.1470
10154TIP3   OH254656   0.655   1.634   4.910  0.6324 -0.4368 -0.2762
10154TIP3    H154657   0.626   1.545   4.890  2.5394 -1.1125 -0.2951
10154TIP3    H254658   0.748   1.635   4.886  0.5353  1.7448 -0.8248
10155TIP3   OH254659   7.062   1.156   2.444 -0.4952 -0.2020 -0.1709
10155TIP3    H154660   7.049   1.224   2.377  1.6222  0.9375  0.4575
10155TIP3    H254661   7.097   1.081   2.395  0.5347  0.4353 -0.4560
10156TIP3   OH254662   5.856   3.828   3.171 -0.5895  0.0570 -0.2939
10156TIP3    H154663   5.816   3.913   3.193 -1.8081 -0.6886  0.5006
10156TIP3    H254664   5.949   3.848   3.157 -0.5989  1.3443  1.1479
10157TIP3   OH254665   0.845   1.773   4.265 -0.6953 -0.1839 -0.0744
10157TIP3    H154666   0.936   1.772   4.296 -0.3632 -2.0113 -0.9825
10157TIP3    H254667   0.808   1.852   4.303  1.2388  0.5412  0.4228
10158TIP3   OH254668   3.125   6.722   1.852  0.2998  0.0255 -0.0938
10158TIP3    H154669   3.155   6.708   1.762  1.6665 -0.5489  0.4179
10158TIP3    H254670   3.200   6.761   1.896 -0.2558  0.0295  0.8749
10159TIP3   OH254671   3.915   4.668   2.475  0.0526 -0.5548 -0.0912
10159TIP3    H154672   3.956   4.724   2.541 -0.5925 -0.4497  0.2298
10159TIP3    H254673   3.952   4.698   2.392 -0.0342  0.1332  0.1063
10160TIP3   OH254674   1.936   1.407   4.757 -0.1448  0.3742 -0.5252
10160TIP3    H154675   1.954   1.314   4.762  0.3090  0.4885  0.0631
10160TIP3    H254676   1.841   1.412   4.747 -0.2746 -0.1355  0.3315
10161TIP3   OH254677   3.005   0.833   3.053  0.4260  0.0541  0.8514
10161TIP3    H154678   3.051   0.825   2.969  1.1977  0.6238  1.2057
10161TIP3    H254679   3.075   0.842   3.118 -0.1725  2.9646  1.2005
10162TIP3   OH254680   7.033   3.034   2.594  0.2894  0.2819  0.3428
10162TIP3    H154681   6.963   3.056   2.534  1.1443 -2.0429 -1.6874
10162TIP3    H254682   6.992   3.030   2.680 -2.2609 -1.5496 -0.8396
10163TIP3   OH254683   1.203   1.956   5.022  0.4693 -0.1475 -0.0064
10163TIP3    H154684   1.131   1.893   5.034  0.8434 -0.6420 -0.3158
10163TIP3    H254685   1.160   2.035   4.989  0.1292 -0.6579 -0.8397
10164TIP3   OH254686   4.045   0.439   2.510  0.1003  0.0741 -0.2306
10164TIP3    H154687   4.137   0.419   2.529 -0.0327  0.4089  0.8174
10164TIP3    H254688   4.003   0.444   2.596 -0.9795 -0.4193 -0.7129
10165TIP3   OH254689   6.645   7.542   3.251 -0.1045  0.1708 -0.2302
10165TIP3    H154690   6.559   7.517   3.285 -0.7262 -0.8191 -2.3455
10165TIP3    H254691   6.673   7.615   3.306 -2.9453  1.4703 -0.3866
10166TIP3   OH254692   1.085   4.055   2.922  0.3743  0.1559  0.3683
10166TIP3    H154693   1.057   4.042   2.832  0.1393  0.9924  0.3093
10166TIP3    H254694   1.110   3.968   2.953 -0.9844 -0.4009 -0.0118
10167TIP3   OH254695   4.437   2.279   2.668 -0.3905  0.2546  0.3546
10167TIP3    H154696   4.395   2.261   2.583 -1.6634  0.9719  0.8011
10167TIP3    H254697   4.448   2.193   2.708 -0.0008 -0.0724 -0.4293
10168TIP3   OH254698   1.401   1.396   4.598  0.3413 -0.0377 -0.2649
10168TIP3    H154699   1.334   1.395   4.666 -0.5323  0.6391 -1.0909
10168TIP3    H254700   1.410   1.305   4.570 -0.1478 -0.1456 -0.0649
10169TIP3   OH254701   2.675   1.030   3.745  0.6899 -0.1042  0.0285
10169TIP3    H154702   2.683   0.981   3.827  1.1307 -2.0212 -1.0978
10169TIP3    H254703   2.586   1.011   3.715  0.5405  0.5681  0.0397
10170TIP3   OH254704   3.359   7.169   2.442  0.5681  0.1433 -0.3495
10170TIP3    H154705   3.356   7.144   2.350 -1.0141  1.3043 -0.6546
10170TIP3    H254706   3.441   7.131   2.475  1.1878 -0.2411 -2.2300
10171TIP3   OH254707   5.403   5.247   2.406 -0.0527  0.0456 -0.3882
10171TIP3    H154708   5.429   5.299   2.482 -0.0899 -0.8501  0.2588
10171TIP3    H254709   5.394   5.310   2.335 -0.0055  0.9005  0.3528
10172TIP3   OH254710   5.880   2.531   3.837 -0.0815 -0.0001  0.5998
10172TIP3    H154711   5.945   2.494   3.898 -0.0838 -0.6252  0.2402
10172TIP3    H254712   5.925   2.604   3.796 -0.1626  0.5814  1.5226
10173TIP3   OH254713   7.499   4.104   3.625 -0.0865  0.0511  0.0156
10173TIP3    H154714   7.545   4.178   3.665  0.9525 -1.0096  0.8569
10173TIP3    H254715   7.456   4.060   3.698  0.4193 -0.9284 -0.2472
10174TIP3   OH254716   1.078   0.649   2.572  0.6772  0.2655  0.8116
10174TIP3    H154717   1.173   0.644   2.565  0.5915 -0.2235 -0.1925
10174TIP3    H254718   1.053   0.714   2.505  0.1746 -0.9885 -0.2514
10175TIP3   OH254719   1.708   2.295   5.284  0.0874 -0.0470  0.0011
10175TIP3    H154720   1.709   2.390   5.290 -1.1361  0.0864 -1.2789
10175TIP3    H254721   1.629   2.269   5.331  0.4648 -0.4440  0.4271
10176TIP3   OH254722   7.007   0.137   4.215 -0.0988 -0.0764  0.1704
10176TIP3    H154723   7.024   0.210   4.155 -1.1259 -1.0677 -1.4014
10176TIP3    H254724   6.940   0.170   4.275  0.3546  0.6703  0.2793
10177TIP3   OH254725   7.397   5.081   3.005 -0.2480  0.1531 -0.4438
10177TIP3    H154726   7.377   5.150   2.942 -0.4915  0.3597 -0.1386
10177TIP3    H254727   7.389   5.122   3.091  0.4753 -0.0289 -0.2809
10178TIP3   OH254728   2.803   1.906   2.300  0.3606 -0.3071  0.1331
10178TIP3    H154729   2.788   1.825   2.251 -0.1406 -0.4831  0.5725
10178TIP3    H254730   2.854   1.879   2.376  2.7910  0.2401 -1.1967
10179TIP3   OH254731   5.376   2.084   2.062  0.7878 -0.1574 -0.0448
10179TIP3    H154732   5.333   2.104   1.979  2.0146  0.2268 -0.6047
10179TIP3    H254733   5.309   2.040   2.114 -0.3891  0.7491 -0.7508
10180TIP3   OH254734   3.605   6.837   2.782  0.0985  0.7539  0.0624
10180TIP3    H154735   3.685   6.872   2.742  0.6731  0.3457  0.8265
10180TIP3    H254736   3.634   6.758   2.827 -0.8049  0.4303  0.0856
10181TIP3   OH254737   0.139   1.428   3.555  0.0485 -0.0819 -0.7646
10181TIP3    H154738   0.229   1.447   3.582  0.0577 -2.3653  1.1337
10181TIP3    H254739   0.148   1.369   3.481  0.0728  0.4579 -1.2017
10182TIP3   OH254740   7.431   7.612   3.190 -0.0853  0.3947 -0.0868
10182TIP3    H154741   7.353   7.635   3.140  0.2250 -1.4008 -1.5154
10182TIP3    H254742   7.464   7.695   3.225 -2.7908  1.1512  0.8744
10183TIP3   OH254743   1.054   4.054   3.424 -0.2197 -0.1111  0.3729
10183TIP3    H154744   1.098   4.134   3.395  0.8346 -1.4549 -2.0778
10183TIP3    H254745   0.964   4.064   3.394 -0.6831  0.9881  1.9682
10184TIP3   OH254746   0.222   2.896   2.545 -0.0024  0.0317  0.0855
10184TIP3    H154747   0.210   2.982   2.504 -1.9942 -1.4560 -2.7088
10184TIP3    H254748   0.307   2.865   2.512  1.3886  1.3369  2.1580
10185TIP3   OH254749   7.098   1.363   2.277  0.3510  0.0177  0.2567
10185TIP3    H154750   7.183   1.376   2.319 -0.7373 -0.3964  2.7234
10185TIP3    H254751   7.051   1.445   2.293  0.0826  0.0441 -0.6267
10186TIP3   OH254752   3.940   2.361   2.758  0.0155 -0.7633  0.1172
10186TIP3    H154753   3.888   2.297   2.807 -1.5097  0.2168 -0.1460
10186TIP3    H254754   4.025   2.363   2.803  0.2765 -3.2731 -0.1613
10187TIP3   OH254755   3.957   4.784   2.959 -0.3616 -0.3133  0.4271
10187TIP3    H154756   3.925   4.828   3.038 -0.4106  0.7708 -0.1792
10187TIP3    H254757   4.049   4.764   2.978 -0.6609 -1.0667  1.1660
10188TIP3   OH254758   3.120   4.644   2.538  0.6745  0.0321 -0.0170
10188TIP3    H154759   3.212   4.663   2.519  0.8603  0.1840  0.9933
10188TIP3    H254760   3.123   4.563   2.589  0.3109  0.5139  0.7709
10189TIP3   OH254761   6.249   5.374   3.183 -0.2819 -0.2177  0.2999
10189TIP3    H154762   6.216   5.300   3.131  0.6583  0.8166 -1.9284
10189TIP3    H254763   6.171   5.418   3.214 -0.9788 -0.0146 -1.5889
10190TIP3   OH254764   3.120   5.361   2.961  0.5080  0.3730 -0.1273
10190TIP3    H154765   3.068   5.386   3.037  0.4977 -2.4716  0.9284
10190TIP3    H254766   3.056   5.343   2.893  0.1744 -1.2144  0.5658
10191TIP3   OH254767   3.449   1.778   3.755 -0.0765 -0.1325  0.2755
10191TIP3    H154768   3.472   1.741   3.841 -0.0744  0.8233  0.6931
10191TIP3    H254769   3.442   1.701   3.698 -2.2633 -1.0157  1.5920
10192TIP3   OH254770   2.174   1.000   3.525  0.2793 -0.1250  0.1783
10192TIP3    H154771   2.105   0.946   3.486  1.3660 -0.5086 -1.3195
10192TIP3    H254772   2.202   1.058   3.454  0.6738  0.8598  1.1098
10193TIP3   OH254773   4.534   4.021   2.659  0.2602  0.0737  0.0288
10193TIP3    H154774   4.566   4.005   2.748 -1.2760 -0.5456  0.4941
10193TIP3    H254775   4.563   3.944   2.609 -1.2022 -0.9258  0.6589
10194TIP3   OH254776   4.197   1.364   2.705  0.2849 -0.2101  0.8304
10194TIP3    H154777   4.250   1.316   2.768  0.3579  0.5542  1.3530
10194TIP3    H254778   4.249   1.365   2.625  0.1321 -1.3033  0.7039
10195TIP3   OH254779   3.004   5.823   2.286  0.6260  0.3549  0.2390
10195TIP3    H154780   2.984   5.842   2.378 -0.5365  0.7409 -0.0788
10195TIP3    H254781   3.009   5.727   2.282  1.1167  0.3492  0.7822
10196TIP3   OH254782   7.327   0.098   4.005 -0.2046 -0.2582  0.3081
10196TIP3    H154783   7.332   0.193   4.001 -1.4246 -0.1246  1.4402
10196TIP3    H254784   7.419   0.069   3.997  0.3271  1.0693  1.3052
10197TIP3   OH254785   3.539   3.106   5.030 -0.1933  0.5490  0.3906
10197TIP3    H154786   3.464   3.149   5.071 -0.8360 -0.3761  0.2326
10197TIP3    H254787   3.502   3.028   4.988  0.6993  0.6023 -0.5569
10198TIP3   OH254788   5.674   4.464   2.397  0.4995  0.0208  0.1234
10198TIP3    H154789   5.764   4.436   2.413  0.9457  1.0188 -0.5791
10198TIP3    H254790   5.672   4.488   2.304  0.0265  1.8384  0.5704
10199TIP3   OH254791   2.005   4.097   2.544  0.0830 -0.4488 -0.2226
10199TIP3    H154792   2.004   4.192   2.560  1.1559 -0.6387  1.1404
10199TIP3    H254793   2.026   4.089   2.451  1.9581  0.6550  0.0546
10200TIP3   OH254794   5.467   5.431   3.917  0.3587 -0.2218  0.1412
10200TIP3    H154795   5.547   5.404   3.961 -0.5453 -1.0726  1.3417
10200TIP3    H254796   5.431   5.500   3.973  0.6752  0.7847 -0.8565
10201TIP3   OH254797   5.039   5.737   2.775 -0.5685 -0.1877  0.3832
10201TIP3    H154798   5.092   5.711   2.700 -0.7767 -0.4468  0.3245
10201TIP3    H254799   4.973   5.796   2.738  0.3275  1.0159  0.6234
10202TIP3   OH254800   5.607   0.169   2.626  0.2102 -0.1550  0.6165
10202TIP3    H154801   5.688   0.171   2.575 -0.4988  0.8494 -0.5321
10202TIP3    H254802   5.552   0.104   2.582 -0.3840  0.6795  0.0665
10203TIP3   OH254803   7.381   3.794   2.765  0.2098 -0.0049 -0.1635
10203TIP3    H154804   7.317   3.842   2.818  0.7390 -0.9231  1.3838
10203TIP3    H254805   7.465   3.834   2.789  0.4032  0.0077 -0.8404
10204TIP3   OH254806   1.684   0.086   4.575  0.5686 -0.6804 -0.1734
10204TIP3    H154807   1.667  -0.007   4.559 -4.0031 -0.4749  1.8103
10204TIP3    H254808   1.644   0.131   4.501 -1.6036 -0.3193  1.1154
10205TIP3   OH254809   6.357   5.223   4.935  0.5988 -0.0116  0.0805
10205TIP3    H154810   6.374   5.161   5.006  0.1930  1.6454  1.7155
10205TIP3    H254811   6.430   5.285   4.939  0.6525  0.0186 -1.0678
10206TIP3   OH254812   3.046   0.149   3.508 -0.2801 -0.5140 -0.4024
10206TIP3    H154813   3.124   0.099   3.485  0.5789 -0.4481  2.0453
10206TIP3    H254814   3.079   0.222   3.560 -1.5704  2.2754 -3.2078
10207TIP3   OH254815   1.003   3.136   3.795  0.2293 -0.6719 -0.5453
10207TIP3    H154816   1.077   3.138   3.856  0.9112 -2.0122 -1.2890
10207TIP3    H254817   1.035   3.086   3.720 -1.1186 -0.4282 -1.3134
10208TIP3   OH254818   1.436   3.566   2.202 -1.0259 -0.0308 -0.3404
10208TIP3    H154819   1.422   3.659   2.187 -0.8379  0.1326  0.4746
10208TIP3    H254820   1.531   3.556   2.200 -0.9468  0.1140  1.3269
10209TIP3   OH254821   7.306   6.428   3.864  0.1087  1.0594  0.2110
10209TIP3    H154822   7.293   6.514   3.825  0.0669  1.3382  0.8248
10209TIP3    H254823   7.234   6.375   3.831 -0.5341  1.5868  0.7426
10210TIP3   OH254824   0.052   2.087   2.451 -0.5863  0.0651 -0.4548
10210TIP3    H154825   0.100   2.008   2.427  1.1457  1.1455 -0.7062
10210TIP3    H254826   0.050   2.085   2.547  1.0555  0.6003 -0.3913
10211TIP3   OH254827   4.995   1.531   3.425 -0.0609  0.0671 -0.5353
10211TIP3    H154828   4.989   1.458   3.363 -0.6117 -1.8235  1.6046
10211TIP3    H254829   5.049   1.497   3.496  1.8270  2.6925 -0.5977
10212TIP3   OH254830   0.097   1.723   3.730  0.6212  0.2265  0.4004
10212TIP3    H154831   0.129   1.660   3.795  1.0559 -1.0525 -1.0060
10212TIP3    H254832   0.171   1.781   3.715  0.5178  0.5327  1.0311
10213TIP3   OH254833   5.224   6.362   3.236 -0.2404  0.0469  0.3980
10213TIP3    H154834   5.295   6.301   3.256  0.3718  0.1245 -1.3168
10213TIP3    H254835   5.145   6.318   3.266  0.1413 -1.8208 -1.1285
10214TIP3   OH254836   6.513   6.138   3.207 -0.2241 -0.2686  0.4331
10214TIP3    H154837   6.521   6.083   3.129  0.7478  1.1455 -0.5022
10214TIP3    H254838   6.421   6.129   3.232 -0.5032 -0.9542 -0.7305
10215TIP3   OH254839   3.372   0.064   2.894 -0.0560  0.2221  0.5018
10215TIP3    H154840   3.308   0.100   2.956 -0.2493  1.1362 -0.2162
10215TIP3    H254841   3.380   0.130   2.826  1.4081 -0.0343  0.3990
10216TIP3   OH254842   2.914   2.352   2.866 -0.4083 -0.8258  0.1181
10216TIP3    H154843   2.971   2.390   2.799 -1.5846 -0.1208 -0.5086
10216TIP3    H254844   2.959   2.272   2.893  1.7328  0.5396  0.8817
10217TIP3   OH254845   6.244   2.431   3.081 -0.1464 -0.1645  0.6933
10217TIP3    H154846   6.157   2.412   3.116 -1.0848  1.0583 -0.7982
10217TIP3    H254847   6.290   2.347   3.082 -2.2877 -1.4693 -0.9018
10218TIP3   OH254848   1.434   3.110   3.593  0.2096  0.0917 -0.1249
10218TIP3    H154849   1.431   3.030   3.646  1.9765 -0.5136 -0.8688
10218TIP3    H254850   1.345   3.118   3.557 -0.1941 -1.1271  0.5342
10219TIP3   OH254851   6.493   2.392   3.591 -0.0137  0.0512  0.1477
10219TIP3    H154852   6.486   2.320   3.528 -0.9201  1.5423 -1.5372
10219TIP3    H254853   6.406   2.398   3.631  0.0295  0.2849  0.2088
10220TIP3   OH254854   6.688   2.240   3.384  0.1769 -0.0333 -0.0345
10220TIP3    H154855   6.708   2.228   3.477 -0.8768  0.3458  0.2569
10220TIP3    H254856   6.771   2.223   3.339  0.9030  0.5881  1.0321
10221TIP3   OH254857   2.273   6.068   3.680 -0.0699  0.1857  0.1117
10221TIP3    H154858   2.294   6.094   3.770  0.9542 -0.8379  0.1941
10221TIP3    H254859   2.191   6.019   3.688 -1.1772  1.9480  0.1586
10222TIP3   OH254860   6.312   4.220   3.417 -0.2178 -0.3264 -0.3448
10222TIP3    H154861   6.363   4.301   3.414  0.8752 -0.9987 -3.3607
10222TIP3    H254862   6.221   4.249   3.403  0.0453  0.4428 -0.4904
10223TIP3   OH254863   7.270   5.279   2.820 -0.2465  0.9259  0.0775
10223TIP3    H154864   7.257   5.374   2.828 -1.5940  0.7679 -0.0178
10223TIP3    H254865   7.239   5.258   2.732  0.7208  0.4991 -0.1626
10224TIP3   OH254866   5.404   1.873   4.683 -0.3722  0.0573 -0.1946
10224TIP3    H154867   5.473   1.807   4.684 -0.9396 -0.5466  0.2402
10224TIP3    H254868   5.418   1.923   4.764  0.6128  1.0902 -0.9615
10225TIP3   OH254869   7.073   0.171   3.630  0.0941  0.3163  0.3285
10225TIP3    H154870   7.064   0.187   3.536 -0.2887  1.4671  0.5388
10225TIP3    H254871   7.159   0.205   3.651  0.3172 -0.2513  0.3392
10226TIP3   OH254872   1.306   0.272   4.959  0.1093 -0.3852 -0.1664
10226TIP3    H154873   1.387   0.324   4.952  0.8252 -1.6046 -1.6331
10226TIP3    H254874   1.299   0.251   5.052  0.2978  1.5115  0.3250
10227TIP3   OH254875   0.275   0.870   3.684 -0.1182  0.0934  0.4948
10227TIP3    H154876   0.332   0.795   3.670 -1.8497 -0.8307 -2.2883
10227TIP3    H254877   0.200   0.835   3.732 -0.3362  0.3141  0.3208
10228TIP3   OH254878   6.052   3.893   2.806 -0.2918 -0.5162  0.2402
10228TIP3    H154879   6.112   3.967   2.810  0.9263 -1.2754 -2.0283
10228TIP3    H254880   6.104   3.819   2.836 -0.3188 -1.0335 -0.9350
10229TIP3   OH254881   3.954   0.317   4.090  0.0220 -0.3209  0.0540
10229TIP3    H154882   3.908   0.313   4.006  0.5321 -1.6312 -0.1939
10229TIP3    H254883   4.042   0.347   4.068 -0.3204  0.9466  0.3571
10230TIP3   OH254884   2.981   1.220   2.225 -0.0793 -0.4227 -0.2328
10230TIP3    H154885   2.975   1.304   2.180 -0.4790  0.6642  1.7155
10230TIP3    H254886   2.891   1.201   2.254  0.2777 -0.6447  0.7902
10231TIP3   OH254887   3.035   5.765   3.487  0.5167  0.3410  0.1828
10231TIP3    H154888   3.096   5.740   3.556  0.1649  1.4465  0.9215
10231TIP3    H254889   2.965   5.700   3.493  0.7713  0.0900  0.4862
10232TIP3   OH254890   1.282   1.787   2.835  0.3091  0.0753  0.3809
10232TIP3    H154891   1.192   1.802   2.805  1.1303  0.1719 -2.2339
10232TIP3    H254892   1.304   1.700   2.802  0.9053 -0.3639  1.8409
10233TIP3   OH254893   2.188   4.429   3.010 -0.5357  0.2512  0.1557
10233TIP3    H154894   2.093   4.420   3.007 -0.7683  1.7696  1.4898
10233TIP3    H254895   2.207   4.502   2.950 -0.4514  1.1976  1.2922
10234TIP3   OH254896   2.655   4.078   2.679 -0.3610  0.8220  0.3005
10234TIP3    H154897   2.719   4.148   2.670  0.4096  0.0047 -0.8415
10234TIP3    H254898   2.584   4.103   2.620  0.8189 -0.2862 -1.7128
10235TIP3   OH254899   3.668   2.247   2.086  0.6960  0.3924 -0.1304
10235TIP3    H154900   3.653   2.334   2.123  0.0554  0.5763 -0.8086
10235TIP3    H254901   3.582   2.205   2.087  1.0434 -0.3334  0.4155
10236TIP3   OH254902   4.042   6.150   4.991 -0.6153  0.2418 -1.0477
10236TIP3    H154903   3.964   6.184   5.036 -1.0817  0.3976 -1.9472
10236TIP3    H254904   4.074   6.223   4.939  0.1573  0.1832 -0.6574
10237TIP3   OH254905   3.231   4.955   2.448 -0.0984  0.5832  0.2408
10237TIP3    H154906   3.277   5.035   2.422 -0.5705  0.9485  0.5164
10237TIP3    H254907   3.165   4.942   2.379  1.0859 -0.5373 -0.7392
10238TIP3   OH254908   1.299   1.020   5.177 -0.0847 -0.0809  0.6465
10238TIP3    H154909   1.313   1.090   5.113 -2.4040 -0.6556 -0.6177
10238TIP3    H254910   1.307   1.063   5.262 -1.1190  1.6818 -0.0994
10239TIP3   OH254911   1.982   4.498   3.279  0.1594  0.2974  0.2094
10239TIP3    H154912   1.991   4.511   3.373 -1.0511  0.0119  0.3858
10239TIP3    H254913   2.018   4.411   3.263 -1.2431 -0.4153  0.7233
10240TIP3   OH254914   1.295   7.008   2.834  0.2945 -0.4642 -0.3268
10240TIP3    H154915   1.215   6.964   2.805 -0.5792  1.4936 -1.0883
10240TIP3    H254916   1.361   6.940   2.834 -1.1714 -1.9461 -0.5972
10241TIP3   OH254917   5.337   5.717   2.315  0.1429  1.0112 -0.3999
10241TIP3    H154918   5.357   5.715   2.222  0.5846  0.8217 -0.3057
10241TIP3    H254919   5.421   5.702   2.358 -0.4976 -2.2290 -0.0198
10242TIP3   OH254920   6.543   4.130   2.707 -0.5153  0.4420 -0.0506
10242TIP3    H154921   6.481   4.094   2.643 -0.2498  0.2707 -0.2139
10242TIP3    H254922   6.625   4.082   2.690 -0.3908  0.5349  0.2877
10243TIP3   OH254923   1.547   0.410   3.512 -0.4979  0.2404  0.4942
10243TIP3    H154924   1.533   0.334   3.568  0.5020  0.0569  0.5074
10243TIP3    H254925   1.483   0.400   3.442 -1.7729  0.4690  1.5689
10244TIP3   OH254926   1.172   0.412   3.107  0.4204 -0.2681 -0.2908
10244TIP3    H154927   1.136   0.497   3.082  0.1407 -0.1556  0.4556
10244TIP3    H254928   1.218   0.381   3.029 -2.0245 -0.8205 -1.6367
10245TIP3   OH254929   6.566   1.469   3.352 -0.0098  0.2195  0.1183
10245TIP3    H154930   6.599   1.385   3.382 -2.1859 -0.2680  1.3986
10245TIP3    H254931   6.598   1.532   3.416  0.6768  0.1979 -0.1982
10246TIP3   OH254932   4.302   0.346   2.606  0.3926  0.0133 -0.6427
10246TIP3    H154933   4.310   0.265   2.655 -1.2536 -0.0940 -0.5005
10246TIP3    H254934   4.305   0.415   2.672  0.0240 -0.0294 -0.5815
10247TIP3   OH254935   0.003   7.277   3.483 -0.2042 -0.1450 -0.0536
10247TIP3    H154936  -0.082   7.241   3.461 -1.5466  2.3065  0.7360
10247TIP3    H254937   0.055   7.201   3.511 -1.7136 -1.8440 -1.6377
10248TIP3   OH254938   7.218   1.620   3.938  0.0104  0.6743  0.3724
10248TIP3    H154939   7.124   1.607   3.949 -0.1170  0.8348 -0.4255
10248TIP3    H254940   7.258   1.563   4.003 -0.6431  0.9037  0.9843
10249TIP3   OH254941   7.248   2.786   3.272  0.4696 -0.0251 -0.6276
10249TIP3    H154942   7.236   2.826   3.358 -0.7605 -0.1932 -0.7065
10249TIP3    H254943   7.305   2.711   3.288 -0.6041 -0.6793  0.2384
10250TIP3   OH254944   4.245   2.486   3.194 -0.1975 -0.3547 -0.0100
10250TIP3    H154945   4.323   2.471   3.140 -0.5440  0.0505 -0.6440
10250TIP3    H254946   4.279   2.504   3.281  0.3207 -2.5808  0.2984
10251TIP3   OH254947   7.556   6.066   5.044  0.0618  0.0704 -0.4068
10251TIP3    H154948   7.638   6.035   5.007  0.5849 -1.5121  1.8652
10251TIP3    H254949   7.563   6.162   5.043  1.6821 -0.0364 -0.7521
10252TIP3   OH254950   3.685   2.681   2.010  0.3564 -0.2044  0.3387
10252TIP3    H154951   3.605   2.720   1.976  0.4132 -0.2297  0.1768
10252TIP3    H254952   3.723   2.749   2.066  0.5142  0.0163 -0.0319
10253TIP3   OH254953   1.573   4.822   2.122  0.2207 -0.3451 -0.2844
10253TIP3    H154954   1.552   4.779   2.205  0.0848 -1.2211 -0.7720
10253TIP3    H254955   1.668   4.832   2.123  0.2489 -0.6338 -0.1630
10254TIP3   OH254956   1.606   6.754   2.409 -0.0162  0.2252  0.0838
10254TIP3    H154957   1.651   6.824   2.362  1.2580 -1.9952 -2.2306
10254TIP3    H254958   1.601   6.786   2.500  2.5141  2.3311 -0.3904
10255TIP3   OH254959   5.228   1.102   3.534 -0.2714  0.0569  0.3313
10255TIP3    H154960   5.276   1.179   3.504 -0.3082  0.2785  0.8314
10255TIP3    H254961   5.261   1.086   3.623 -2.2766  1.2244  1.3606
10256TIP3   OH254962   3.307   4.901   2.959  0.4305 -0.4239 -0.0290
10256TIP3    H154963   3.212   4.893   2.961  0.3943  0.0530  0.0492
10256TIP3    H254964   3.325   4.992   2.983  0.9229 -0.6341  0.4372
10257TIP3   OH254965   6.415   3.152   3.393  0.3127 -0.1359 -0.1733
10257TIP3    H154966   6.461   3.142   3.477  1.0579  1.1223 -0.4052
10257TIP3    H254967   6.335   3.199   3.415  0.5059  0.1897 -0.1626
10258TIP3   OH254968   6.497   1.036   2.250 -0.0088  0.4148  0.4793
10258TIP3    H154969   6.406   1.052   2.277  0.0759  2.0702 -0.1244
10258TIP3    H254970   6.504   0.940   2.247 -2.4659  0.1931 -1.8393
10259TIP3   OH254971   6.007   4.019   3.403 -0.1035 -0.0181 -0.3354
10259TIP3    H154972   5.998   4.036   3.497  0.5243 -0.0497 -0.2608
10259TIP3    H254973   6.015   4.106   3.364 -1.1942  0.0346 -0.4627
10260TIP3   OH254974   0.496   0.867   2.869  0.5641 -0.2874 -0.0113
10260TIP3    H154975   0.417   0.813   2.863  0.3835 -0.0229 -0.0348
10260TIP3    H254976   0.523   0.880   2.778 -1.1667  2.2444 -0.2723
10261TIP3   OH254977   6.020   6.311   3.914 -0.7681 -0.4666  0.4623
10261TIP3    H154978   6.000   6.331   3.823  0.5090  1.1411  0.4805
10261TIP3    H254979   5.936   6.320   3.960 -0.9342  1.5975 -0.1299
10262TIP3   OH254980   0.243   3.204   2.471 -0.0534 -0.1000  0.0155
10262TIP3    H154981   0.150   3.195   2.491 -0.3732  1.1801 -0.7978
10262TIP3    H254982   0.286   3.207   2.557 -0.6322 -1.6298  0.3928
10263TIP3   OH254983   3.056   6.043   2.511 -0.4026 -0.4660 -0.3336
10263TIP3    H154984   3.020   6.130   2.495  0.2460 -0.1047  0.0875
10263TIP3    H254985   2.985   5.983   2.491 -0.3719  0.0596 -2.2154
10264TIP3   OH254986   2.544   0.287   2.747  0.1349 -0.5585 -0.1009
10264TIP3    H154987   2.476   0.226   2.775  1.8539 -2.1140  0.9245
10264TIP3    H254988   2.577   0.326   2.827 -0.4989  1.2957 -0.7037
10265TIP3   OH254989   2.128   3.087   3.264 -0.9611  0.7491 -0.1223
10265TIP3    H154990   2.151   3.030   3.190 -0.1171  1.0612 -0.1081
10265TIP3    H254991   2.071   3.153   3.227  0.1928  1.4482 -0.7108
10266TIP3   OH254992   4.417   3.003   4.591 -0.2165  0.4505  0.0746
10266TIP3    H154993   4.322   2.994   4.598 -0.0583 -0.6402  1.0428
10266TIP3    H254994   4.445   3.032   4.678  0.3395  0.8461 -0.2307
10267TIP3   OH254995   3.187   5.116   2.035 -0.0372  0.1644 -0.3957
10267TIP3    H154996   3.263   5.121   1.978  1.2864  0.5388  1.3081
10267TIP3    H254997   3.146   5.203   2.028  0.8480  0.6462  0.1337
10268TIP3   OH254998   4.388   3.641   2.417 -0.5831 -0.5814  0.7853
10268TIP3    H154999   4.311   3.651   2.473 -0.3877 -1.0695  1.1474
10268TIP3    H255000   4.453   3.598   2.473  0.3951  0.9236  0.8694
10269TIP3   OH255001   2.467   0.660   4.056 -0.1692 -0.0607 -0.4355
10269TIP3    H155002   2.527   0.664   4.131  0.2896 -1.8164 -0.6672
10269TIP3    H255003   2.515   0.703   3.985 -0.5040  1.3831  0.1631
10270TIP3   OH255004   1.802   2.832   2.743  0.0457 -0.0211  0.4322
10270TIP3    H155005   1.866   2.892   2.782  1.3295 -1.4108  0.5499
10270TIP3    H255006   1.782   2.769   2.812 -0.1145 -0.6310 -0.1561
10271TIP3   OH255007   2.878   0.043   4.484  0.1980  0.4326  0.2558
10271TIP3    H155008   2.809   0.100   4.517  1.3529  1.9070  0.2663
10271TIP3    H255009   2.845   0.010   4.400 -1.6852 -1.2743  1.5667
10272TIP3   OH255010   2.344   5.508   3.519  0.7712  0.5998 -0.5009
10272TIP3    H155011   2.379   5.502   3.608 -1.5211 -2.7589  0.3753
10272TIP3    H255012   2.392   5.441   3.470 -0.0337  0.3544 -0.9720
10273TIP3   OH255013   2.158   3.601   2.024 -0.1214  0.0757  0.0249
10273TIP3    H155014   2.082   3.606   1.967  0.2571  1.4240 -0.3964
10273TIP3    H255015   2.134   3.651   2.102  0.3918  0.6959 -0.2024
10274TIP3   OH255016   3.476   5.769   4.205  0.2116 -0.1552  0.2175
10274TIP3    H155017   3.518   5.827   4.142 -0.6387  0.2073 -0.0267
10274TIP3    H255018   3.444   5.827   4.274  0.4252 -0.4681  0.5862
10275TIP3   OH255019   4.660   0.403   2.897 -0.0738 -0.3130  0.7167
10275TIP3    H155020   4.682   0.418   2.990 -1.6219  0.1714  1.0301
10275TIP3    H255021   4.567   0.423   2.891 -0.0017 -0.3606 -0.9595
10276TIP3   OH255022   6.088   5.029   2.781 -0.2127  0.2981 -0.2484
10276TIP3    H155023   6.073   5.038   2.687  1.3366 -2.3975 -0.8672
10276TIP3    H255024   6.182   5.012   2.788 -0.4116 -0.1592  1.7365
10277TIP3   OH255025   4.060   7.173   3.550  0.3441  0.2069  0.4548
10277TIP3    H155026   3.968   7.163   3.576 -0.0548 -0.9436 -1.2500
10277TIP3    H255027   4.103   7.095   3.584  0.4233  0.1279  0.1724
10278TIP3   OH255028   3.055   3.246   2.854  0.1404  0.5008 -0.4120
10278TIP3    H155029   2.990   3.192   2.900 -1.8770  1.0286 -2.4745
10278TIP3    H255030   3.109   3.183   2.806  0.9617  0.0858  0.9862
10279TIP3   OH255031   1.424   2.129   2.209 -0.6063  0.1512 -0.5236
10279TIP3    H155032   1.347   2.179   2.181 -0.4454 -0.3647 -1.9953
10279TIP3    H255033   1.388   2.054   2.255 -0.9956 -0.0417 -1.1307
10280TIP3   OH255034   2.042   5.635   3.749  0.0178  0.0678 -0.8174
10280TIP3    H155035   2.113   5.605   3.804  0.0517  0.3065 -0.7272
10280TIP3    H255036   1.962   5.603   3.791 -0.0033  0.8872 -0.2063
10281TIP3   OH255037   7.193   3.444   3.162 -0.0394 -0.3886  0.6510
10281TIP3    H155038   7.280   3.408   3.182 -0.2604 -0.5586  1.3483
10281TIP3    H255039   7.163   3.393   3.087  0.9552  0.4789 -0.3680
10282TIP3   OH255040   2.523   3.113   3.429  0.0208  0.2481 -0.0418
10282TIP3    H155041   2.601   3.098   3.483 -2.7221 -1.6871  3.9751
10282TIP3    H255042   2.499   3.204   3.446  1.0340  0.6703 -0.8195
10283TIP3   OH255043   5.575   2.284   2.950  0.6460 -0.1480  0.0260
10283TIP3    H155044   5.521   2.351   2.908  1.2198 -0.2701 -0.9203
10283TIP3    H255045   5.573   2.210   2.889  1.3650 -0.3838  0.2822
10284TIP3   OH255046   5.295   1.000   4.318 -0.4819 -0.0800  0.0214
10284TIP3    H155047   5.249   0.927   4.359 -1.4166  0.1893 -0.5335
10284TIP3    H255048   5.382   0.964   4.296  0.0575 -0.2252  2.2041
10285TIP3   OH255049   3.083   3.187   4.855  0.5272  0.2225  0.2541
10285TIP3    H155050   3.136   3.224   4.785  0.1884 -0.8460 -0.5915
10285TIP3    H255051   3.137   3.198   4.934  0.7306  1.8060 -0.0854
10286TIP3   OH255052   2.255   1.702   4.420 -0.2120 -0.0540  0.3830
10286TIP3    H155053   2.302   1.738   4.495  0.0110  0.2936  0.0867
10286TIP3    H255054   2.287   1.754   4.346 -1.4344  0.5257  0.2391
10287TIP3   OH255055   6.377   0.392   3.649  0.2166  0.0673 -0.0326
10287TIP3    H155056   6.368   0.298   3.631 -0.8951  0.2684 -0.6052
10287TIP3    H255057   6.393   0.431   3.563 -0.2980  0.5031  0.0671
10288TIP3   OH255058   7.462   0.948   4.877  0.1524 -0.0725  0.2569
10288TIP3    H155059   7.522   0.914   4.811 -0.0220 -1.2793  0.6889
10288TIP3    H255060   7.400   0.876   4.892  0.0213  0.2752  1.5141
10289TIP3   OH255061   6.162   5.301   2.860 -0.0875  0.3241  0.4766
10289TIP3    H155062   6.098   5.231   2.869 -0.3888  0.7679  2.0579
10289TIP3    H255063   6.232   5.279   2.921  0.0194  1.1704  0.6783
10290TIP3   OH255064   1.464   6.172   4.416  0.2702 -0.0455  0.0521
10290TIP3    H155065   1.416   6.131   4.488 -2.2321  0.5518 -1.1336
10290TIP3    H255066   1.443   6.265   4.423  1.1827  0.2264 -0.6036
10291TIP3   OH255067   4.929   1.198   4.501  0.1539 -0.7156  0.2240
10291TIP3    H155068   4.867   1.133   4.469 -0.3142  0.1627 -0.6692
10291TIP3    H255069   4.925   1.189   4.596  0.3122 -2.1835  0.1206
10292TIP3   OH255070   7.368   4.830   2.619 -0.6347 -0.0479  0.3005
10292TIP3    H155071   7.377   4.741   2.585  0.9100  0.6425 -1.2500
10292TIP3    H255072   7.277   4.854   2.600 -0.9033 -1.0799  0.2226
10293TIP3   OH255073   4.416   4.711   3.561  0.3210 -0.5841 -0.2373
10293TIP3    H155074   4.457   4.786   3.518 -1.2805  1.0474  0.9247
10293TIP3    H255075   4.328   4.707   3.524  0.0276 -1.2082  0.5031
10294TIP3   OH255076   5.678   4.418   3.097 -0.0815 -0.2071  0.2693
10294TIP3    H155077   5.750   4.465   3.137 -0.4252 -0.7578  1.5839
10294TIP3    H255078   5.666   4.340   3.152 -1.2605 -0.4447 -0.2878
10295TIP3   OH255079   2.184   4.616   3.503  0.2685  0.0997 -0.2314
10295TIP3    H155080   2.153   4.693   3.551  2.4092  1.6332 -1.1501
10295TIP3    H255081   2.266   4.644   3.463  1.2307 -2.7463 -0.4797
10296TIP3   OH255082   3.617   3.171   3.212 -0.4844 -0.3933  0.0157
10296TIP3    H155083   3.695   3.221   3.189 -0.0577 -1.0061  0.1127
10296TIP3    H255084   3.548   3.208   3.157  0.0539 -0.4106 -0.6849
10297TIP3   OH255085   4.459   2.394   2.978  0.4849 -0.2153  0.7447
10297TIP3    H155086   4.471   2.484   2.950  1.3135  0.0143  1.7805
10297TIP3    H255087   4.524   2.344   2.927  0.9202 -0.0288  1.1105
10298TIP3   OH255088   6.740   4.933   2.190  0.1260  0.2176 -0.5750
10298TIP3    H155089   6.799   4.867   2.155  0.6782  1.0291 -1.2214
10298TIP3    H255090   6.653   4.903   2.164  0.4046 -0.0347 -1.2467
10299TIP3   OH255091   2.835   4.258   2.566 -0.1078  0.7082  0.3470
10299TIP3    H155092   2.795   4.343   2.548  1.6643  1.1663 -1.9283
10299TIP3    H255093   2.908   4.253   2.505  1.4093 -1.3808  2.1886
10300TIP3   OH255094   0.060   3.211   3.640 -0.0192  0.1075  0.2164
10300TIP3    H155095   0.115   3.134   3.634  0.9043  0.7850 -0.1908
10300TIP3    H255096   0.109   3.272   3.695 -0.4453  0.6471  0.0099
10301TIP3   OH255097   7.264   2.820   3.543  0.5150 -0.0280 -0.4961
10301TIP3    H155098   7.283   2.731   3.573  2.8924  0.1965 -1.1266
10301TIP3    H255099   7.295   2.877   3.614 -1.7155  0.3640  0.2634
10302TIP3   OH255100   4.839   2.459   3.472 -0.6939  0.2790 -0.5978
10302TIP3    H155101   4.827   2.554   3.476 -0.4629  0.2653  1.3791
10302TIP3    H255102   4.863   2.442   3.380 -0.8031  2.1007 -1.0083
10303TIP3   OH255103   0.202   3.008   4.066  0.4612  0.3226  0.0142
10303TIP3    H155104   0.206   2.927   4.117  0.2546  0.8738  0.9317
10303TIP3    H255105   0.294   3.031   4.051  0.5228  0.1799  0.1723
10304TIP3   OH255106   1.930   7.347   3.491 -0.7841  0.1756 -0.0303
10304TIP3    H155107   2.017   7.324   3.523 -1.3097 -1.1653  0.5155
10304TIP3    H255108   1.919   7.439   3.515  0.5378  0.4076 -0.2508
10305TIP3   OH255109   4.111   1.562   2.870  0.0764  0.2342  0.1909
10305TIP3    H155110   4.193   1.611   2.862  1.4883 -1.7997  1.2351
10305TIP3    H255111   4.127   1.481   2.821 -0.9426 -0.5956  1.1753
10306TIP3   OH255112   5.972   1.667   4.119 -0.0112  0.4052 -0.0024
10306TIP3    H155113   5.993   1.729   4.190  0.3060 -0.4178  0.6357
10306TIP3    H255114   5.921   1.599   4.161  0.8750 -0.5173 -0.3866
10307TIP3   OH255115   0.107   4.253   4.195 -0.0848 -0.4515  0.3360
10307TIP3    H155116   0.196   4.218   4.202  0.4231  0.5807 -0.6249
10307TIP3    H255117   0.053   4.193   4.246  1.1550 -1.1298  0.8832
10308TIP3   OH255118   6.073   0.478   3.470 -0.0510 -1.2638 -0.2245
10308TIP3    H155119   6.032   0.408   3.420 -1.6400 -0.2149 -0.4875
10308TIP3    H255120   6.094   0.545   3.405  0.1255 -0.8932  0.2048
10309TIP3   OH255121   3.467   0.454   2.835  0.3738  0.3965 -0.0052
10309TIP3    H155122   3.461   0.377   2.777 -0.1293  0.7561 -0.4337
10309TIP3    H255123   3.535   0.508   2.794  0.3195  0.4513 -0.0219
10310TIP3   OH255124   6.290   0.761   2.051 -0.3791 -0.1775 -0.0919
10310TIP3    H155125   6.338   0.842   2.031 -0.9542 -0.1323 -1.4406
10310TIP3    H255126   6.357   0.693   2.053  0.3579  0.5201  2.7240
10311TIP3   OH255127   1.555   3.109   4.007  0.1206  0.0427  0.2042
10311TIP3    H155128   1.524   3.021   4.029  0.0538 -0.5586 -2.0339
10311TIP3    H255129   1.641   3.095   3.968 -0.9443  0.6415 -2.5288
10312TIP3   OH255130   3.707   6.446   3.716 -0.1895 -0.2628  0.0213
10312TIP3    H155131   3.737   6.501   3.644  0.7205  0.5037  0.9708
10312TIP3    H255132   3.671   6.508   3.780 -0.5310 -0.8928  0.4445
10313TIP3   OH255133   1.804   6.658   2.789  0.4606  0.0863 -0.3447
10313TIP3    H155134   1.741   6.595   2.824 -1.4920  2.4724  0.7381
10313TIP3    H255135   1.887   6.636   2.833 -0.6128 -0.5290  1.5054
10314TIP3   OH255136   4.602   0.638   2.685 -0.4541 -0.3224 -0.4370
10314TIP3    H155137   4.622   0.588   2.764 -1.2166  0.3038  0.1666
10314TIP3    H255138   4.621   0.578   2.613  1.2161 -0.5640  0.1767
10315TIP3   OH255139   5.795   6.505   4.337 -0.3347  0.7932 -0.0271
10315TIP3    H155140   5.716   6.491   4.390  0.3299  0.1718  0.8366
10315TIP3    H255141   5.769   6.570   4.272 -2.4493 -1.5255 -1.6959
10316TIP3   OH255142   3.079   1.074   4.291  0.0594 -0.1669 -0.5179
10316TIP3    H155143   2.988   1.099   4.276 -0.2264 -1.4267 -1.0112
10316TIP3    H255144   3.073   0.991   4.338  0.9624 -0.1763 -0.4118
10317TIP3   OH255145   6.076   2.826   3.963 -0.2556 -0.2405  0.3740
10317TIP3    H155146   6.152   2.849   3.910 -0.3905 -0.3053  0.1533
10317TIP3    H255147   6.104   2.841   4.053  0.1090 -0.5231  0.3083
10318TIP3   OH255148   1.352   5.675   2.140 -0.4256 -0.1183  0.7144
10318TIP3    H155149   1.402   5.616   2.084  1.3827 -0.0309  2.1755
10318TIP3    H255150   1.346   5.630   2.224  0.3774  1.4373  1.6417
10319TIP3   OH255151   7.188   2.239   2.568 -0.1676  0.5266 -0.3372
10319TIP3    H155152   7.281   2.252   2.549 -0.1957  0.5794 -0.4380
10319TIP3    H255153   7.162   2.167   2.510  0.1106 -0.3363  0.5875
10320TIP3   OH255154   5.931   5.331   3.906 -0.2668 -0.2626 -0.2081
10320TIP3    H155155   5.899   5.278   3.979 -0.2194 -0.6160 -0.4394
10320TIP3    H255156   5.852   5.355   3.858 -0.1808 -1.3433 -0.9202
10321TIP3   OH255157   7.468   0.357   2.988 -0.5099 -0.1692  0.2980
10321TIP3    H155158   7.466   0.410   2.908 -3.4531  0.7892  0.8870
10321TIP3    H255159   7.468   0.267   2.957 -1.1164  0.1886 -0.7989
10322TIP3   OH255160   5.611   1.143   3.841  0.0120 -0.8562 -0.3204
10322TIP3    H155161   5.599   1.116   3.750  0.0442 -0.2602 -0.5106
10322TIP3    H255162   5.580   1.069   3.893 -0.3994 -1.0376 -0.8168
10323TIP3   OH255163   5.190   4.901   4.075  0.6796  0.3198  0.5036
10323TIP3    H155164   5.277   4.925   4.108  1.0112 -0.8559  0.5677
10323TIP3    H255165   5.166   4.971   4.015  2.9013 -0.6173 -1.6554
10324TIP3   OH255166   0.425   7.079   4.461  0.2247  0.3195 -0.3919
10324TIP3    H155167   0.367   7.008   4.488 -0.1809  1.8129  3.1364
10324TIP3    H255168   0.366   7.145   4.423  0.2246  0.0587 -0.8591
10325TIP3   OH255169   5.053   3.110   3.396  0.1040 -0.2917 -0.6636
10325TIP3    H155170   5.042   3.173   3.467 -0.2611  0.1398 -1.0913
10325TIP3    H255171   5.118   3.150   3.338  1.2515 -1.1675 -0.0008
10326TIP3   OH255172   5.278   5.194   3.303  0.1889 -0.2846  0.3441
10326TIP3    H155173   5.202   5.142   3.326 -0.4687  0.3572 -0.2941
10326TIP3    H255174   5.262   5.220   3.212  1.3152 -0.3835  0.1026
10327TIP3   OH255175   0.118   6.392   4.353 -0.1158  0.0000 -0.4841
10327TIP3    H155176   0.172   6.396   4.432 -2.1010 -2.1351  1.1271
10327TIP3    H255177   0.093   6.483   4.337  1.4220  0.6437  0.5376
10328TIP3   OH255178   0.433   2.812   3.799 -0.2313 -0.2651  0.2081
10328TIP3    H155179   0.418   2.736   3.856  1.1722  0.3833  1.5367
10328TIP3    H255180   0.453   2.883   3.860 -1.6970  1.2583 -0.9900
10329TIP3   OH255181   4.011   1.781   3.018  0.4575  0.2313 -0.2967
10329TIP3    H155182   4.062   1.754   3.095 -0.3458 -0.9765 -0.1665
10329TIP3    H255183   4.018   1.707   2.958 -1.0636  0.0598 -0.2987
10330TIP3   OH255184   2.538   5.934   3.076  0.1685 -0.0453 -0.2192
10330TIP3    H155185   2.596   5.963   3.006  1.0576  0.4905  0.7101
10330TIP3    H255186   2.467   5.888   3.031  0.6140  0.4490 -1.4745
10331TIP3   OH255187   2.265   3.503   2.932  0.3434  0.0494 -0.6711
10331TIP3    H155188   2.267   3.579   2.991  1.5258 -0.5835  0.1483
10331TIP3    H255189   2.210   3.531   2.858 -0.3618  1.2113  0.2552
10332TIP3   OH255190   5.623   7.460   2.827  0.0027 -0.0985 -0.7356
10332TIP3    H155191   5.539   7.504   2.814 -0.6558 -1.0202  0.1883
10332TIP3    H255192   5.668   7.469   2.744 -0.9581  0.5421 -1.2059
10333TIP3   OH255193   2.119   5.248   2.981  0.1399  0.2697 -0.4751
10333TIP3    H155194   2.039   5.204   3.011  1.3291 -1.1219  0.8429
10333TIP3    H255195   2.088   5.319   2.926 -2.0301  0.1333  0.4639
10334TIP3   OH255196   5.059   1.205   2.361 -0.3480  0.2473  0.4516
10334TIP3    H155197   5.032   1.294   2.384  0.7189  0.1214  2.3512
10334TIP3    H255198   4.978   1.154   2.365 -0.8050  0.9453  0.3023
10335TIP3   OH255199   2.195   3.963   3.112 -0.0132  0.3613  0.1856
10335TIP3    H155200   2.129   3.928   3.173 -0.2100  1.6922  0.7685
10335TIP3    H255201   2.144   3.997   3.039  0.0207  1.2890  0.5847
10336TIP3   OH255202   3.113   1.381   2.448 -0.1872 -0.1690  0.6019
10336TIP3    H155203   3.145   1.307   2.398  2.1456  0.2987  1.2798
10336TIP3    H255204   3.018   1.375   2.442 -0.1262 -3.5101  1.0862
10337TIP3   OH255205   0.699   4.946   2.268 -0.0596 -0.0612 -1.0944
10337TIP3    H155206   0.744   5.018   2.314 -0.0951  0.6541 -2.1482
10337TIP3    H255207   0.621   4.987   2.231 -0.6601 -0.9024 -0.7872
10338TIP3   OH255208   2.345   5.793   2.313 -0.0977 -0.4594  0.5295
10338TIP3    H155209   2.274   5.856   2.307 -0.8613 -1.2676  0.8868
10338TIP3    H255210   2.326   5.743   2.392  0.6236 -0.9746  0.3855
10339TIP3   OH255211   1.409   2.834   2.771  0.2601  0.1569 -0.0665
10339TIP3    H155212   1.387   2.861   2.861  1.5080  0.6024  0.1316
10339TIP3    H255213   1.338   2.869   2.718 -1.8527 -2.2329  0.9922
10340TIP3   OH255214   1.454   2.298   2.453  0.2361 -0.6947 -0.4464
10340TIP3    H155215   1.505   2.267   2.378  1.4964 -1.2276  0.5840
10340TIP3    H255216   1.519   2.330   2.514 -0.8651  1.1377 -0.1681
10341TIP3   OH255217   0.583   6.804   3.274 -0.3193 -0.0440  0.9213
10341TIP3    H155218   0.497   6.828   3.308 -0.8341  0.6827 -0.7503
10341TIP3    H255219   0.597   6.864   3.200  0.7612 -1.4142 -0.0508
10342TIP3   OH255220   1.128   0.929   3.933 -0.1162 -0.0228 -0.5944
10342TIP3    H155221   1.213   0.944   3.892 -0.7206  0.9500 -1.5722
10342TIP3    H255222   1.107   1.013   3.974  0.2157 -0.8136  1.2725
10343TIP3   OH255223   6.904   1.787   2.682  0.4711  0.1610  0.6340
10343TIP3    H155224   6.904   1.876   2.717 -0.9465 -0.0113  1.1429
10343TIP3    H255225   6.844   1.738   2.738  2.3359 -1.5263  1.2808
10344TIP3   OH255226   2.285   0.540   3.818 -0.0273  0.1289  0.0644
10344TIP3    H155227   2.313   0.502   3.901  0.2128 -0.9078 -0.4798
10344TIP3    H255228   2.358   0.595   3.791  0.4960 -0.6764 -0.1692
10345TIP3   OH255229   3.665   1.544   2.037 -0.8272 -0.1246  0.2016
10345TIP3    H155230   3.671   1.638   2.051 -0.1889 -0.0887 -0.2854
10345TIP3    H255231   3.671   1.533   1.942  0.9391 -0.7756  0.3588
10346TIP3   OH255232   2.920   5.239   3.707  0.0779  0.2846  0.1551
10346TIP3    H155233   2.825   5.235   3.716 -0.0849  0.5420 -1.2778
10346TIP3    H255234   2.945   5.153   3.675  0.3601  0.1443  0.7432
10347TIP3   OH255235   5.309   2.666   2.667 -0.3142  0.4517  0.2569
10347TIP3    H155236   5.234   2.673   2.726 -0.2960  0.3617  0.2908
10347TIP3    H255237   5.272   2.635   2.585 -0.0033 -2.1178  0.9744
10348TIP3   OH255238   7.370   5.927   2.980  0.5188 -0.4819  0.3274
10348TIP3    H155239   7.381   5.934   2.885  0.6369  0.0875  0.3833
10348TIP3    H255240   7.423   5.997   3.016 -1.3532  0.8138  0.7126
10349TIP3   OH255241   0.435   0.287   3.883  0.1019  0.0413 -0.4156
10349TIP3    H155242   0.497   0.220   3.912  0.3238  0.7234  0.7475
10349TIP3    H255243   0.458   0.303   3.792  1.9872  0.6276  0.1149
10350TIP3   OH255244   7.417   3.404   4.855  0.1075 -0.5734 -0.3405
10350TIP3    H155245   7.329   3.368   4.871 -0.5933 -0.0995 -2.6977
10350TIP3    H255246   7.404   3.499   4.859  0.3523 -0.4888 -1.2929
10351TIP3   OH255247   5.366   6.926   2.321 -0.0542 -0.0835 -0.1474
10351TIP3    H155248   5.319   6.911   2.402  1.0736  0.0233  0.5541
10351TIP3    H255249   5.348   7.017   2.299 -0.1275 -0.0254  0.1510
10352TIP3   OH255250   5.147   1.961   3.964 -0.9629 -0.2617 -0.1148
10352TIP3    H155251   5.101   1.990   4.042 -1.9416 -0.5306 -0.5738
10352TIP3    H255252   5.112   2.015   3.894 -0.3896 -0.3002 -0.4431
10353TIP3   OH255253   5.935   6.532   4.559  0.1731  0.0804  0.0922
10353TIP3    H155254   5.878   6.585   4.615  1.1544  2.0085 -0.6135
10353TIP3    H255255   5.884   6.518   4.479 -0.1318 -0.1354  0.3244
10354TIP3   OH255256   2.007   3.695   2.937  0.2363 -0.0747 -0.8048
10354TIP3    H155257   2.054   3.685   2.854  1.3173  0.8250 -0.3302
10354TIP3    H255258   1.995   3.790   2.947  2.4973  0.1006  1.2938
10355TIP3   OH255259   3.302   1.305   3.380  0.3978  0.0810  0.0728
10355TIP3    H155260   3.238   1.357   3.429  0.6534  0.9627 -0.5084
10355TIP3    H255261   3.387   1.340   3.408  0.5663  0.0866 -0.4392
10356TIP3   OH255262   5.047   7.581   4.038 -0.1937  0.0071  0.4034
10356TIP3    H155263   5.132   7.566   4.081 -0.7871 -0.1291  1.5757
10356TIP3    H255264   5.042   7.676   4.028  0.1728  0.0045  0.1598
10357TIP3   OH255265   0.515   5.453   3.650  0.2346 -0.4918 -0.3073
10357TIP3    H155266   0.600   5.416   3.626  0.0282 -1.1325 -0.0744
10357TIP3    H255267   0.455   5.379   3.648 -0.2378 -0.1245 -0.0498
10358TIP3   OH255268   2.460   6.088   3.308  0.2283  0.1324 -0.0133
10358TIP3    H155269   2.490   6.086   3.399  0.0211  0.5088  0.0638
10358TIP3    H255270   2.509   6.017   3.266  2.0528  1.4119 -0.1506
10359TIP3   OH255271   0.565   0.604   3.044 -0.2241 -0.4342  0.6736
10359TIP3    H155272   0.479   0.627   3.009 -0.2011  0.6589  1.3038
10359TIP3    H255273   0.550   0.527   3.098 -0.7162 -0.5518  0.3718
10360TIP3   OH255274   2.706   1.933   4.049 -0.3220  0.6999  0.1517
10360TIP3    H155275   2.790   1.977   4.062  1.4292 -1.6360 -2.2192
10360TIP3    H255276   2.642   2.004   4.042  1.4353  2.5714  1.7685
10361TIP3   OH255277   5.707   5.339   2.766  0.0261  0.7841  0.4079
10361TIP3    H155278   5.768   5.394   2.716 -0.6220  0.2440 -1.0455
10361TIP3    H255279   5.717   5.368   2.856  2.0047  1.1235  0.1399
10362TIP3   OH255280   3.707   1.496   4.330 -0.2401 -0.5642  0.5149
10362TIP3    H155281   3.745   1.411   4.307  0.3300 -0.1198 -0.2318
10362TIP3    H255282   3.732   1.508   4.422  1.5823 -0.2412  0.0332
10363TIP3   OH255283   3.690   4.711   3.949 -0.5117  0.0095  0.1304
10363TIP3    H155284   3.699   4.701   4.044 -0.5961  3.7824  0.6747
10363TIP3    H255285   3.613   4.658   3.927 -0.9669 -0.3200  2.2894
10364TIP3   OH255286   7.417   0.740   2.752 -0.0849  0.0264  0.1768
10364TIP3    H155287   7.494   0.759   2.699  0.1803 -0.7460  0.2679
10364TIP3    H255288   7.377   0.825   2.768  0.5628  0.4005 -0.1550
10365TIP3   OH255289   3.550   6.016   3.396 -0.3781 -1.0148 -0.4559
10365TIP3    H155290   3.645   6.027   3.388 -0.6063  1.5760 -0.6325
10365TIP3    H255291   3.513   6.086   3.342 -2.3144  0.0583  2.0477
10366TIP3   OH255292   0.689   3.704   4.060 -0.4093 -0.5018  0.0418
10366TIP3    H155293   0.648   3.790   4.071  1.9928  0.6915  0.4518
10366TIP3    H255294   0.662   3.676   3.972 -1.3587  0.6008 -0.0453
10367TIP3   OH255295   1.417   2.123   3.409  0.0402  0.2006  0.1268
10367TIP3    H155296   1.512   2.124   3.415  0.0322  1.7355  0.5177
10367TIP3    H255297   1.387   2.156   3.494 -0.8712 -0.9263  0.2687
10368TIP3   OH255298   0.214   0.031   3.205 -0.7844  0.1703 -0.2993
10368TIP3    H155299   0.240  -0.044   3.259  0.3517 -0.5017 -1.7187
10368TIP3    H255300   0.158  -0.007   3.137 -2.3312  1.0322  0.4456
10369TIP3   OH255301   3.768   1.668   3.278 -0.0620  0.0141  0.2448
10369TIP3    H155302   3.826   1.614   3.224  1.3179  1.3210  0.3654
10369TIP3    H255303   3.784   1.638   3.367  0.5135  0.4153  0.2852
10370TIP3   OH255304   1.082   2.125   4.291  0.1711 -0.0768  0.2302
10370TIP3    H155305   1.102   2.032   4.285  0.9281  0.1611 -1.7245
10370TIP3    H255306   0.991   2.133   4.261  0.3724 -0.1060 -0.3938
10371TIP3   OH255307   3.389   3.138   3.764 -0.7296  0.3409  0.3519
10371TIP3    H155308   3.470   3.109   3.722 -0.4749  0.0082  1.0552
10371TIP3    H255309   3.380   3.230   3.739 -0.3865  0.2513 -0.1142
10372TIP3   OH255310   6.937   6.316   3.504 -0.5449 -0.4906 -0.3477
10372TIP3    H155311   7.020   6.268   3.506 -0.5350 -0.4687 -0.2215
10372TIP3    H255312   6.876   6.256   3.459 -0.2900 -0.2282 -1.0580
10373TIP3   OH255313   6.967   4.410   3.699  0.4736  0.2884 -0.2367
10373TIP3    H155314   6.989   4.503   3.706  2.6964 -0.1895 -0.0893
10373TIP3    H255315   6.918   4.391   3.778  2.1368  0.8373  0.9880
10374TIP3   OH255316   3.233   2.192   4.292  0.5052 -0.5370 -0.2611
10374TIP3    H155317   3.246   2.154   4.379 -0.4623 -1.3341 -0.4488
10374TIP3    H255318   3.274   2.129   4.232  0.5886 -0.3197 -0.4337
10375TIP3   OH255319   7.363   6.846   3.404 -0.0167  0.0736  0.5586
10375TIP3    H155320   7.427   6.882   3.342  0.0168  0.2658  0.7022
10375TIP3    H255321   7.330   6.923   3.451  0.3505 -0.1184  1.1508
10376TIP3   OH255322   0.893   6.922   4.241 -0.4852 -0.4068 -0.1215
10376TIP3    H155323   0.820   6.983   4.230 -0.5073  0.2359  2.7234
10376TIP3    H255324   0.888   6.895   4.333  1.7980 -1.7616 -0.3177
10377TIP3   OH255325   3.478   1.459   4.177  0.4596  0.4281  0.9864
10377TIP3    H155326   3.573   1.472   4.172  0.4164  0.3777 -2.1819
10377TIP3    H255327   3.467   1.375   4.222  2.1456 -0.9486 -0.9745
10378TIP3   OH255328   3.005   6.993   3.811  0.5850 -0.2595 -0.2497
10378TIP3    H155329   3.033   7.059   3.749  0.3223 -0.9905 -1.1657
10378TIP3    H255330   2.944   6.938   3.762 -1.4538  0.4790  1.2621
10379TIP3   OH255331   2.487   2.947   2.994 -0.7279 -0.1829 -0.0811
10379TIP3    H155332   2.395   2.963   2.977 -0.3604  1.3349 -0.8151
10379TIP3    H255333   2.528   3.034   2.991  0.9554 -0.9612 -1.2441
10380TIP3   OH255334   7.228   2.544   3.711  0.1995 -0.5057 -0.8757
10380TIP3    H155335   7.251   2.584   3.795  0.4874  1.2375 -1.7413
10380TIP3    H255336   7.290   2.472   3.702 -0.7426 -1.6339  1.0210
10381TIP3   OH255337   3.717   6.796   2.514 -0.1007 -0.3240 -0.1486
10381TIP3    H155338   3.677   6.875   2.549  2.4359  0.6714  0.7662
10381TIP3    H255339   3.644   6.735   2.501 -2.0305  1.8687 -0.1743
10382TIP3   OH255340   7.288   7.285   2.662  0.0134 -0.8485  0.5077
10382TIP3    H155341   7.367   7.282   2.608 -0.0188 -1.5091  0.4934
10382TIP3    H255342   7.216   7.268   2.602 -0.3092  1.2558  0.2272
10383TIP3   OH255343   0.979   4.625   3.475 -0.1722  0.7192  0.5760
10383TIP3    H155344   0.950   4.675   3.399 -0.3882 -0.8879 -0.4425
10383TIP3    H255345   1.053   4.676   3.510 -0.0974  1.5145 -0.6770
10384TIP3   OH255346   5.274   1.039   3.821 -0.5082 -0.1542  0.1419
10384TIP3    H155347   5.192   1.041   3.869 -0.1643  1.0893  0.7339
10384TIP3    H255348   5.342   1.030   3.888 -0.1920 -3.4784 -0.4707
10385TIP3   OH255349   3.773   2.181   2.869 -0.2620 -0.1515  0.5126
10385TIP3    H155350   3.774   2.113   2.802 -1.3786  0.7948 -0.5091
10385TIP3    H255351   3.752   2.135   2.950  0.8339 -1.2729  0.1942
10386TIP3   OH255352   4.315   5.887   2.028  0.2533 -0.5011 -0.9017
10386TIP3    H155353   4.232   5.899   1.981 -0.1098 -2.0349 -0.7297
10386TIP3    H255354   4.305   5.937   2.108  0.6727  1.7251 -2.1684
10387TIP3   OH255355   6.499   1.820   3.988 -0.1214 -0.5397  0.0704
10387TIP3    H155356   6.494   1.849   4.079  0.1115  0.4076 -0.2049
10387TIP3    H255357   6.421   1.857   3.947 -0.1416 -0.8284 -0.1556
10388TIP3   OH255358   2.217   4.197   1.889  0.4207 -0.2115  0.0236
10388TIP3    H155359   2.130   4.195   1.930 -0.4739 -3.2772 -1.7381
10388TIP3    H255360   2.209   4.261   1.819 -0.3761 -0.3535 -0.0252
10389TIP3   OH255361   1.757   3.009   2.081 -0.8901 -0.5174 -0.0473
10389TIP3    H155362   1.734   2.999   2.173 -1.9425  0.6838 -0.1424
10389TIP3    H255363   1.688   2.964   2.033 -0.2858 -1.2377 -0.2600
10390TIP3   OH255364   3.849   2.115   3.686 -0.3067  0.2876 -0.1515
10390TIP3    H155365   3.824   2.026   3.661 -1.4557  0.6805 -0.4474
10390TIP3    H255366   3.767   2.156   3.715  0.3419  1.0098  0.7357
10391TIP3   OH255367   6.711   5.752   4.677 -0.3034 -0.2878 -0.3253
10391TIP3    H155368   6.675   5.687   4.738 -1.0312 -0.8211 -1.2809
10391TIP3    H255369   6.770   5.805   4.730 -0.2372 -1.2852  0.6433
10392TIP3   OH255370   5.641   2.147   2.363  0.3437  0.0767  0.2218
10392TIP3    H155371   5.690   2.217   2.405  0.5007  1.3137 -1.8430
10392TIP3    H255372   5.560   2.140   2.413  0.7678  1.0539  1.0724
10393TIP3   OH255373   0.914   4.908   3.659  0.6209  0.1669  0.1005
10393TIP3    H155374   0.920   4.895   3.565  1.2582 -0.4729  0.2251
10393TIP3    H255375   0.983   4.853   3.696  0.7187  0.8085  0.9107
10394TIP3   OH255376   1.026   3.546   2.127 -0.1377 -0.3516 -0.2018
10394TIP3    H155377   1.051   3.528   2.036 -0.3482  1.6583 -0.7031
10394TIP3    H255378   1.071   3.479   2.178  2.2264  0.0886 -1.5542
10395TIP3   OH255379   0.315   1.108   3.805  0.7048 -0.7361  0.2362
10395TIP3    H155380   0.310   1.030   3.750 -0.4155 -0.2163 -0.4332
10395TIP3    H255381   0.368   1.081   3.880  1.1424 -1.8516 -0.4448
10396TIP3   OH255382   3.617   2.952   3.395  0.5126 -0.3672  0.1705
10396TIP3    H155383   3.704   2.979   3.367  0.4665 -0.4730 -0.0751
10396TIP3    H255384   3.557   2.994   3.333  0.5366 -2.7868 -1.6136
10397TIP3   OH255385   1.231   3.580   1.906 -0.2438 -0.1528 -0.5953
10397TIP3    H155386   1.285   3.641   1.855  1.4674  0.0541  1.3366
10397TIP3    H255387   1.289   3.505   1.922 -0.9948 -0.5527  0.3492
10398TIP3   OH255388   6.916   5.948   3.645  0.1911 -0.1435  0.1629
10398TIP3    H155389   6.887   5.885   3.579  0.2479  1.5680 -1.5752
10398TIP3    H255390   7.010   5.929   3.656  0.6213  0.7009 -1.6600
10399TIP3   OH255391   0.304   0.659   2.956  0.5662 -0.4429 -0.0300
10399TIP3    H155392   0.268   0.722   3.019  0.8790  0.2512 -0.5282
10399TIP3    H255393   0.227   0.618   2.917  0.3717 -1.2038  1.1063
10400TIP3   OH255394   0.822   3.212   2.802  0.2513 -1.1774  0.1933
10400TIP3    H155395   0.904   3.163   2.799  1.7538  1.2023  0.0643
10400TIP3    H255396   0.797   3.211   2.895  0.9317 -1.1620  0.3847
10401TIP3   OH255397   2.741   1.504   3.132 -0.6045 -0.0543 -0.1701
10401TIP3    H155398   2.736   1.598   3.110 -0.2240  0.0561  0.1967
10401TIP3    H255399   2.783   1.502   3.217 -1.4596 -0.5169  0.2538
10402TIP3   OH255400   1.356   3.164   2.139  0.0687  0.3389  0.5172
10402TIP3    H155401   1.298   3.094   2.109  0.8186  0.1169 -0.4764
10402TIP3    H255402   1.409   3.123   2.207  0.0815  0.1195  0.3761
10403TIP3   OH255403   2.122   1.120   4.339 -0.0332 -0.1726  0.6876
10403TIP3    H155404   2.202   1.071   4.318 -0.3162 -1.4055  2.2851
10403TIP3    H255405   2.051   1.066   4.304 -0.2373  0.5177 -0.0067
10404TIP3   OH255406   2.309   5.070   3.870 -0.1594  0.5857 -0.2605
10404TIP3    H155407   2.257   5.121   3.932 -1.2108  0.4417 -0.9945
10404TIP3    H255408   2.341   4.996   3.920 -0.4542  0.8143  0.2721
10405TIP3   OH255409   0.771   4.877   2.555 -0.5432 -0.5974  0.1802
10405TIP3    H155410   0.721   4.885   2.474  0.6418  1.2835 -0.4535
10405TIP3    H255411   0.841   4.815   2.535  0.1887  0.4288 -0.5151
10406TIP3   OH255412   0.593   4.582   2.654 -0.1078  0.3898 -0.1747
10406TIP3    H155413   0.593   4.662   2.602 -0.3727  0.6264  0.1844
10406TIP3    H255414   0.588   4.612   2.745  2.2148  0.0755  0.1400
10407TIP3   OH255415   3.203   0.722   2.545 -0.4654 -0.3463  0.1615
10407TIP3    H155416   3.238   0.798   2.499  0.9124 -0.6495  0.6587
10407TIP3    H255417   3.177   0.662   2.476  0.2606 -0.2154 -0.2403
10408TIP3   OH255418   3.666   5.980   2.166 -0.2143 -0.0517  0.0571
10408TIP3    H155419   3.611   5.913   2.126 -2.3151  1.8591 -0.4756
10408TIP3    H255420   3.721   6.011   2.094 -1.9513  1.3718 -0.7347
10409TIP3   OH255421   2.940   5.795   3.894 -0.3198 -0.4586 -0.0007
10409TIP3    H155422   2.958   5.888   3.884  0.1688 -0.5313  0.1762
10409TIP3    H255423   3.025   5.756   3.917 -0.8203 -0.7076  1.5656
10410TIP3   OH255424   6.615   7.118   2.863 -0.5041  0.8831 -0.6219
10410TIP3    H155425   6.580   7.048   2.808  1.3638 -0.1398 -0.6028
10410TIP3    H255426   6.635   7.076   2.946  1.7570  1.0964 -0.9950
10411TIP3   OH255427   6.798   5.763   2.371 -0.6591  0.1887 -0.3828
10411TIP3    H155428   6.856   5.757   2.447 -1.3411 -0.1170  0.1229
10411TIP3    H255429   6.849   5.727   2.299  0.5076  1.7374 -0.3844
10412TIP3   OH255430   4.623   6.944   2.116 -0.0822 -0.3251 -0.8524
10412TIP3    H155431   4.601   7.036   2.099 -2.1681 -0.6295 -0.1107
10412TIP3    H255432   4.712   6.947   2.151 -0.0926  1.4016 -0.8806
10413TIP3   OH255433   4.245   0.701   5.044 -0.1154 -0.4690 -0.1157
10413TIP3    H155434   4.336   0.686   5.018 -0.1898 -0.0256 -0.6438
10413TIP3    H255435   4.226   0.631   5.106  0.6425 -0.4701  0.1256
10414TIP3   OH255436   7.632   0.806   2.583 -0.1802  0.4418  0.4803
10414TIP3    H155437   7.718   0.784   2.617 -0.4791  1.4410  1.9665
10414TIP3    H255438   7.618   0.897   2.609 -1.1120  0.7465 -0.9642
10415TIP3   OH255439   2.752   0.747   3.873  0.3765 -0.0101  0.6533
10415TIP3    H155440   2.801   0.674   3.911 -0.9139 -0.5870  1.2544
10415TIP3    H255441   2.808   0.823   3.889  0.3311 -0.3698  2.8804
10416TIP3   OH255442   2.654   2.583   3.204  0.2531  0.4438  0.0891
10416TIP3    H155443   2.659   2.591   3.109  2.0369 -0.0153  0.1147
10416TIP3    H255444   2.651   2.674   3.235  0.6944  0.6235 -0.3727
10417TIP3   OH255445   7.417   4.774   4.095  0.2812  0.3173  0.1133
10417TIP3    H155446   7.407   4.679   4.089 -0.4880  0.2822  1.4170
10417TIP3    H255447   7.419   4.792   4.189  1.3018  1.5195 -0.1071
10418TIP3   OH255448   2.370   4.724   2.360  0.3551 -0.3012 -0.4679
10418TIP3    H155449   2.306   4.656   2.341  2.8849 -2.5641 -1.4879
10418TIP3    H255450   2.372   4.729   2.456 -0.0875 -1.4675 -0.3879
10419TIP3   OH255451   1.477   1.599   4.409 -0.6414 -0.7409  0.2551
10419TIP3    H155452   1.462   1.529   4.472  1.7743 -0.5726  1.1434
10419TIP3    H255453   1.490   1.677   4.463 -0.3692 -0.2142 -0.5571
10420TIP3   OH255454   6.902   0.995   3.610 -0.1623 -0.7063 -0.0655
10420TIP3    H155455   6.893   1.089   3.629 -1.4125 -0.4906 -1.5230
10420TIP3    H255456   6.943   0.959   3.688 -0.1571  0.9710  0.7573
10421TIP3   OH255457   3.437   6.565   3.563 -0.3022  0.0130 -0.3096
10421TIP3    H155458   3.532   6.550   3.557 -0.4379 -1.3226  0.4970
10421TIP3    H255459   3.409   6.509   3.635 -1.4457  1.7221  0.6673
10422TIP3   OH255460   0.463   4.337   3.979  0.7749 -0.0727  0.1503
10422TIP3    H155461   0.410   4.385   4.043  1.5271  1.5424 -0.3848
10422TIP3    H255462   0.553   4.356   4.004  1.0899  0.9497 -1.6160
10423TIP3   OH255463   3.758   6.082   2.771 -0.2206 -0.0958 -0.3557
10423TIP3    H155464   3.685   6.111   2.827 -1.6939 -0.6932 -1.8632
10423TIP3    H255465   3.755   6.140   2.696  0.1619 -0.8134 -0.9385
10424TIP3   OH255466   5.679   5.888   4.879 -0.1571  0.0713 -0.2797
10424TIP3    H155467   5.612   5.942   4.921 -0.4029  0.9254 -1.6771
10424TIP3    H255468   5.721   5.841   4.950 -1.6476  0.2022  0.7159
10425TIP3   OH255469   1.576   1.980   3.797 -0.0133  0.4380 -0.5241
10425TIP3    H155470   1.549   2.065   3.763 -1.9823  1.3300  2.7310
10425TIP3    H255471   1.670   1.977   3.782 -0.1679  2.3514 -2.3474
10426TIP3   OH255472   3.666   5.777   4.596 -0.3464 -0.8902  0.4352
10426TIP3    H155473   3.751   5.773   4.641 -0.9062  1.1023  1.8493
10426TIP3    H255474   3.611   5.716   4.646 -0.5271  0.0986  1.4908
10427TIP3   OH255475   7.588   5.207   4.226 -0.0023 -0.2126 -0.0062
10427TIP3    H155476   7.640   5.287   4.231  3.5322 -2.2498 -1.0885
10427TIP3    H255477   7.634   5.145   4.282 -1.6424 -2.0343 -0.5743
10428TIP3   OH255478   2.792   6.573   3.548  0.0735  0.0347 -0.1463
10428TIP3    H155479   2.777   6.576   3.454 -0.3407 -1.5724 -0.1665
10428TIP3    H255480   2.872   6.522   3.558  0.8102  1.2501  0.3352
10429TIP3   OH255481   6.823   7.359   4.514 -0.4666 -0.2766  0.6822
10429TIP3    H155482   6.897   7.397   4.467  0.5457 -0.9295  1.6902
10429TIP3    H255483   6.810   7.273   4.473 -0.0715 -0.5337  1.0859
10430TIP3   OH255484   3.542   7.342   3.857  0.5090 -0.0982 -0.2046
10430TIP3    H155485   3.622   7.389   3.834 -0.3693  0.3792 -2.5576
10430TIP3    H255486   3.487   7.407   3.901  1.1586 -0.2758  0.8990
10431TIP3   OH255487   2.971   6.974   4.088 -0.3061  0.1936 -0.2347
10431TIP3    H155488   2.876   6.983   4.101 -0.2233 -0.3558  0.8317
10431TIP3    H255489   2.984   6.993   3.995 -1.4265  0.5533 -0.3320
10432TIP3   OH255490   2.026   4.923   2.689 -0.2521 -0.1838 -0.3974
10432TIP3    H155491   1.973   4.882   2.757  0.1983  0.2152  0.2056
10432TIP3    H255492   1.966   4.933   2.615 -0.4902 -1.5198 -0.4168
10433TIP3   OH255493   1.072   7.044   2.443  0.1585  0.0398  0.2082
10433TIP3    H155494   1.075   6.955   2.409  1.5215 -0.3557  1.2993
10433TIP3    H255495   1.018   7.092   2.380  1.8824 -0.8449 -2.0545
10434TIP3   OH255496   5.808   6.756   4.947  0.2997 -0.1204 -0.0017
10434TIP3    H155497   5.889   6.795   4.914 -1.0170  2.7059 -0.1698
10434TIP3    H255498   5.797   6.794   5.034 -0.4761 -1.0272  0.3096
10435TIP3   OH255499   6.725   6.170   3.372 -0.0989 -0.5430 -0.0989
10435TIP3    H155500   6.690   6.103   3.432 -1.2746 -1.5255 -1.8007
10435TIP3    H255501   6.665   6.169   3.298 -0.0218  2.2762 -0.3046
10436TIP3   OH255502   4.830   1.918   4.912  0.3062  0.2660 -0.1939
10436TIP3    H155503   4.886   1.963   4.848  0.2357 -0.0257 -0.4652
10436TIP3    H255504   4.824   1.978   4.986  1.0453  0.2687 -0.1303
10437TIP3   OH255505   2.377   0.191   3.179 -0.2614 -0.0602  0.0854
10437TIP3    H155506   2.371   0.096   3.173 -0.1438 -0.0188 -0.8337
10437TIP3    H255507   2.471   0.210   3.185 -0.3161 -0.0302  1.0335
10438TIP3   OH255508   2.005   2.092   2.739 -0.1119 -0.0767 -0.7971
10438TIP3    H155509   2.022   2.067   2.830  0.7757  1.3563 -0.5326
10438TIP3    H255510   2.073   2.157   2.719  0.3893 -1.1170 -2.8319
10439TIP3   OH255511   2.014   7.062   4.071  0.5259 -0.0923 -0.3319
10439TIP3    H155512   2.029   7.011   3.991  1.9902  0.4901 -0.4685
10439TIP3    H255513   2.045   7.150   4.049 -0.6500  0.5125  0.3470
   7.68049   7.68049  30.00000
