Title
55513
    1DOPE     N    1   1.416   1.546  10.080 -0.6505 -0.0528 -0.0302
    1DOPE   HN1    2   1.431   1.444  10.065  1.3646  0.0863  0.7526
    1DOPE   HN2    3   1.453   1.598   9.999  2.0566 -0.9966  0.5086
    1DOPE   HN3    4   1.474   1.575  10.161 -0.5361 -0.3729  0.0058
    1DOPE   C12    5   1.270   1.576  10.097 -0.4244  0.0036 -0.5455
    1DOPE  H12A    6   1.225   1.553   9.998  0.7896  0.1454 -1.1462
    1DOPE  H12B    7   1.264   1.687  10.109  1.7184  0.3105 -1.8863
    1DOPE   C11    8   1.203   1.510  10.227  0.1467  0.1867 -1.0373
    1DOPE  H11A    9   1.107   1.566  10.232  1.3122  2.2121 -0.2651
    1DOPE  H11B   10   1.261   1.540  10.317 -0.1540 -1.7383 -0.1423
    1DOPE     P   11   1.063   1.294  10.173  0.2264 -0.0996  0.2122
    1DOPE   O13   12   0.945   1.371  10.218 -0.4098  0.0762  0.8015
    1DOPE   O14   13   1.068   1.153  10.210 -0.2557  0.3648 -0.3875
    1DOPE   O11   14   1.064   1.305  10.015 -0.0663 -0.2418 -0.2494
    1DOPE   O12   15   1.186   1.370  10.226 -0.0342 -0.2403 -0.0482
    1DOPE    C1   16   1.168   1.240   9.940  1.1621 -0.2153  0.2822
    1DOPE    HA   17   1.130   1.138   9.917  0.9601 -0.2239  0.6492
    1DOPE    HB   18   1.266   1.237   9.992  1.1038  1.8558  0.5848
    1DOPE    C2   19   1.191   1.306   9.799  0.5591  0.0364 -0.5026
    1DOPE    HS   20   1.222   1.411   9.819 -1.4546  1.1465 -2.6489
    1DOPE   O21   21   1.065   1.307   9.723  0.1786  0.2184  0.8659
    1DOPE   C21   22   1.051   1.406   9.640 -0.5031  0.4479  0.6246
    1DOPE   O22   23   1.130   1.497   9.619  0.2126 -0.1630  0.2917
    1DOPE   C22   24   0.912   1.389   9.563 -0.6957  0.1689 -0.6035
    1DOPE   H2R   25   0.833   1.422   9.635  0.8493 -0.2380  1.3656
    1DOPE   H2S   26   0.904   1.282   9.534 -3.3080 -0.3743  1.6611
    1DOPE    C3   27   1.287   1.226   9.716 -0.1344 -0.0480  0.2444
    1DOPE    HX   28   1.256   1.124   9.684  0.6303  0.1621 -1.2518
    1DOPE    HY   29   1.383   1.213   9.771  0.1637 -1.3931 -0.5395
    1DOPE   O31   30   1.315   1.299   9.591  0.5305 -0.0652 -0.5829
    1DOPE   C31   31   1.420   1.378   9.595 -0.8097 -0.3681 -0.4465
    1DOPE   O32   32   1.488   1.403   9.695  0.0898 -0.4750  0.0488
    1DOPE   C32   33   1.441   1.434   9.449  0.1631  0.1897  0.1894
    1DOPE   H2X   34   1.497   1.345   9.412  2.8482  1.5843  0.5843
    1DOPE   H2Y   35   1.342   1.445   9.401  0.7531  0.0661 -1.1304
    1DOPE   C23   36   0.908   1.484   9.440  0.3160 -0.2736 -0.8543
    1DOPE   H3R   37   0.924   1.587   9.478  1.3884 -1.1187  1.1536
    1DOPE   H3S   38   0.805   1.483   9.398  0.1041 -2.2703 -0.4316
    1DOPE   C24   39   0.995   1.441   9.325  1.5514  0.1514 -0.1876
    1DOPE   H4R   40   0.961   1.337   9.305 -1.1292  0.9099  0.1037
    1DOPE   H4S   41   1.103   1.445   9.351  1.6709  0.0480 -0.6497
    1DOPE   C25   42   0.978   1.510   9.185  0.0590  0.2896  0.2520
    1DOPE   H5R   43   0.986   1.618   9.209  2.9648 -0.3022  2.5466
    1DOPE   H5S   44   0.873   1.493   9.153 -0.5200 -1.2121  2.6679
    1DOPE   C26   45   1.088   1.467   9.089  0.4671 -0.8005 -0.2195
    1DOPE   H6R   46   1.074   1.358   9.073  1.0223 -1.0862  1.0935
    1DOPE   H6S   47   1.188   1.493   9.130  1.2437  0.1619 -2.5942
    1DOPE   C27   48   1.062   1.537   8.953 -0.6788 -0.2518  0.5279
    1DOPE   H7R   49   1.060   1.646   8.973 -1.5184  0.3480 -2.3242
    1DOPE   H7S   50   0.963   1.497   8.921 -0.7387  0.3716 -0.0766
    1DOPE   C28   51   1.164   1.505   8.839 -0.1242  0.0451  0.3468
    1DOPE   H8R   52   1.156   1.395   8.823  2.8838 -0.2671  0.3428
    1DOPE   H8S   53   1.267   1.534   8.869  0.5819 -0.5706 -1.3488
    1DOPE   C29   54   1.125   1.572   8.711  0.7024  0.2519 -0.3521
    1DOPE   H9R   55   1.016   1.588   8.704  0.5005 -1.0983 -0.5547
    1DOPE  C210   56   1.210   1.612   8.617  0.3566  0.2079  0.3167
    1DOPE  H10R   57   1.169   1.658   8.526  0.8442 -0.1954 -0.1155
    1DOPE  C211   58   1.353   1.589   8.615  0.0765  0.9866 -0.3574
    1DOPE  H11R   59   1.387   1.613   8.718 -0.5031  0.5750 -0.0635
    1DOPE  H11S   60   1.409   1.653   8.543 -0.0049 -0.3959 -1.6938
    1DOPE  C212   61   1.398   1.440   8.591 -1.0392  0.3428  1.1799
    1DOPE  H12R   62   1.369   1.376   8.677 -1.7695  0.3169  0.9250
    1DOPE  H12S   63   1.508   1.447   8.597 -0.9633 -0.5788  1.0721
    1DOPE  C213   64   1.351   1.392   8.450 -0.8567  0.1061  0.1031
    1DOPE  H13R   65   1.243   1.413   8.434 -1.0658 -1.7714 -1.2188
    1DOPE  H13S   66   1.357   1.283   8.432  1.7619  0.0703  0.8561
    1DOPE  C214   67   1.444   1.453   8.347 -0.1268  0.2891 -0.3765
    1DOPE  H14R   68   1.541   1.401   8.363 -1.4519 -2.2703 -0.1873
    1DOPE  H14S   69   1.459   1.561   8.368  1.8617 -0.2355  1.2579
    1DOPE  C215   70   1.395   1.425   8.207 -0.5614  0.1802  1.1467
    1DOPE  H15R   71   1.449   1.497   8.140 -2.0634  1.0679  0.8512
    1DOPE  H15S   72   1.289   1.456   8.212 -0.3411  0.7997  2.5039
    1DOPE  C216   73   1.418   1.285   8.150 -0.9088  0.5127  0.8247
    1DOPE  H16R   74   1.349   1.208   8.192  0.2969 -0.6108  0.8016
    1DOPE  H16S   75   1.525   1.255   8.155 -0.7669  0.8111 -0.1329
    1DOPE  C217   76   1.410   1.289   7.997 -0.2966  0.2434  0.1887
    1DOPE  H17R   77   1.473   1.369   7.952 -0.1489  1.0134  1.6847
    1DOPE  H17S   78   1.304   1.317   7.981 -0.0777  0.7937 -0.3282
    1DOPE  C218   79   1.440   1.146   7.923  0.1675 -0.4259 -0.2927
    1DOPE  H18R   80   1.357   1.073   7.935  0.6929 -0.8583  0.8110
    1DOPE  H18S   81   1.530   1.099   7.969 -1.4482 -1.5681  1.8842
    1DOPE  H18T   82   1.462   1.160   7.815 -1.5799  2.4642 -0.3584
    1DOPE   C33   83   1.526   1.560   9.446 -0.5441 -0.1043 -0.2466
    1DOPE   H3X   84   1.612   1.554   9.375  1.0874 -1.2982  1.7240
    1DOPE   H3Y   85   1.569   1.580   9.546 -0.8559 -0.1451 -0.1053
    1DOPE   C34   86   1.455   1.690   9.432  0.9909  0.0434  0.2330
    1DOPE   H4X   87   1.371   1.696   9.504 -0.7074  0.4638 -1.6773
    1DOPE   H4Y   88   1.513   1.782   9.457 -0.6855  1.1506  0.2418
    1DOPE   C35   89   1.389   1.709   9.297  0.1612  0.3743 -0.4945
    1DOPE   H5X   90   1.331   1.803   9.288  0.3185  0.5740  0.5135
    1DOPE   H5Y   91   1.321   1.625   9.273  1.4430 -0.1263 -2.7428
    1DOPE   C36   92   1.485   1.721   9.175 -0.0684  0.1447 -0.2288
    1DOPE   H6X   93   1.533   1.621   9.165 -1.5342 -0.4699 -1.6444
    1DOPE   H6Y   94   1.567   1.794   9.191 -0.5967  0.6876  0.0715
    1DOPE   C37   95   1.414   1.748   9.045  0.0670  0.3188 -1.1140
    1DOPE   H7X   96   1.359   1.655   9.017 -0.6116 -0.3207  1.9222
    1DOPE   H7Y   97   1.356   1.840   9.067  1.8511  1.5351 -1.3135
    1DOPE   C38   98   1.509   1.769   8.925  0.2137  0.2827 -0.4855
    1DOPE   H8X   99   1.540   1.670   8.885 -0.6609 -0.1453 -0.1409
    1DOPE   H8Y  100   1.605   1.809   8.963 -0.2967 -0.4440  1.6949
    1DOPE   C39  101   1.441   1.849   8.815 -0.1033  0.3510  0.2488
    1DOPE   H9X  102   1.351   1.808   8.766  1.5107 -1.7308 -1.1630
    1DOPE  C310  103   1.480   1.966   8.774 -0.2994 -0.9100  0.4948
    1DOPE  H10X  104   1.428   2.007   8.685  1.9899 -0.2467 -0.6235
    1DOPE  C311  105   1.601   2.047   8.827 -0.4841  0.1663  0.1615
    1DOPE  H11X  106   1.694   1.986   8.828  0.6327  1.7990 -0.2319
    1DOPE  H11Y  107   1.637   2.130   8.763  0.6529 -0.4306 -0.0048
    1DOPE  C312  108   1.588   2.112   8.962  0.7231 -0.0096 -0.4223
    1DOPE  H12X  109   1.543   2.043   9.036 -2.5353 -0.2667 -2.4239
    1DOPE  H12Y  110   1.507   2.187   8.949  0.1480 -0.4145  0.6613
    1DOPE  C313  111   1.719   2.172   9.009  0.8414  0.2303  0.3515
    1DOPE  H13X  112   1.788   2.086   9.003  0.9839  0.3803 -0.1813
    1DOPE  H13Y  113   1.766   2.238   8.933  1.4226  0.5715  0.9997
    1DOPE  C314  114   1.721   2.238   9.147  0.8052  0.5029  0.2378
    1DOPE  H14X  115   1.645   2.319   9.149  0.0867 -0.1198 -0.5685
    1DOPE  H14Y  116   1.821   2.286   9.153  1.1273 -0.3028  1.6943
    1DOPE  C315  117   1.705   2.156   9.268 -0.8815  0.0744  0.3277
    1DOPE  H15X  118   1.789   2.084   9.279  2.3088  3.0338 -2.4782
    1DOPE  H15Y  119   1.606   2.107   9.258 -0.6434  0.0623 -2.7337
    1DOPE  C316  120   1.707   2.244   9.398 -0.4765  0.1479 -0.5301
    1DOPE  H16X  121   1.633   2.326   9.385 -0.3728 -0.1929 -4.4787
    1DOPE  H16Y  122   1.806   2.293   9.403  0.3535 -1.4773 -0.4254
    1DOPE  C317  123   1.699   2.148   9.521 -0.2553  0.5841 -0.1910
    1DOPE  H17X  124   1.611   2.083   9.510  0.1601  0.2955 -2.1265
    1DOPE  H17Y  125   1.785   2.078   9.527 -0.5470  0.2768  0.4799
    1DOPE  C318  126   1.686   2.222   9.654 -0.2978 -0.4777 -0.4184
    1DOPE  H18X  127   1.775   2.284   9.678 -0.4049 -0.6324  0.4017
    1DOPE  H18Y  128   1.589   2.276   9.646 -0.4777 -0.5795  0.8261
    1DOPE  H18Z  129   1.679   2.150   9.739 -3.9342 -0.5896 -0.6486
    2DOPE     N  130   3.269   3.497  10.513 -0.0424 -1.0637 -0.0992
    2DOPE   HN1  131   3.300   3.545  10.600  1.3474  1.4205 -1.8343
    2DOPE   HN2  132   3.177   3.454  10.538 -0.1999 -0.2829  0.7237
    2DOPE   HN3  133   3.342   3.425  10.499 -0.5334 -1.7474  0.7403
    2DOPE   C12  134   3.256   3.600  10.401 -0.4208 -0.3972 -0.3730
    2DOPE  H12A  135   3.165   3.572  10.344 -0.9308 -0.3376  0.3943
    2DOPE  H12B  136   3.343   3.580  10.334 -0.6858 -2.7391 -0.0736
    2DOPE   C11  137   3.236   3.747  10.439 -0.4964 -0.0339  0.2852
    2DOPE  H11A  138   3.152   3.751  10.512 -1.1874 -2.4922 -0.2558
    2DOPE  H11B  139   3.204   3.802  10.348  1.0816  0.5535  0.0678
    2DOPE     P  140   3.386   3.953  10.474 -0.5273 -0.1374  0.2112
    2DOPE   O13  141   3.520   3.972  10.524 -0.0257 -0.5944  0.3474
    2DOPE   O14  142   3.278   4.029  10.537 -0.2546 -0.3681  0.2954
    2DOPE   O11  143   3.399   3.984  10.319  0.1134 -0.6914 -0.0450
    2DOPE   O12  144   3.355   3.802  10.485 -0.6694  0.0343  0.1075
    2DOPE    C1  145   3.498   3.925  10.237 -0.4756 -0.0656  0.2328
    2DOPE    HA  146   3.501   3.816  10.260  1.7377 -0.5034 -1.7038
    2DOPE    HB  147   3.594   3.981  10.244 -0.1637 -0.3409 -1.4793
    2DOPE    C2  148   3.466   3.934  10.090 -0.3861  0.5025 -0.2358
    2DOPE    HS  149   3.454   4.043  10.071  0.7115  0.3838 -1.8341
    2DOPE   O21  150   3.356   3.849  10.057 -0.0504 -0.3253  0.0821
    2DOPE   C21  151   3.251   3.917  10.004  0.4213 -0.2732  0.2227
    2DOPE   O22  152   3.252   4.033   9.966  0.0403 -0.6942 -0.0567
    2DOPE   C22  153   3.131   3.826   9.999 -0.1508  0.0015 -0.2640
    2DOPE   H2R  154   3.084   3.840  10.098  0.1597 -0.4788 -0.0420
    2DOPE   H2S  155   3.171   3.722  10.003 -0.1798  0.0215  2.4051
    2DOPE    C3  156   3.582   3.892   9.992 -0.4735 -0.0577 -0.7359
    2DOPE    HX  157   3.600   3.783  10.009  0.2723  0.3976  1.8376
    2DOPE    HY  158   3.678   3.939  10.021 -0.8943  0.7960 -0.7029
    2DOPE   O31  159   3.561   3.917   9.854 -0.7791  0.0680  0.1433
    2DOPE   C31  160   3.541   4.041   9.812  0.1355 -0.5974  0.6734
    2DOPE   O32  161   3.555   4.142   9.884  0.1222 -0.3806 -0.4236
    2DOPE   C32  162   3.484   4.031   9.671 -0.7217  0.2539 -0.0898
    2DOPE   H2X  163   3.488   3.927   9.630 -1.3945  0.5836 -1.0345
    2DOPE   H2Y  164   3.375   4.048   9.673 -1.1126 -1.3386 -2.5266
    2DOPE   C23  165   3.046   3.863   9.885  0.6236  0.5765 -0.5154
    2DOPE   H3R  166   3.034   3.971   9.862 -2.6883  0.1190 -1.4830
    2DOPE   H3S  167   2.950   3.811   9.903  0.5962  1.1976  1.3754
    2DOPE   C24  168   3.101   3.801   9.754 -0.1955  0.5230 -0.2350
    2DOPE   H4R  169   3.111   3.692   9.775 -0.2382  0.1871 -1.8322
    2DOPE   H4S  170   3.206   3.837   9.750  0.1930 -0.2908  1.7344
    2DOPE   C25  171   3.026   3.840   9.626  0.2173 -0.6601 -0.0044
    2DOPE   H5R  172   3.060   3.938   9.586 -1.7240 -0.0455 -0.2638
    2DOPE   H5S  173   2.916   3.844   9.644  0.2138  1.8404 -0.1996
    2DOPE   C26  174   3.046   3.741   9.507  0.1741  0.6070 -0.1227
    2DOPE   H6R  175   3.010   3.640   9.535  2.1637 -0.3727 -0.9576
    2DOPE   H6S  176   3.155   3.721   9.500  0.5620  2.3628  0.2565
    2DOPE   C27  177   2.974   3.773   9.381 -0.4049  0.1633  0.0172
    2DOPE   H7R  178   3.022   3.856   9.324 -0.0989  0.9316  1.3659
    2DOPE   H7S  179   2.876   3.814   9.412  0.5807  2.9952 -0.3109
    2DOPE   C28  180   2.940   3.643   9.298  0.1730 -0.6111  0.1458
    2DOPE   H8R  181   2.843   3.652   9.245  0.3033  1.7169  0.2014
    2DOPE   H8S  182   2.915   3.572   9.381 -0.4282  0.1334  0.6117
    2DOPE   C29  183   3.056   3.584   9.227 -0.3599 -0.2133  0.8227
    2DOPE   H9R  184   3.092   3.644   9.142  2.0715 -2.0497  0.4606
    2DOPE  C210  185   3.115   3.458   9.221  0.2323 -0.0908 -0.8552
    2DOPE  H10R  186   3.209   3.458   9.164  2.3002  1.7667  2.2564
    2DOPE  C211  187   3.083   3.338   9.315 -0.6355  0.4255  0.1992
    2DOPE  H11R  188   2.989   3.354   9.373 -0.7617  0.6179 -0.0559
    2DOPE  H11S  189   3.174   3.342   9.379  0.8765  0.3166 -1.8428
    2DOPE  C212  190   3.073   3.208   9.239 -0.3816 -0.1541 -0.1883
    2DOPE  H12R  191   3.173   3.176   9.203 -1.2044 -2.3101 -0.7411
    2DOPE  H12S  192   3.010   3.219   9.148 -0.0682  0.5295 -0.3279
    2DOPE  C213  193   3.018   3.103   9.335  0.4408  0.1513 -0.0267
    2DOPE  H13R  194   2.924   3.139   9.382  0.4500  0.4716 -0.2525
    2DOPE  H13S  195   3.095   3.088   9.414 -0.5285 -1.8056  0.5977
    2DOPE  C214  196   2.985   2.973   9.266 -0.2626 -0.6614 -0.5582
    2DOPE  H14R  197   3.076   2.931   9.218 -0.3444 -4.1336  1.9476
    2DOPE  H14S  198   2.917   2.972   9.178 -0.0240  0.2374 -0.7690
    2DOPE  C215  199   2.953   2.852   9.351  0.1440  0.5436  0.1575
    2DOPE  H15R  200   3.041   2.831   9.415  0.9956 -0.6946 -1.3250
    2DOPE  H15S  201   2.936   2.762   9.288 -1.3813 -0.2009  1.5495
    2DOPE  C216  202   2.816   2.867   9.417 -0.8206 -0.2033 -1.1195
    2DOPE  H16R  203   2.818   2.942   9.500 -1.0266 -2.1675  0.7536
    2DOPE  H16S  204   2.782   2.775   9.469 -0.1103  0.1027 -0.0687
    2DOPE  C217  205   2.696   2.902   9.334 -0.0105 -0.6861 -0.0001
    2DOPE  H17R  206   2.709   2.999   9.282 -3.8784 -0.3825 -0.6285
    2DOPE  H17S  207   2.606   2.927   9.393 -0.0104  2.6131 -1.1797
    2DOPE  C218  208   2.659   2.802   9.223 -0.2558  0.0471  0.2811
    2DOPE  H18R  209   2.649   2.699   9.263 -1.4107  0.1165  0.1860
    2DOPE  H18S  210   2.738   2.802   9.145  0.1239 -3.2743  0.5300
    2DOPE  H18T  211   2.565   2.842   9.180 -0.5420 -0.4890  0.3962
    2DOPE   C33  212   3.552   4.136   9.575 -0.2591  0.0293 -0.1431
    2DOPE   H3X  213   3.543   4.241   9.611  0.8649  0.8662 -2.1780
    2DOPE   H3Y  214   3.489   4.134   9.484  0.5492 -3.0583 -0.7473
    2DOPE   C34  215   3.695   4.103   9.530 -0.6412  0.3607 -0.3936
    2DOPE   H4X  216   3.760   4.129   9.617 -1.0894 -0.1039  0.0929
    2DOPE   H4Y  217   3.702   3.995   9.505 -0.2999  0.4604 -0.7274
    2DOPE   C35  218   3.732   4.188   9.408 -0.4340  0.0288 -0.6178
    2DOPE   H5X  219   3.842   4.182   9.397 -0.0498  3.5079 -0.0485
    2DOPE   H5Y  220   3.706   4.296   9.415  2.6364  0.7876  0.5476
    2DOPE   C36  221   3.685   4.127   9.279 -0.2846  0.3429 -0.0184
    2DOPE   H6X  222   3.575   4.138   9.271 -0.1734  1.4688 -0.0384
    2DOPE   H6Y  223   3.698   4.016   9.284 -3.2854 -0.3587 -3.4650
    2DOPE   C37  224   3.742   4.167   9.140  0.5287  0.0547  0.6704
    2DOPE   H7X  225   3.748   4.277   9.132  0.3893 -0.0526 -1.3819
    2DOPE   H7Y  226   3.851   4.145   9.141  0.2577 -1.4147  0.2649
    2DOPE   C38  227   3.683   4.113   9.013 -0.2419  0.0044  0.2627
    2DOPE   H8X  228   3.591   4.171   8.988 -0.0749 -0.1248 -0.7037
    2DOPE   H8Y  229   3.647   4.010   9.035 -0.3296 -0.3367 -1.3611
    2DOPE   C39  230   3.778   4.100   8.899  0.5823 -0.3361  0.4024
    2DOPE   H9X  231   3.879   4.138   8.920  1.1450 -1.4296 -0.2316
    2DOPE  C310  232   3.760   4.048   8.776 -0.3244 -0.2065 -0.1927
    2DOPE  H10X  233   3.841   4.063   8.702  1.6234 -3.5198  1.0869
    2DOPE  C311  234   3.630   3.987   8.726 -0.3565  0.1813 -0.0098
    2DOPE  H11X  235   3.630   3.880   8.758 -1.4364  0.7071  1.8409
    2DOPE  H11Y  236   3.540   4.033   8.770 -1.0734 -2.1561  1.1508
    2DOPE  C312  237   3.616   3.994   8.574 -0.5981  0.1218  0.0348
    2DOPE  H12X  238   3.717   3.997   8.527 -0.2361  1.0334  0.8231
    2DOPE  H12Y  239   3.569   4.091   8.545 -1.6031 -0.0211  1.1048
    2DOPE  C313  240   3.541   3.881   8.500  0.3508  0.0729  0.3822
    2DOPE  H13X  241   3.444   3.857   8.550 -0.1583  0.9181 -0.1720
    2DOPE  H13Y  242   3.508   3.912   8.399 -1.0393 -2.6153 -0.0944
    2DOPE  C314  243   3.623   3.754   8.494  0.0165  0.3135  0.0415
    2DOPE  H14X  244   3.621   3.714   8.598 -5.1070 -0.7636 -0.2234
    2DOPE  H14Y  245   3.724   3.767   8.450  0.3291  1.1727  0.9817
    2DOPE  C315  246   3.546   3.655   8.402 -0.0218  0.1194  0.0032
    2DOPE  H15X  247   3.531   3.697   8.300  0.0176 -1.9539 -0.9169
    2DOPE  H15Y  248   3.437   3.642   8.421  0.1432 -1.8208 -0.1269
    2DOPE  C316  249   3.622   3.522   8.388  0.9809 -0.2730 -0.5813
    2DOPE  H16X  250   3.723   3.531   8.433  0.7447 -0.9712  0.1043
    2DOPE  H16Y  251   3.621   3.498   8.280 -0.7823 -3.4370  0.0366
    2DOPE  C317  252   3.548   3.411   8.454  0.1465  0.1071  0.4734
    2DOPE  H17X  253   3.519   3.436   8.558 -0.7697 -1.3849  0.6034
    2DOPE  H17Y  254   3.456   3.400   8.393 -0.2584  0.7838  0.9548
    2DOPE  C318  255   3.629   3.285   8.451 -0.3034  0.0480 -0.2565
    2DOPE  H18X  256   3.584   3.195   8.498  0.2512 -0.0517  0.0772
    2DOPE  H18Y  257   3.654   3.253   8.348 -0.3616 -0.1718 -0.2023
    2DOPE  H18Z  258   3.728   3.289   8.499  0.4848  1.3058 -1.8779
    3DOPE     N  259   2.413   3.137  10.545  0.1716  0.6086  0.6228
    3DOPE   HN1  260   2.402   3.152  10.647 -0.0672 -1.1866  0.8921
    3DOPE   HN2  261   2.352   3.059  10.513  0.3262  0.7588 -0.0457
    3DOPE   HN3  262   2.498   3.080  10.529  0.0712 -0.0294  2.1693
    3DOPE   C12  263   2.398   3.253  10.446 -0.1434 -0.5045 -0.4460
    3DOPE  H12A  264   2.483   3.325  10.452 -2.2949  2.4009 -1.9940
    3DOPE  H12B  265   2.306   3.305  10.479 -0.1201 -2.1396  2.5043
    3DOPE   C11  266   2.410   3.202  10.301  0.2438 -0.6281 -0.1644
    3DOPE  H11A  267   2.505   3.148  10.284  2.4538  2.1724  2.2084
    3DOPE  H11B  268   2.413   3.289  10.232  3.4799 -1.1667 -0.8343
    3DOPE     P  269   2.161   3.165  10.232  0.0253  0.0898 -0.0225
    3DOPE   O13  270   2.182   3.285  10.150  0.3224  0.1977  0.0607
    3DOPE   O14  271   2.065   3.177  10.343  0.1147 -0.1947  0.1626
    3DOPE   O11  272   2.113   3.035  10.157 -0.0174  0.0017 -0.2336
    3DOPE   O12  273   2.300   3.117  10.277  0.4904  1.0073 -0.4588
    3DOPE    C1  274   2.187   2.981  10.053 -0.5920  0.5842  0.3464
    3DOPE    HA  275   2.240   2.889  10.089 -1.3730 -0.5477 -1.2840
    3DOPE    HB  276   2.278   3.038  10.025  0.9586 -0.9050  2.0097
    3DOPE    C2  277   2.100   2.952   9.935 -0.0109  0.3362  0.6051
    3DOPE    HS  278   2.158   2.900   9.856  0.4477  1.1043  0.4304
    3DOPE   O21  279   2.048   3.073   9.885  0.4614 -0.2436 -0.2958
    3DOPE   C21  280   2.130   3.151   9.827  0.0408 -0.5787  0.2353
    3DOPE   O22  281   2.248   3.129   9.806  0.3767 -0.7203  0.0174
    3DOPE   C22  282   2.059   3.285   9.809 -0.2666 -0.6370  0.3788
    3DOPE   H2R  283   2.106   3.354   9.882  1.1589 -0.6560 -0.4756
    3DOPE   H2S  284   1.954   3.277   9.845 -0.1352  2.2854  1.6749
    3DOPE    C3  285   1.987   2.851   9.976  0.0693 -1.2386 -1.1781
    3DOPE    HX  286   1.912   2.917  10.025  0.6031 -1.0565 -0.6082
    3DOPE    HY  287   2.030   2.778  10.048  1.9438 -1.5623 -2.5562
    3DOPE   O31  288   1.927   2.791   9.856 -0.0529 -0.0638  0.0095
    3DOPE   C31  289   1.849   2.682   9.887 -2.0351 -1.0299 -0.0205
    3DOPE   O32  290   1.842   2.641  10.002  0.0049 -0.4842 -0.1468
    3DOPE   C32  291   1.771   2.625   9.773  0.1164 -0.4804 -0.1988
    3DOPE   H2X  292   1.817   2.524   9.765  1.8397  0.2043  0.5804
    3DOPE   H2Y  293   1.666   2.632   9.807  0.2341  2.1462 -0.1973
    3DOPE   C23  294   2.066   3.351   9.667  0.0730 -0.2302  0.0356
    3DOPE   H3R  295   2.003   3.290   9.598 -0.9678 -0.3007  1.0100
    3DOPE   H3S  296   2.174   3.352   9.643  0.0877  0.4147  0.1063
    3DOPE   C24  297   2.009   3.489   9.668 -0.6865 -0.2689 -0.8852
    3DOPE   H4R  298   2.063   3.557   9.737 -0.3934 -0.9637 -0.4148
    3DOPE   H4S  299   1.906   3.481   9.709 -0.7694 -0.5736 -1.1504
    3DOPE   C25  300   2.027   3.560   9.528 -0.2089 -0.2541 -0.3437
    3DOPE   H5R  301   2.135   3.551   9.501  0.4409  0.6423  1.7619
    3DOPE   H5S  302   1.999   3.667   9.533 -2.7560 -0.9103  1.0930
    3DOPE   C26  303   1.935   3.497   9.427 -0.4665  0.2381  0.3114
    3DOPE   H6R  304   1.839   3.472   9.476  0.1946  0.6180  1.8592
    3DOPE   H6S  305   1.981   3.401   9.396  0.9350  1.0306 -0.1559
    3DOPE   C27  306   1.902   3.596   9.317 -0.3627 -0.6644 -0.1543
    3DOPE   H7R  307   1.995   3.655   9.302 -1.2469  2.2770  4.1339
    3DOPE   H7S  308   1.814   3.651   9.355  0.2153  0.5129 -0.4895
    3DOPE   C28  309   1.873   3.510   9.191  0.2927 -0.5099  0.0967
    3DOPE   H8R  310   1.771   3.465   9.194  0.3411 -0.7083 -1.0622
    3DOPE   H8S  311   1.955   3.437   9.180  0.7240 -0.2567  1.4023
    3DOPE   C29  312   1.881   3.601   9.067  0.0494  0.0798 -0.4953
    3DOPE   H9R  313   1.933   3.696   9.085  2.6257 -0.7339 -3.0760
    3DOPE  C210  314   1.832   3.570   8.945  0.1608 -0.0099 -1.1766
    3DOPE  H10R  315   1.849   3.651   8.872  0.8729  0.7962 -0.1483
    3DOPE  C211  316   1.755   3.449   8.900  0.2577  0.2401 -0.1673
    3DOPE  H11R  317   1.766   3.364   8.971  0.8262  0.7687  0.3875
    3DOPE  H11S  318   1.808   3.406   8.812  3.6563 -1.2629  2.3482
    3DOPE  C212  319   1.605   3.460   8.880 -0.1051  0.4130  0.1111
    3DOPE  H12R  320   1.552   3.514   8.962  1.2449  1.0566  0.5937
    3DOPE  H12S  321   1.562   3.361   8.857  0.1498  0.1075  0.9225
    3DOPE  C213  322   1.589   3.560   8.759 -0.2252  0.5122 -0.6036
    3DOPE  H13R  323   1.660   3.513   8.688  2.9088 -0.3213  2.7419
    3DOPE  H13S  324   1.618   3.665   8.785  0.1016  0.3598 -0.3419
    3DOPE  C214  325   1.449   3.555   8.694 -0.7905  0.1037  0.4229
    3DOPE  H14R  326   1.383   3.596   8.773  0.2116  0.4525  1.1098
    3DOPE  H14S  327   1.426   3.449   8.672  0.1608  0.2672 -1.6058
    3DOPE  C215  328   1.446   3.633   8.570  0.5765 -0.2138  0.0736
    3DOPE  H15R  329   1.515   3.589   8.496  1.5922  0.4269  0.6233
    3DOPE  H15S  330   1.483   3.737   8.580  0.2798  0.0227 -1.1638
    3DOPE  C216  331   1.308   3.646   8.503  0.0868  0.2074 -0.9588
    3DOPE  H16R  332   1.236   3.711   8.557  0.6310  0.8719 -1.0188
    3DOPE  H16S  333   1.265   3.545   8.519 -1.7311  1.4260  3.4212
    3DOPE  C217  334   1.305   3.682   8.354  0.0728 -0.4299  0.5941
    3DOPE  H17R  335   1.199   3.673   8.325  0.3105  0.7839 -0.8221
    3DOPE  H17S  336   1.353   3.603   8.292 -0.2598  0.8574 -1.4300
    3DOPE  C218  337   1.366   3.816   8.318 -0.5467  0.0914  0.8138
    3DOPE  H18R  338   1.325   3.902   8.375  1.0333  0.7402  1.0440
    3DOPE  H18S  339   1.361   3.844   8.211  1.2839  0.1931  0.7161
    3DOPE  H18T  340   1.475   3.804   8.336 -0.0536 -0.3770 -2.1088
    3DOPE   C33  341   1.780   2.706   9.640  0.3108 -0.5662  0.3813
    3DOPE   H3X  342   1.886   2.734   9.622 -0.1235  0.7900 -0.1971
    3DOPE   H3Y  343   1.710   2.792   9.643 -1.6696 -2.0454 -0.6990
    3DOPE   C34  344   1.745   2.614   9.524 -0.2141  0.5581  0.4689
    3DOPE   H4X  345   1.822   2.535   9.511  0.8478  1.3974  1.4804
    3DOPE   H4Y  346   1.653   2.564   9.561 -0.5836  0.8999  0.0329
    3DOPE   C35  347   1.708   2.689   9.399 -0.7443  0.5933 -0.1354
    3DOPE   H5X  348   1.801   2.724   9.348 -1.7139  0.3955 -2.1182
    3DOPE   H5Y  349   1.648   2.778   9.429 -0.7591  1.1906 -1.8174
    3DOPE   C36  350   1.630   2.596   9.309  0.5016 -0.2994 -0.7899
    3DOPE   H6X  351   1.541   2.554   9.360 -0.5204  1.6726 -0.8848
    3DOPE   H6Y  352   1.702   2.512   9.295  0.3674 -0.9846  2.0513
    3DOPE   C37  353   1.581   2.663   9.176  0.0027  0.0647 -0.4600
    3DOPE   H7X  354   1.510   2.594   9.127  0.5133 -2.6339  2.2480
    3DOPE   H7Y  355   1.522   2.755   9.199  2.0754  1.0908  1.1933
    3DOPE   C38  356   1.690   2.704   9.075  0.7444 -0.0802 -0.4328
    3DOPE   H8X  357   1.766   2.769   9.123  0.0805  0.6724 -0.3806
    3DOPE   H8Y  358   1.637   2.764   8.998  1.8492 -0.0181 -1.1654
    3DOPE   C39  359   1.761   2.586   9.018  0.0047  0.3382 -0.0375
    3DOPE   H9X  360   1.835   2.538   9.084 -1.5511 -1.3724  0.5221
    3DOPE  C310  361   1.753   2.539   8.892  0.3184 -0.6475  0.3723
    3DOPE  H10X  362   1.818   2.452   8.875  0.0935 -1.4317  3.1606
    3DOPE  C311  363   1.668   2.592   8.782  0.1936 -0.4304 -0.5486
    3DOPE  H11X  364   1.629   2.514   8.714 -0.9789 -0.7820  0.4904
    3DOPE  H11Y  365   1.572   2.634   8.818 -1.2238 -0.8427 -3.5338
    3DOPE  C312  366   1.729   2.698   8.685 -0.5950 -0.2076  0.0983
    3DOPE  H12X  367   1.731   2.798   8.733 -0.2188 -0.4469  0.5999
    3DOPE  H12Y  368   1.669   2.705   8.592  2.2952  1.9553 -1.7918
    3DOPE  C313  369   1.876   2.659   8.631 -0.1588 -0.1931 -0.6879
    3DOPE  H13X  370   1.950   2.696   8.705 -1.6084 -0.4178  0.9324
    3DOPE  H13Y  371   1.905   2.553   8.610 -1.9585 -0.4889 -1.8905
    3DOPE  C314  372   1.910   2.746   8.505  0.2370  0.2496 -0.2784
    3DOPE  H14X  373   1.871   2.847   8.532  2.9320  1.0295  1.1408
    3DOPE  H14Y  374   1.853   2.697   8.424  1.0100  0.2395 -0.8300
    3DOPE  C315  375   2.061   2.761   8.480 -0.7153  0.4167  0.3180
    3DOPE  H15X  376   2.108   2.773   8.580 -0.5655 -3.0471  0.7899
    3DOPE  H15Y  377   2.076   2.856   8.424 -0.5986 -0.1610 -0.6543
    3DOPE  C316  378   2.133   2.651   8.399 -1.2695  0.3715  0.3722
    3DOPE  H16X  379   2.069   2.627   8.311  0.1519 -2.0081 -0.1244
    3DOPE  H16Y  380   2.138   2.556   8.457  0.1535  0.6074  0.6729
    3DOPE  C317  381   2.271   2.695   8.355 -0.7642 -0.6532  0.6087
    3DOPE  H17X  382   2.269   2.772   8.275 -0.8672  0.4120  1.6010
    3DOPE  H17Y  383   2.317   2.739   8.446  2.4141 -0.9579 -0.7265
    3DOPE  C318  384   2.358   2.577   8.308 -0.1564 -0.3256  0.0220
    3DOPE  H18X  385   2.453   2.611   8.262  0.4556 -0.9413  0.8021
    3DOPE  H18Y  386   2.394   2.526   8.400  1.1456  1.2803  0.4292
    3DOPE  H18Z  387   2.300   2.509   8.241  2.5897 -0.7413 -2.1305
    4DOPE     N  388   2.136   0.099  10.485 -0.6302 -0.4477 -0.0808
    4DOPE   HN1  389   2.115   0.195  10.517  0.2370 -0.5141  0.7229
    4DOPE   HN2  390   2.081   0.030  10.540 -2.2738  0.5421 -0.4184
    4DOPE   HN3  391   2.235   0.081  10.512 -0.4197  0.5279 -0.1809
    4DOPE   C12  392   2.111   0.090  10.342  0.4834  0.1051  0.0556
    4DOPE  H12A  393   2.020   0.142  10.306 -1.3443 -3.0641 -0.3488
    4DOPE  H12B  394   2.088  -0.017  10.322 -0.2307  0.5373 -1.5501
    4DOPE   C11  395   2.236   0.132  10.265  0.7402  0.8437  0.0396
    4DOPE  H11A  396   2.261   0.234  10.301 -0.3845  0.8523  0.8499
    4DOPE  H11B  397   2.199   0.136  10.161 -1.3906 -0.3956  0.6917
    4DOPE     P  398   2.440  -0.008  10.175 -0.2141 -0.2715 -0.4074
    4DOPE   O13  399   2.509  -0.130  10.220  0.2141 -0.0395 -0.3594
    4DOPE   O14  400   2.530   0.109  10.137 -0.1422  0.0481  0.1816
    4DOPE   O11  401   2.351  -0.043  10.053  0.5950  0.2598 -0.4710
    4DOPE   O12  402   2.340   0.041  10.285 -0.1293 -0.4262 -0.6478
    4DOPE    C1  403   2.313   0.046   9.949  0.3199  0.0261 -0.8552
    4DOPE    HA  404   2.312   0.151   9.988 -2.4606 -0.6868  1.3421
    4DOPE    HB  405   2.211   0.018   9.915  0.4210  0.2617 -1.3602
    4DOPE    C2  406   2.414   0.027   9.831  0.3767 -0.0276 -0.1657
    4DOPE    HS  407   2.511   0.070   9.864 -0.2760  1.5055 -0.1353
    4DOPE   O21  408   2.356   0.090   9.712  0.0092  0.2436  0.1921
    4DOPE   C21  409   2.417   0.209   9.688 -0.6332  0.4309 -0.8838
    4DOPE   O22  410   2.491   0.271   9.760  0.2302 -0.1730  0.1569
    4DOPE   C22  411   2.394   0.251   9.548  0.0091  0.2404  0.1503
    4DOPE   H2R  412   2.297   0.305   9.554 -1.6719 -2.2853 -1.6557
    4DOPE   H2S  413   2.379   0.161   9.484  0.7540  1.0033 -1.1407
    4DOPE    C3  414   2.435  -0.124   9.794 -0.3187  0.7035 -0.4001
    4DOPE    HX  415   2.333  -0.167   9.796 -1.1590  2.0777 -4.1542
    4DOPE    HY  416   2.490  -0.183   9.870 -1.5614  0.0360 -0.0027
    4DOPE   O31  417   2.490  -0.139   9.661  0.2507 -0.4851  0.0923
    4DOPE   C31  418   2.619  -0.155   9.662 -0.4171  0.8062 -0.1343
    4DOPE   O32  419   2.690  -0.142   9.760 -0.2076  0.2985  0.0784
    4DOPE   C32  420   2.669  -0.192   9.516 -0.6650 -0.0734  0.1146
    4DOPE   H2X  421   2.766  -0.246   9.521 -0.4269  0.3057 -0.3288
    4DOPE   H2Y  422   2.597  -0.258   9.465  1.0688  0.6418 -3.5461
    4DOPE   C23  423   2.512   0.333   9.486 -0.3734 -0.6502  0.1489
    4DOPE   H3R  424   2.607   0.279   9.507 -0.9714 -0.9863  2.2178
    4DOPE   H3S  425   2.523   0.436   9.525  1.8533 -0.5728 -0.5120
    4DOPE   C24  426   2.505   0.354   9.328 -0.1761  0.3770 -0.8192
    4DOPE   H4R  427   2.520   0.251   9.289  0.5430 -0.0093  0.4089
    4DOPE   H4S  428   2.591   0.419   9.301  0.7111  0.4533  1.8521
    4DOPE   C25  429   2.379   0.423   9.281  0.9709  0.1395  0.1885
    4DOPE   H5R  430   2.378   0.523   9.330  0.5710  0.8593 -1.2493
    4DOPE   H5S  431   2.286   0.373   9.315  1.5915 -1.5562 -0.5259
    4DOPE   C26  432   2.376   0.457   9.133 -0.0788 -0.0684  0.0262
    4DOPE   H6R  433   2.447   0.537   9.104  0.6496 -1.1359 -1.2415
    4DOPE   H6S  434   2.283   0.517   9.120 -0.2974 -0.6276 -1.0854
    4DOPE   C27  435   2.372   0.334   9.044 -0.2288 -0.3105  0.3275
    4DOPE   H7R  436   2.290   0.269   9.083 -0.3873 -0.4443 -0.2255
    4DOPE   H7S  437   2.464   0.272   9.041 -0.4068 -0.6914 -4.2643
    4DOPE   C28  438   2.343   0.371   8.899  0.8994 -0.1249  0.5708
    4DOPE   H8R  439   2.405   0.459   8.871 -0.8925  1.1611  0.5037
    4DOPE   H8S  440   2.239   0.408   8.907  2.0929  3.4097  1.4686
    4DOPE   C29  441   2.357   0.255   8.804  1.1344  0.0272  0.0359
    4DOPE   H9R  442   2.355   0.158   8.855  1.3192  0.7565  1.4879
    4DOPE  C210  443   2.375   0.261   8.672 -0.3634  0.0149  1.2205
    4DOPE  H10R  444   2.368   0.165   8.618  0.3966 -0.2881  1.6455
    4DOPE  C211  445   2.399   0.375   8.581 -0.4392  0.4664 -0.6494
    4DOPE  H11R  446   2.476   0.359   8.503 -0.8670  0.5077 -1.0879
    4DOPE  H11S  447   2.420   0.472   8.632  3.7053 -0.9808  0.7924
    4DOPE  C212  448   2.269   0.386   8.503  0.8855 -0.6703  0.4843
    4DOPE  H12R  449   2.180   0.379   8.569  0.6490  1.9684  0.5549
    4DOPE  H12S  450   2.254   0.307   8.426 -0.3223  2.0112 -2.2454
    4DOPE  C213  451   2.262   0.520   8.415 -0.6509  0.4008 -0.5366
    4DOPE  H13R  452   2.346   0.519   8.342 -1.3737  1.8830 -1.4433
    4DOPE  H13S  453   2.275   0.612   8.476  1.4900 -0.5279  0.5342
    4DOPE  C214  454   2.126   0.526   8.339  0.4196 -0.5288 -0.0848
    4DOPE  H14R  455   2.116   0.443   8.265  3.0408  0.2647 -1.4705
    4DOPE  H14S  456   2.146   0.620   8.283  0.4816 -0.0831  0.6667
    4DOPE  C215  457   2.002   0.548   8.428 -0.2566 -0.1966  0.1540
    4DOPE  H15R  458   1.994   0.648   8.475 -3.0526 -0.9629  1.5733
    4DOPE  H15S  459   2.002   0.481   8.517 -1.7120 -2.6398 -1.5575
    4DOPE  C216  460   1.875   0.516   8.344 -0.3570 -0.5143 -0.1842
    4DOPE  H16R  461   1.846   0.410   8.356 -2.0695  0.1424  2.2725
    4DOPE  H16S  462   1.894   0.549   8.239 -1.4247 -0.7516 -0.4708
    4DOPE  C217  463   1.757   0.611   8.378  0.0929  0.1083  0.0214
    4DOPE  H17R  464   1.747   0.607   8.489  0.8771  1.6924  0.1681
    4DOPE  H17S  465   1.663   0.568   8.337  0.3998  1.9738 -2.9075
    4DOPE  C218  466   1.776   0.751   8.332 -0.1968 -0.0055 -0.1428
    4DOPE  H18R  467   1.755   0.749   8.223 -0.4900 -2.3741 -0.0958
    4DOPE  H18S  468   1.880   0.780   8.359 -0.5514  1.7745 -0.5748
    4DOPE  H18T  469   1.708   0.825   8.380  1.5828 -0.5824  3.5763
    4DOPE   C33  470   2.696  -0.063   9.427  0.8434 -0.6701 -0.0030
    4DOPE   H3X  471   2.767   0.003   9.480 -0.1002 -0.3675  0.9186
    4DOPE   H3Y  472   2.596  -0.015   9.416  0.0978 -2.0673  0.4192
    4DOPE   C34  473   2.761  -0.092   9.288  0.6761  0.6059  0.1785
    4DOPE   H4X  474   2.788   0.009   9.250 -1.1967  1.5011  1.0296
    4DOPE   H4Y  475   2.844  -0.161   9.312 -0.3631 -0.5427  0.6040
    4DOPE   C35  476   2.663  -0.162   9.191  0.2546 -0.9639  0.0499
    4DOPE   H5X  477   2.571  -0.101   9.181  1.2058  0.3052 -1.3939
    4DOPE   H5Y  478   2.627  -0.256   9.239 -0.7545 -1.0335 -0.8128
    4DOPE   C36  479   2.721  -0.192   9.054 -0.1086 -0.2080  0.5350
    4DOPE   H6X  480   2.811  -0.257   9.065  0.0332 -0.0333  0.4155
    4DOPE   H6Y  481   2.745  -0.098   9.000 -1.3673 -0.4465 -0.4789
    4DOPE   C37  482   2.622  -0.277   8.973  0.4473 -0.4341  0.3010
    4DOPE   H7X  483   2.598  -0.371   9.029 -1.0982  0.0672  0.5431
    4DOPE   H7Y  484   2.524  -0.225   8.982  0.4721 -0.0746 -1.3641
    4DOPE   C38  485   2.658  -0.321   8.836 -0.2518  0.5124  0.4299
    4DOPE   H8X  486   2.594  -0.395   8.785  0.8121 -0.2588  0.1828
    4DOPE   H8Y  487   2.763  -0.357   8.830  0.4869  2.6609 -0.7086
    4DOPE   C39  488   2.660  -0.199   8.752  0.2079 -1.2544  0.1913
    4DOPE   H9X  489   2.730  -0.119   8.779 -2.6542  1.4223  0.1408
    4DOPE  C310  490   2.567  -0.149   8.667 -0.2383 -0.3085 -0.2878
    4DOPE  H10X  491   2.587  -0.046   8.633  0.1462  0.2628  1.5184
    4DOPE  C311  492   2.438  -0.215   8.627 -0.3535  0.1873 -0.2262
    4DOPE  H11X  493   2.413  -0.310   8.680 -0.9127  1.2274  1.4249
    4DOPE  H11Y  494   2.353  -0.147   8.649 -0.5297  0.6146 -2.0687
    4DOPE  C312  495   2.440  -0.242   8.470 -0.1277 -0.1693 -0.2958
    4DOPE  H12X  496   2.477  -0.147   8.425  0.4688  0.3685  1.2474
    4DOPE  H12Y  497   2.337  -0.261   8.434 -1.0311  3.2737  0.1118
    4DOPE  C313  498   2.540  -0.348   8.419 -0.2368  0.0363 -0.8053
    4DOPE  H13X  499   2.546  -0.324   8.310 -0.3524  1.1402 -0.5768
    4DOPE  H13Y  500   2.639  -0.310   8.453 -1.9093  2.0699  2.2582
    4DOPE  C314  501   2.516  -0.488   8.464  0.2308  0.0146 -0.2842
    4DOPE  H14X  502   2.413  -0.505   8.427 -0.1740  0.3469  0.6451
    4DOPE  H14Y  503   2.520  -0.486   8.575  1.3117  0.9366 -0.3233
    4DOPE  C315  504   2.618  -0.583   8.406  0.1820  0.1645  0.3550
    4DOPE  H15X  505   2.717  -0.564   8.453  0.4331 -0.1909 -0.0240
    4DOPE  H15Y  506   2.606  -0.555   8.299 -1.7298  2.0880  0.9937
    4DOPE  C316  507   2.572  -0.734   8.436  0.5262 -0.2206 -0.1923
    4DOPE  H16X  508   2.562  -0.732   8.547  0.0340 -0.5821 -0.2266
    4DOPE  H16Y  509   2.653  -0.807   8.415  0.1461 -0.5802 -0.4377
    4DOPE  C317  510   2.446  -0.769   8.368 -0.6281  0.3868  0.0280
    4DOPE  H17X  511   2.365  -0.694   8.356 -1.7617 -0.8346 -0.2305
    4DOPE  H17Y  512   2.483  -0.796   8.267  0.1196 -1.6750  0.7901
    4DOPE  C318  513   2.391  -0.900   8.416  0.2126 -0.1234 -0.0451
    4DOPE  H18X  514   2.457  -0.988   8.397  0.5275  0.1749 -0.3362
    4DOPE  H18Y  515   2.363  -0.895   8.523 -1.7698 -0.8109 -0.4976
    4DOPE  H18Z  516   2.302  -0.924   8.354 -1.8781  2.1226  1.8920
    5DOPE     N  517   1.018   2.767  10.947  0.4097  0.0350  0.4693
    5DOPE   HN1  518   0.968   2.689  10.901 -1.7739  1.2205  0.7256
    5DOPE   HN2  519   1.081   2.742  11.026  1.1260 -1.4450 -0.5176
    5DOPE   HN3  520   0.950   2.836  10.984 -1.4931 -1.6126  0.1830
    5DOPE   C12  521   1.116   2.820  10.847 -0.3219 -0.5287  0.3320
    5DOPE  H12A  522   1.203   2.751  10.845  0.5600  0.4344  2.5075
    5DOPE  H12B  523   1.143   2.923  10.879  1.1114 -0.2265 -1.7031
    5DOPE   C11  524   1.065   2.821  10.704 -0.6445 -0.0026  0.1919
    5DOPE  H11A  525   1.046   2.720  10.662  0.6139  0.1752 -0.8786
    5DOPE  H11B  526   1.161   2.843  10.652  0.4057  1.1921  2.4374
    5DOPE     P  527   0.949   3.019  10.571 -0.5644  0.4394  0.1439
    5DOPE   O13  528   1.016   3.145  10.610  0.0817 -0.0811 -0.1971
    5DOPE   O14  529   0.808   3.033  10.516 -0.1485 -0.5203 -0.0619
    5DOPE   O11  530   1.036   2.950  10.456  0.4088 -0.0611 -0.0877
    5DOPE   O12  531   0.956   2.908  10.690  0.1638 -0.0754 -0.1266
    5DOPE    C1  532   1.157   3.004  10.391 -0.4538  0.2555  0.2643
    5DOPE    HA  533   1.224   2.919  10.368 -1.3263 -1.1142  2.4459
    5DOPE    HB  534   1.213   3.055  10.471  0.7169 -2.2752  1.1653
    5DOPE    C2  535   1.123   3.096  10.277 -0.2035 -0.1150  0.5213
    5DOPE    HS  536   1.041   3.167  10.304 -1.1297 -0.7168 -0.6008
    5DOPE   O21  537   1.080   3.011  10.165  0.2910 -0.5792  0.9915
    5DOPE   C21  538   0.982   3.057  10.090  0.2538  0.0140 -0.0023
    5DOPE   O22  539   0.916   3.157  10.106 -0.0950  0.0386  0.2404
    5DOPE   C22  540   0.957   2.949   9.986  0.5094 -0.4693  0.6662
    5DOPE   H2R  541   0.888   2.877  10.034 -2.9536  1.5881 -0.8246
    5DOPE   H2S  542   1.053   2.900   9.959  0.5618 -0.8146  1.4448
    5DOPE    C3  543   1.246   3.172  10.226 -0.3440 -0.4125  1.1586
    5DOPE    HX  544   1.329   3.102  10.203  0.1172  0.9887 -1.9880
    5DOPE    HY  545   1.295   3.244  10.296  0.7493 -0.3420  0.3480
    5DOPE   O31  546   1.219   3.242  10.102 -0.3796 -0.3208 -0.2472
    5DOPE   C31  547   1.193   3.374  10.105  0.9165  0.3315  0.1827
    5DOPE   O32  548   1.180   3.444  10.206  0.5078  0.4984 -0.4587
    5DOPE   C32  549   1.176   3.420   9.963 -0.2379 -0.0169  0.1809
    5DOPE   H2X  550   1.279   3.414   9.921 -0.1259  0.4306  0.3859
    5DOPE   H2Y  551   1.118   3.344   9.907 -0.1687 -2.4345  3.0927
    5DOPE   C23  552   0.882   3.008   9.862 -0.3182  0.9820 -0.2801
    5DOPE   H3R  553   0.818   3.091   9.899  1.1641  1.1776  2.0016
    5DOPE   H3S  554   0.826   2.920   9.823  0.7977  0.8117 -1.6039
    5DOPE   C24  555   0.974   3.062   9.745 -0.4663  0.5105 -0.3287
    5DOPE   H4R  556   1.026   2.978   9.694  1.5372  0.8583  1.0595
    5DOPE   H4S  557   1.050   3.120   9.801  0.1189  1.0977 -1.6696
    5DOPE   C25  558   0.906   3.154   9.646 -0.2133  0.2986  0.1145
    5DOPE   H5R  559   0.888   3.254   9.691  0.2884 -0.0147  1.0406
    5DOPE   H5S  560   0.809   3.120   9.606  0.6061 -1.4410 -0.4977
    5DOPE   C26  561   0.999   3.190   9.518  0.3804  0.2482 -1.0879
    5DOPE   H6R  562   1.041   3.100   9.468  1.0523 -0.7288  1.1205
    5DOPE   H6S  563   1.085   3.251   9.550 -1.0423  0.7267  2.2386
    5DOPE   C27  564   0.919   3.278   9.423  0.1650 -0.0908  0.1726
    5DOPE   H7R  565   0.894   3.377   9.467  0.9031 -0.1420  0.7309
    5DOPE   H7S  566   0.822   3.226   9.405 -0.8177  2.1833 -1.6139
    5DOPE   C28  567   0.974   3.281   9.279 -0.0226 -0.1158  0.3286
    5DOPE   H8R  568   0.888   3.278   9.208  0.9546 -0.1602 -0.9047
    5DOPE   H8S  569   1.034   3.188   9.268 -0.6220 -0.6826  1.6750
    5DOPE   C29  570   1.048   3.413   9.275 -0.0520  0.1390  0.0361
    5DOPE   H9R  571   1.115   3.431   9.360  0.2878  0.7740 -0.3607
    5DOPE  C210  572   1.051   3.500   9.171  0.1798  0.0802  0.0029
    5DOPE  H10R  573   1.105   3.596   9.173 -0.6673  0.5572  1.4794
    5DOPE  C211  574   0.983   3.495   9.044 -0.2514 -0.1264  0.1507
    5DOPE  H11R  575   0.974   3.598   9.004  1.0786  0.5904  1.5978
    5DOPE  H11S  576   0.883   3.448   9.058  0.4856 -1.4628  1.2490
    5DOPE  C212  577   1.061   3.404   8.941  0.1041  0.3198  0.1419
    5DOPE  H12R  578   1.048   3.300   8.977  0.9843  0.3875  0.6774
    5DOPE  H12S  579   1.168   3.433   8.931  0.1252  0.4418  0.6797
    5DOPE  C213  580   1.009   3.405   8.796  0.4227 -0.2920 -0.0817
    5DOPE  H13R  581   1.042   3.504   8.757  2.1678  0.2695  2.5878
    5DOPE  H13S  582   0.899   3.390   8.795  0.2256  0.8366  1.4569
    5DOPE  C214  583   1.067   3.295   8.708  0.3398  0.3095  0.3896
    5DOPE  H14R  584   1.040   3.195   8.747 -0.7706  1.0404  1.5999
    5DOPE  H14S  585   1.178   3.296   8.714  0.7536 -1.1580 -3.7586
    5DOPE  C215  586   1.020   3.311   8.564 -0.3412  0.0571  0.0306
    5DOPE  H15R  587   0.995   3.419   8.555 -2.0202 -0.1779  1.2893
    5DOPE  H15S  588   0.926   3.258   8.535  0.5127 -0.3820 -2.1138
    5DOPE  C216  589   1.127   3.272   8.465 -0.2596 -0.0980  0.5831
    5DOPE  H16R  590   1.156   3.165   8.474  0.7139  0.1457  0.5418
    5DOPE  H16S  591   1.216   3.337   8.483  1.7641 -1.6787 -2.7767
    5DOPE  C217  592   1.099   3.296   8.318 -0.2651 -0.0642 -0.1629
    5DOPE  H17R  593   1.104   3.403   8.290 -2.1939  0.1078 -0.0120
    5DOPE  H17S  594   0.994   3.260   8.305 -0.3517 -0.0521  0.4904
    5DOPE  C218  595   1.190   3.213   8.224 -0.5956  0.5722 -0.5391
    5DOPE  H18R  596   1.168   3.105   8.239  0.4921  0.4269  0.2083
    5DOPE  H18S  597   1.296   3.234   8.252  0.0923 -1.1016 -1.6861
    5DOPE  H18T  598   1.168   3.246   8.121  0.7164  0.4734 -0.8752
    5DOPE   C33  599   1.119   3.562   9.950  0.3050  0.0849  0.1985
    5DOPE   H3X  600   1.164   3.634  10.022 -0.3053  1.2860 -0.5917
    5DOPE   H3Y  601   1.012   3.564   9.980  0.7941  2.6489  2.1426
    5DOPE   C34  602   1.124   3.614   9.807  0.1519  0.2475  0.2157
    5DOPE   H4X  603   1.043   3.561   9.751 -1.4891  2.3121  0.4840
    5DOPE   H4Y  604   1.090   3.720   9.805 -1.5852 -0.2604  0.6130
    5DOPE   C35  605   1.260   3.606   9.738  0.0734 -0.4180 -0.6834
    5DOPE   H5X  606   1.286   3.499   9.723  2.0778  0.0987 -1.2072
    5DOPE   H5Y  607   1.342   3.646   9.802  0.0656 -0.1835 -0.8180
    5DOPE   C36  608   1.258   3.677   9.603  0.2500 -0.4519  0.1182
    5DOPE   H6X  609   1.247   3.787   9.609 -0.4634 -0.5489  0.8125
    5DOPE   H6Y  610   1.170   3.639   9.546  0.5950 -2.0268  0.5773
    5DOPE   C37  611   1.381   3.636   9.519 -0.6584 -0.0122  0.3985
    5DOPE   H7X  612   1.475   3.670   9.568  0.1719 -0.6704 -0.6917
    5DOPE   H7Y  613   1.395   3.526   9.513 -2.1768 -0.1716 -1.3357
    5DOPE   C38  614   1.378   3.695   9.376 -0.2433 -0.5569 -0.4525
    5DOPE   H8X  615   1.355   3.803   9.394  0.4828 -0.4568 -0.1025
    5DOPE   H8Y  616   1.288   3.642   9.338 -1.7904  0.4853  1.5512
    5DOPE   C39  617   1.488   3.685   9.276 -0.2304 -0.1949 -0.1140
    5DOPE   H9X  618   1.590   3.660   9.308 -0.6622 -1.0004  0.6444
    5DOPE  C310  619   1.464   3.696   9.146  0.1728 -1.0222  0.0195
    5DOPE  H10X  620   1.554   3.686   9.083  0.4266  0.9039  0.0060
    5DOPE  C311  621   1.330   3.730   9.079 -0.5961 -0.6617  0.3530
    5DOPE  H11X  622   1.277   3.640   9.043 -2.7890  0.2429  1.1502
    5DOPE  H11Y  623   1.261   3.779   9.151  1.8871  0.2445  2.3039
    5DOPE  C312  624   1.341   3.817   8.948 -0.3036  0.3489 -0.4098
    5DOPE  H12X  625   1.408   3.766   8.875  1.3345  4.0604 -1.7894
    5DOPE  H12Y  626   1.394   3.912   8.973 -1.1091  0.3860  1.3080
    5DOPE  C313  627   1.215   3.861   8.885  0.1411  0.2362 -0.0715
    5DOPE  H13X  628   1.143   3.785   8.848  2.9916 -1.6266 -2.3112
    5DOPE  H13Y  629   1.161   3.909   8.969  0.4766 -0.0456  0.3100
    5DOPE  C314  630   1.224   3.966   8.776 -0.2968 -0.0837  0.1936
    5DOPE  H14X  631   1.276   3.922   8.688 -0.2556  1.2610 -0.4843
    5DOPE  H14Y  632   1.273   4.062   8.803 -1.2234  0.2734  0.6340
    5DOPE  C315  633   1.084   3.987   8.719  0.4396 -0.1151 -0.2770
    5DOPE  H15X  634   1.011   4.011   8.799  0.2617  0.5675 -0.6360
    5DOPE  H15Y  635   1.051   3.889   8.677  1.3252 -0.5479  0.0138
    5DOPE  C316  636   1.072   4.086   8.605 -0.0286 -0.1652  0.5333
    5DOPE  H16X  637   1.076   4.037   8.505 -2.4693  1.4739 -0.4494
    5DOPE  H16Y  638   1.147   4.168   8.608 -0.7436  0.8481 -3.3698
    5DOPE  C317  639   0.937   4.160   8.600 -0.4087  0.2271  0.0597
    5DOPE  H17X  640   0.938   4.221   8.507  0.2005 -1.3839 -1.0428
    5DOPE  H17Y  641   0.858   4.083   8.588  0.4019 -0.7430  0.7939
    5DOPE  C318  642   0.898   4.237   8.726  0.3825 -0.0253 -0.4078
    5DOPE  H18X  643   0.845   4.324   8.683  1.1706  0.1355 -1.0766
    5DOPE  H18Y  644   0.825   4.181   8.788  0.5199 -0.7510 -0.8811
    5DOPE  H18Z  645   0.990   4.277   8.775  0.6158 -0.5886 -0.3751
    6DOPE     N  646   0.419   4.675  10.487 -0.4339 -0.0408 -0.2129
    6DOPE   HN1  647   0.499   4.736  10.514 -0.3010  0.0439 -0.7758
    6DOPE   HN2  648   0.340   4.698  10.551  1.2574  1.4766  1.4736
    6DOPE   HN3  649   0.437   4.573  10.483 -0.4346 -0.0871  0.7253
    6DOPE   C12  650   0.390   4.714  10.343 -0.1877  0.4576 -0.4167
    6DOPE  H12A  651   0.480   4.698  10.280  0.5015  1.5447  0.2669
    6DOPE  H12B  652   0.369   4.822  10.360 -2.0053 -0.1766  1.7262
    6DOPE   C11  653   0.267   4.656  10.267  0.0172  0.0973  0.0085
    6DOPE  H11A  654   0.277   4.551  10.231 -3.5074 -1.2598  2.4244
    6DOPE  H11B  655   0.251   4.721  10.178  0.5365 -1.0538 -0.9612
    6DOPE     P  656   0.047   4.744  10.365  0.0472  0.2198 -0.2262
    6DOPE   O13  657   0.100   4.881  10.369  0.0867 -0.0338  0.1620
    6DOPE   O14  658  -0.044   4.705  10.474  0.5368 -0.7046  0.2932
    6DOPE   O11  659  -0.021   4.725  10.224  0.0201  0.2553  0.1190
    6DOPE   O12  660   0.165   4.647  10.368 -0.0125  0.3088 -0.1581
    6DOPE    C1  661  -0.056   4.598  10.164 -0.8712  0.7050  0.2416
    6DOPE    HA  662  -0.167   4.591  10.161 -1.0074  2.1829  0.9440
    6DOPE    HB  663  -0.026   4.508  10.222 -0.1614 -0.7520 -2.2509
    6DOPE    C2  664   0.004   4.582  10.018  0.2730 -0.2258  0.3316
    6DOPE    HS  665   0.114   4.576  10.032  0.1363  1.5077  2.7623
    6DOPE   O21  666  -0.028   4.695   9.938  0.0023  0.2948  0.0718
    6DOPE   C21  667   0.074   4.758   9.881  0.7470  0.0151  0.6468
    6DOPE   O22  668   0.194   4.752   9.901  0.2872 -0.2072 -0.0796
    6DOPE   C22  669   0.015   4.833   9.763  0.3606 -0.2965  0.1630
    6DOPE   H2R  670  -0.031   4.931   9.788 -0.9243 -0.9149  0.2755
    6DOPE   H2S  671  -0.066   4.779   9.710  0.0228  0.9287 -0.6163
    6DOPE    C3  672  -0.044   4.453   9.949 -1.0642  0.3758 -0.0700
    6DOPE    HX  673  -0.153   4.471   9.942 -0.5056  3.9667 -1.8589
    6DOPE    HY  674  -0.024   4.363  10.011 -2.2761 -0.7948 -1.3288
    6DOPE   O31  675   0.008   4.439   9.811 -0.2245  0.2687  0.1420
    6DOPE   C31  676  -0.066   4.450   9.706  0.2999  0.6442 -0.2444
    6DOPE   O32  677  -0.182   4.486   9.704  0.4932 -0.2455 -0.0526
    6DOPE   C32  678   0.008   4.396   9.582 -0.6723 -0.1488 -0.3267
    6DOPE   H2X  679   0.114   4.411   9.615  0.2026 -0.0734 -2.9510
    6DOPE   H2Y  680  -0.010   4.287   9.585 -2.0861  0.0699  2.4796
    6DOPE   C23  681   0.121   4.847   9.649 -0.2531  0.0920  0.1538
    6DOPE   H3R  682   0.163   4.746   9.629 -2.0282 -0.6391 -0.0000
    6DOPE   H3S  683   0.202   4.919   9.674  0.2555  0.2050 -1.6303
    6DOPE   C24  684   0.060   4.901   9.519 -0.7855  0.4089  0.3123
    6DOPE   H4R  685   0.041   5.008   9.543  2.1384  1.1966 -0.4393
    6DOPE   H4S  686  -0.033   4.847   9.490 -0.0500 -2.3709  2.6045
    6DOPE   C25  687   0.164   4.905   9.406  0.6032 -0.1531  0.1136
    6DOPE   H5R  688   0.269   4.936   9.424  0.1747  2.0975 -0.9307
    6DOPE   H5S  689   0.121   4.972   9.328  0.1652  0.9326  1.2631
    6DOPE   C26  690   0.178   4.766   9.326  1.0032  0.1261  0.4650
    6DOPE   H6R  691   0.083   4.745   9.273  0.5686 -3.1766  2.2802
    6DOPE   H6S  692   0.179   4.680   9.396 -1.4615 -2.4200 -2.3500
    6DOPE   C27  693   0.294   4.762   9.223 -0.2561 -0.1021 -0.3436
    6DOPE   H7R  694   0.353   4.672   9.254  0.1707  0.7071  1.2843
    6DOPE   H7S  695   0.352   4.856   9.226  1.7281 -1.2123 -1.6228
    6DOPE   C28  696   0.243   4.770   9.076 -0.2308  0.4868  0.3370
    6DOPE   H8R  697   0.190   4.866   9.054  0.2744  0.6128 -0.3532
    6DOPE   H8S  698   0.172   4.685   9.072  0.4866 -0.1209  0.4171
    6DOPE   C29  699   0.342   4.763   8.967 -0.2832 -0.2755 -0.4248
    6DOPE   H9R  700   0.431   4.822   8.992  0.6829 -1.9045  0.1446
    6DOPE  C210  701   0.348   4.695   8.851 -0.0270  0.0536 -0.7777
    6DOPE  H10R  702   0.434   4.704   8.782 -0.7084  0.8022 -1.5460
    6DOPE  C211  703   0.236   4.624   8.804 -0.1552 -0.8037 -0.2589
    6DOPE  H11R  704   0.140   4.664   8.844 -1.5683 -0.6687 -3.4301
    6DOPE  H11S  705   0.241   4.515   8.828 -0.0774 -0.8340 -0.4141
    6DOPE  C212  706   0.223   4.627   8.650 -0.1299  0.2020  0.3516
    6DOPE  H12R  707   0.220   4.733   8.616  3.0099 -0.3887 -2.1165
    6DOPE  H12S  708   0.130   4.577   8.614 -0.2354  1.3592 -1.0820
    6DOPE  C213  709   0.331   4.546   8.574 -0.0816  0.3320 -0.7686
    6DOPE  H13R  710   0.438   4.575   8.586 -0.4170  1.7449 -0.9593
    6DOPE  H13S  711   0.306   4.547   8.466 -0.9178  1.6113 -0.5910
    6DOPE  C214  712   0.316   4.404   8.617 -0.0011 -0.4758 -0.2251
    6DOPE  H14R  713   0.209   4.373   8.621  0.0321 -0.5098  0.5533
    6DOPE  H14S  714   0.368   4.398   8.715  0.6561 -1.2520 -0.6120
    6DOPE  C215  715   0.393   4.311   8.520 -0.2320  0.3111  0.1042
    6DOPE  H15R  716   0.503   4.324   8.528 -0.3263  0.3348  1.4887
    6DOPE  H15S  717   0.364   4.332   8.414 -3.1325 -0.0735  0.7349
    6DOPE  C216  718   0.368   4.165   8.567  0.3543 -0.0495 -0.0818
    6DOPE  H16R  719   0.263   4.137   8.544 -0.2039  2.9119 -1.5836
    6DOPE  H16S  720   0.387   4.159   8.677  1.3705 -0.4142 -0.2612
    6DOPE  C217  721   0.446   4.055   8.496  0.3493 -0.5975  0.4028
    6DOPE  H17R  722   0.551   4.071   8.527  0.5752 -0.1690 -0.5418
    6DOPE  H17S  723   0.439   4.071   8.386  2.0025  1.7153  0.5638
    6DOPE  C218  724   0.405   3.911   8.523 -0.8168 -0.1271  0.0167
    6DOPE  H18R  725   0.303   3.891   8.486 -1.1449 -1.1926  1.4142
    6DOPE  H18S  726   0.410   3.898   8.634  0.2702 -1.8835 -0.2035
    6DOPE  H18T  727   0.478   3.844   8.473  0.3798  1.4817 -0.5125
    6DOPE   C33  728  -0.030   4.459   9.450 -0.0258 -0.5138  0.2236
    6DOPE   H3X  729  -0.016   4.569   9.456 -0.0162 -0.5460  0.8396
    6DOPE   H3Y  730  -0.140   4.444   9.444 -0.3144  1.1388  0.7182
    6DOPE   C34  731   0.029   4.382   9.332 -0.1680 -0.1765  0.0582
    6DOPE   H4X  732   0.138   4.403   9.335  0.1283 -1.0745 -2.1994
    6DOPE   H4Y  733  -0.005   4.276   9.337  1.1597 -0.7397 -1.7649
    6DOPE   C35  734  -0.036   4.429   9.198 -0.0330  0.5845  0.0805
    6DOPE   H5X  735  -0.004   4.531   9.168  0.3156  0.6681  0.6998
    6DOPE   H5Y  736  -0.143   4.447   9.222 -0.3703 -0.7988 -0.3377
    6DOPE   C36  737  -0.022   4.330   9.083 -0.3818 -0.2714 -0.0473
    6DOPE   H6X  738  -0.094   4.247   9.089 -1.3205  0.6180  2.1374
    6DOPE   H6Y  739   0.081   4.288   9.088  0.3721  1.3885 -0.5803
    6DOPE   C37  740  -0.045   4.408   8.951  0.5544  0.9986  0.3763
    6DOPE   H7X  741  -0.150   4.442   8.937  0.5204  0.0671 -2.1528
    6DOPE   H7Y  742   0.015   4.502   8.946 -0.0079  1.3137 -1.1409
    6DOPE   C38  743   0.014   4.331   8.830  0.2720 -0.6003  0.0399
    6DOPE   H8X  744   0.122   4.326   8.856  0.5782 -0.4297 -1.1259
    6DOPE   H8Y  745   0.015   4.403   8.745  1.2476  0.4537  0.8943
    6DOPE   C39  746  -0.054   4.204   8.789 -0.6717  0.2473  0.2976
    6DOPE   H9X  747  -0.164   4.209   8.782 -0.8592  0.1789  2.4881
    6DOPE  C310  748   0.006   4.079   8.780  0.1098 -0.0715 -0.2014
    6DOPE  H10X  749  -0.048   3.987   8.757  1.2462 -0.7393 -0.2541
    6DOPE  C311  750   0.157   4.055   8.798  0.5613 -0.3110  0.2718
    6DOPE  H11X  751   0.198   4.000   8.710 -1.4849 -0.4225 -0.6632
    6DOPE  H11Y  752   0.217   4.148   8.795  1.2274 -0.7451 -1.6307
    6DOPE  C312  753   0.178   3.953   8.912  0.8763 -0.4715  0.0459
    6DOPE  H12X  754   0.276   3.906   8.890  0.1376 -2.0997  0.1284
    6DOPE  H12Y  755   0.111   3.865   8.912 -0.5068  0.5471  0.3716
    6DOPE  C313  756   0.198   4.025   9.048  0.4209 -0.0036 -1.0290
    6DOPE  H13X  757   0.249   4.122   9.029  0.0432  0.5712  0.6750
    6DOPE  H13Y  758   0.096   4.052   9.084  1.3892 -1.2317  3.0923
    6DOPE  C314  759   0.285   3.955   9.143 -0.4117  0.1886  0.9074
    6DOPE  H14X  760   0.392   3.960   9.115 -0.9017  0.1981 -1.1044
    6DOPE  H14Y  761   0.249   3.851   9.163  0.7564 -0.2004  1.0823
    6DOPE  C315  762   0.285   4.016   9.284  0.2646 -0.0881 -0.3291
    6DOPE  H15X  763   0.182   4.013   9.324  0.6620 -3.0869  0.7507
    6DOPE  H15Y  764   0.312   4.123   9.281  1.0321 -0.2261  0.9368
    6DOPE  C316  765   0.367   3.938   9.386 -0.4311  0.0675  0.0486
    6DOPE  H16X  766   0.475   3.947   9.362 -0.0433 -1.8410  0.9054
    6DOPE  H16Y  767   0.335   3.831   9.391 -1.0195  0.2288 -0.1748
    6DOPE  C317  768   0.350   3.993   9.529 -0.9669 -0.2764 -0.2481
    6DOPE  H17X  769   0.378   4.100   9.521 -3.6718  0.5445  0.1743
    6DOPE  H17Y  770   0.242   3.991   9.555 -0.6242 -1.4420  1.2828
    6DOPE  C318  771   0.424   3.914   9.637 -0.4076 -0.5490 -0.6721
    6DOPE  H18X  772   0.530   3.933   9.612 -0.5533  0.2436 -0.7252
    6DOPE  H18Y  773   0.401   3.949   9.740  0.4336 -0.8913 -0.3655
    6DOPE  H18Z  774   0.403   3.806   9.624  0.7304 -0.7700 -0.7413
    7DOPE     N  775   4.465   3.535  10.881 -0.3274  0.1163  0.5463
    7DOPE   HN1  776   4.504   3.443  10.912 -1.6891 -0.8631 -0.4993
    7DOPE   HN2  777   4.541   3.597  10.848 -0.2208 -0.2346  0.1244
    7DOPE   HN3  778   4.422   3.587  10.960  0.0399  0.0185  0.8140
    7DOPE   C12  779   4.366   3.502  10.768  0.2393 -0.2822 -0.0347
    7DOPE  H12A  780   4.313   3.597  10.745  0.5802  0.2731  1.3148
    7DOPE  H12B  781   4.298   3.426  10.812  2.2800 -2.8301 -1.0305
    7DOPE   C11  782   4.436   3.435  10.644 -0.3357 -0.7712 -0.3761
    7DOPE  H11A  783   4.363   3.404  10.566  1.7834  0.2831 -2.9480
    7DOPE  H11B  784   4.472   3.333  10.670 -2.1473 -1.4989 -0.5655
    7DOPE     P  785   4.518   3.637  10.496  0.2278  0.4083  0.0944
    7DOPE   O13  786   4.645   3.707  10.471 -0.1512  0.0443  0.0487
    7DOPE   O14  787   4.407   3.714  10.562  0.8932 -0.5761  0.4167
    7DOPE   O11  788   4.474   3.566  10.363  0.2902  0.1570 -0.2592
    7DOPE   O12  789   4.541   3.516  10.590 -0.5393 -0.2270 -0.1785
    7DOPE    C1  790   4.559   3.453  10.321  0.6067 -0.4428  0.0885
    7DOPE    HA  791   4.494   3.364  10.339 -0.4064  0.3091  0.2374
    7DOPE    HB  792   4.654   3.443  10.377 -1.0170 -2.0577  2.8099
    7DOPE    C2  793   4.586   3.465  10.173 -0.4078 -0.0006 -0.5230
    7DOPE    HS  794   4.488   3.477  10.123 -0.6432 -0.0767 -0.0829
    7DOPE   O21  795   4.654   3.355  10.115  0.3414  0.3384 -0.5415
    7DOPE   C21  796   4.590   3.237  10.108  0.3268  0.1930  0.5566
    7DOPE   O22  797   4.471   3.224  10.128 -0.2434 -0.3585  0.0002
    7DOPE   C22  798   4.677   3.132  10.053 -0.1032  0.0495  0.1963
    7DOPE   H2R  799   4.613   3.041  10.062 -0.2772  0.0186 -1.1103
    7DOPE   H2S  800   4.765   3.134  10.120  0.5463  2.3618 -0.6321
    7DOPE    C3  801   4.674   3.589  10.136  0.7153 -0.8139 -0.4991
    7DOPE    HX  802   4.776   3.562  10.170  0.3403 -0.8167  0.6920
    7DOPE    HY  803   4.640   3.675  10.198  0.4245 -0.0358 -1.7108
    7DOPE   O31  804   4.683   3.609   9.992  0.6952 -0.1278  0.7981
    7DOPE   C31  805   4.603   3.707   9.947  0.1887  0.4113  0.1728
    7DOPE   O32  806   4.539   3.788  10.016  0.3409  0.2620 -0.2327
    7DOPE   C32  807   4.595   3.714   9.793  0.4225 -0.4928 -0.0838
    7DOPE   H2X  808   4.647   3.806   9.757 -1.0801  0.3681 -0.1409
    7DOPE   H2Y  809   4.629   3.618   9.748  1.5583  0.0483 -0.4321
    7DOPE   C23  810   4.720   3.179   9.909  0.3000  0.6379  0.2448
    7DOPE   H3R  811   4.803   3.110   9.881  0.3552  0.0829  1.6793
    7DOPE   H3S  812   4.776   3.274   9.903  1.6574 -0.2001 -1.2357
    7DOPE   C24  813   4.618   3.147   9.806  0.0556 -0.0037  0.1716
    7DOPE   H4R  814   4.515   3.175   9.834 -1.2908 -1.0013 -3.2075
    7DOPE   H4S  815   4.624   3.036   9.799 -0.4469 -0.1400  1.5895
    7DOPE   C25  816   4.639   3.213   9.667 -0.2649  0.0625 -0.9287
    7DOPE   H5R  817   4.745   3.206   9.635  0.6306  0.5632  1.6555
    7DOPE   H5S  818   4.610   3.317   9.690  1.5932  0.1595  1.5054
    7DOPE   C26  819   4.558   3.146   9.556  0.2579 -0.8291 -0.4234
    7DOPE   H6R  820   4.455   3.185   9.558 -0.0885 -1.7419  0.2832
    7DOPE   H6S  821   4.551   3.036   9.570  1.3432 -0.7020  1.4110
    7DOPE   C27  822   4.626   3.158   9.416 -0.4760  0.6801  0.2033
    7DOPE   H7R  823   4.573   3.110   9.331  1.2310  0.2438 -0.6574
    7DOPE   H7S  824   4.722   3.102   9.423 -0.8537 -0.3857 -2.2387
    7DOPE   C28  825   4.659   3.300   9.377  0.1930 -0.1813 -0.7831
    7DOPE   H8R  826   4.718   3.290   9.283 -0.2195 -1.8961 -0.8942
    7DOPE   H8S  827   4.736   3.344   9.444 -0.1889 -0.4444 -0.1658
    7DOPE   C29  828   4.536   3.390   9.371  0.2464 -1.1754  0.2027
    7DOPE   H9R  829   4.513   3.424   9.473  2.3994 -3.2688  1.5026
    7DOPE  C210  830   4.455   3.422   9.266 -0.1732  0.1323  0.4666
    7DOPE  H10R  831   4.360   3.467   9.297  0.2748  0.3708  1.5423
    7DOPE  C211  832   4.477   3.392   9.114  1.1516 -0.9225  0.9047
    7DOPE  H11R  833   4.536   3.298   9.101 -0.1257 -1.6545  0.2612
    7DOPE  H11S  834   4.536   3.483   9.090  0.0550 -0.3184  0.4235
    7DOPE  C212  835   4.350   3.395   9.020  0.6838 -0.1170 -0.3502
    7DOPE  H12R  836   4.303   3.495   9.030 -0.6736 -0.1854 -4.1995
    7DOPE  H12S  837   4.282   3.317   9.061  1.0002 -0.3620 -0.2825
    7DOPE  C213  838   4.380   3.371   8.869 -0.1077 -0.7439  0.3302
    7DOPE  H13R  839   4.439   3.279   8.854 -2.7155 -2.4557 -0.0331
    7DOPE  H13S  840   4.440   3.459   8.837 -0.2029 -0.5478  0.6816
    7DOPE  C214  841   4.248   3.375   8.779 -0.2570 -0.0344 -0.3818
    7DOPE  H14R  842   4.197   3.468   8.815 -1.8701 -0.0356 -2.4897
    7DOPE  H14S  843   4.188   3.285   8.800  1.1017 -0.5300  1.6991
    7DOPE  C215  844   4.276   3.371   8.626  0.2057 -0.0235  0.3556
    7DOPE  H15R  845   4.336   3.280   8.606 -0.9506 -0.5861 -0.7039
    7DOPE  H15S  846   4.331   3.463   8.597 -3.0755  1.4703 -1.7654
    7DOPE  C216  847   4.136   3.368   8.556  0.1516 -1.0297 -0.0057
    7DOPE  H16R  848   4.078   3.451   8.599  2.2388  0.8102 -0.5471
    7DOPE  H16S  849   4.090   3.267   8.566  0.2285 -0.9651  1.1194
    7DOPE  C217  850   4.150   3.393   8.403  0.9042 -0.5576  0.8476
    7DOPE  H17R  851   4.200   3.306   8.355  1.7776  0.3569  0.0392
    7DOPE  H17S  852   4.212   3.483   8.383 -0.2397  0.2538  0.8663
    7DOPE  C218  853   4.019   3.432   8.341 -0.0758  0.7116 -0.2678
    7DOPE  H18R  854   3.993   3.531   8.384 -0.2223  0.8131 -0.5866
    7DOPE  H18S  855   3.937   3.361   8.365 -1.2181  1.6735 -1.2270
    7DOPE  H18T  856   4.027   3.453   8.233  0.2468 -1.6692 -0.7716
    7DOPE   C33  857   4.449   3.739   9.738 -0.3304 -0.6295 -0.1334
    7DOPE   H3X  858   4.453   3.799   9.644  1.0724  1.1172  0.9520
    7DOPE   H3Y  859   4.379   3.797   9.802 -1.3685 -2.1599  0.1600
    7DOPE   C34  860   4.374   3.608   9.703 -0.1621  0.0276 -0.0091
    7DOPE   H4X  861   4.275   3.634   9.661  0.6495  0.1352 -1.9722
    7DOPE   H4Y  862   4.436   3.547   9.633 -1.2830  1.2654 -2.1596
    7DOPE   C35  863   4.361   3.513   9.828  0.4494  0.1136  0.1474
    7DOPE   H5X  864   4.309   3.557   9.916 -2.5515  0.9300 -1.8673
    7DOPE   H5Y  865   4.461   3.470   9.847  0.2314 -1.1714 -1.3541
    7DOPE   C36  866   4.280   3.385   9.807 -0.3315  0.3038  0.2472
    7DOPE   H6X  867   4.276   3.328   9.903 -0.4681 -1.0448 -0.5367
    7DOPE   H6Y  868   4.336   3.324   9.734 -0.3480  0.4873  0.0796
    7DOPE   C37  869   4.142   3.415   9.757 -0.1417  0.4737 -0.5843
    7DOPE   H7X  870   4.087   3.489   9.820 -2.3564  0.0512 -1.9246
    7DOPE   H7Y  871   4.148   3.457   9.654 -0.7510 -0.9962 -1.2492
    7DOPE   C38  872   4.064   3.281   9.738 -0.2010 -0.3495 -0.0184
    7DOPE   H8X  873   3.960   3.301   9.704 -0.2428 -1.5763 -0.6749
    7DOPE   H8Y  874   4.057   3.227   9.835 -0.5149  2.5667  1.6888
    7DOPE   C39  875   4.121   3.190   9.633 -0.8558 -0.0812 -0.1602
    7DOPE   H9X  876   4.192   3.115   9.670 -0.3758  0.3258 -0.2388
    7DOPE  C310  877   4.111   3.211   9.500 -0.7086  0.2173  0.3149
    7DOPE  H10X  878   4.170   3.146   9.433  1.0772  0.3402  1.6818
    7DOPE  C311  879   4.040   3.324   9.427 -0.0474 -0.2990 -0.0541
    7DOPE  H11X  880   3.967   3.378   9.491  1.1861 -1.3855  2.3975
    7DOPE  H11Y  881   4.116   3.397   9.393  0.4068 -1.1095 -0.8372
    7DOPE  C312  882   3.962   3.265   9.308 -0.0230  0.2671  0.4408
    7DOPE  H12X  883   3.880   3.196   9.339  0.8380 -0.8540  0.3060
    7DOPE  H12Y  884   4.023   3.208   9.235 -3.2550 -2.3047 -0.4959
    7DOPE  C313  885   3.907   3.378   9.220 -0.7730  0.0460  0.4351
    7DOPE  H13X  886   3.985   3.436   9.166 -0.7798 -0.9218 -0.6742
    7DOPE  H13Y  887   3.853   3.320   9.142 -0.6378 -1.2522  1.2811
    7DOPE  C314  888   3.811   3.480   9.287  0.0524 -0.0981  0.7702
    7DOPE  H14X  889   3.852   3.516   9.383  0.0718  1.9854  0.0167
    7DOPE  H14Y  890   3.720   3.420   9.310  0.3911 -0.7910  0.3371
    7DOPE  C315  891   3.782   3.595   9.185  0.6322 -0.3955 -0.0180
    7DOPE  H15X  892   3.740   3.544   9.096  1.8544 -1.3905 -0.0496
    7DOPE  H15Y  893   3.874   3.641   9.143 -0.4407  1.4319 -0.5037
    7DOPE  C316  894   3.687   3.706   9.228  0.3245 -0.4685  0.2441
    7DOPE  H16X  895   3.669   3.780   9.147 -0.2159 -0.2095  0.5960
    7DOPE  H16Y  896   3.733   3.755   9.317  1.0043  0.4002 -0.5776
    7DOPE  C317  897   3.543   3.660   9.267  0.1800 -0.0869 -0.7038
    7DOPE  H17X  898   3.488   3.616   9.180  0.9654 -0.4193 -1.0373
    7DOPE  H17Y  899   3.543   3.581   9.345 -1.1928  1.6175  1.1281
    7DOPE  C318  900   3.464   3.769   9.331  0.2144  0.0734  0.4963
    7DOPE  H18X  901   3.371   3.742   9.385  1.5884  1.6305  3.9321
    7DOPE  H18Y  902   3.533   3.815   9.405  1.6565  0.4131 -1.0155
    7DOPE  H18Z  903   3.435   3.836   9.247 -2.8148 -0.2209  1.1800
    8DOPE     N  904   4.148   5.055  10.156 -0.2094  0.2484  0.9190
    8DOPE   HN1  905   4.047   5.030  10.168  0.2753 -2.3859  0.0056
    8DOPE   HN2  906   4.205   5.038  10.242  0.5328  0.4812  0.4794
    8DOPE   HN3  907   4.143   5.159  10.158 -1.2690  0.2119  2.5477
    8DOPE   C12  908   4.197   4.980  10.034 -1.1196  0.1665  0.3254
    8DOPE  H12A  909   4.106   4.954   9.975 -0.7460 -1.3244  0.3704
    8DOPE  H12B  910   4.246   4.883  10.056  0.0159  0.7623  0.4666
    8DOPE   C11  911   4.301   5.059   9.954 -1.0671  0.0513  0.4430
    8DOPE  H11A  912   4.243   5.146   9.916 -0.0518  0.0309 -1.2753
    8DOPE  H11B  913   4.331   5.006   9.861 -1.1498 -2.3148  1.6911
    8DOPE     P  914   4.561   5.028  10.024 -0.0896  0.1367  0.2988
    8DOPE   O13  915   4.544   4.882   9.996  0.1227 -0.1963  0.0322
    8DOPE   O14  916   4.635   5.076  10.144 -0.3876  0.5135  0.3610
    8DOPE   O11  917   4.630   5.088   9.890  0.0851  0.6759 -0.0177
    8DOPE   O12  918   4.416   5.101  10.032 -0.0409  0.6797  0.2373
    8DOPE    C1  919   4.594   5.217   9.846 -0.4173  0.2617 -0.2808
    8DOPE    HA  920   4.611   5.297   9.922  1.1331  0.1205 -0.4546
    8DOPE    HB  921   4.488   5.223   9.815 -0.0098 -1.5846 -2.1951
    8DOPE    C2  922   4.681   5.261   9.723 -0.2458  0.6279 -0.0969
    8DOPE    HS  923   4.642   5.358   9.685 -1.5866  0.4476  0.7416
    8DOPE   O21  924   4.659   5.165   9.614  0.3144  0.1117  0.2882
    8DOPE   C21  925   4.681   5.201   9.490 -0.6123 -0.0158 -0.5714
    8DOPE   O22  926   4.718   5.311   9.450  0.1382 -0.9072 -0.0021
    8DOPE   C22  927   4.671   5.081   9.403  0.8356  0.7735  0.8601
    8DOPE   H2R  928   4.578   5.032   9.438  1.8000  0.4011  3.0895
    8DOPE   H2S  929   4.757   5.011   9.413  0.4370  0.2126  0.3692
    8DOPE    C3  930   4.829   5.259   9.766 -0.2171 -0.4409 -0.1752
    8DOPE    HX  931   4.855   5.152   9.782  0.3005 -1.0016 -3.8450
    8DOPE    HY  932   4.844   5.315   9.861 -0.1492  3.6357 -2.3689
    8DOPE   O31  933   4.923   5.312   9.677  0.0206 -0.6996  0.3307
    8DOPE   C31  934   4.933   5.439   9.673 -0.1993  0.2677  0.4055
    8DOPE   O32  935   4.881   5.520   9.747 -0.2689 -0.4309 -0.1958
    8DOPE   C32  936   5.028   5.487   9.571 -0.2349  0.4420  0.1868
    8DOPE   H2X  937   5.023   5.598   9.581 -1.2934  0.2875  1.6357
    8DOPE   H2Y  938   5.132   5.459   9.597 -0.2854  0.3324  0.2677
    8DOPE   C23  939   4.646   5.111   9.249 -0.8397  0.5464  0.1712
    8DOPE   H3R  940   4.738   5.145   9.197 -1.6705  0.3919 -1.4706
    8DOPE   H3S  941   4.562   5.185   9.246 -0.7306  0.6908  0.6481
    8DOPE   C24  942   4.605   4.997   9.156 -0.1653  1.1938 -0.1978
    8DOPE   H4R  943   4.521   4.947   9.208  0.0521 -0.3617 -1.2630
    8DOPE   H4S  944   4.690   4.926   9.148 -0.9727  0.2326 -0.4662
    8DOPE   C25  945   4.570   5.037   9.014 -0.1708 -0.1202 -0.5699
    8DOPE   H5R  946   4.531   4.948   8.960 -0.0402 -1.2169  1.0879
    8DOPE   H5S  947   4.661   5.066   8.956 -1.5211  0.4960 -2.4647
    8DOPE   C26  948   4.465   5.146   9.005  0.1210 -0.6864 -0.2260
    8DOPE   H6R  949   4.512   5.246   9.003 -1.2969  0.0036 -1.2286
    8DOPE   H6S  950   4.388   5.144   9.086  1.7759 -1.5192  1.4006
    8DOPE   C27  951   4.382   5.142   8.870  0.0904 -0.1949  0.4801
    8DOPE   H7R  952   4.357   5.037   8.847  0.8601 -0.0145 -1.3467
    8DOPE   H7S  953   4.449   5.180   8.790 -1.7263 -0.4420 -1.2387
    8DOPE   C28  954   4.256   5.220   8.861  0.5044 -0.1552  0.7119
    8DOPE   H8R  955   4.195   5.192   8.949 -2.9454  2.2787 -0.6491
    8DOPE   H8S  956   4.195   5.195   8.772  0.1983  1.0343  0.5741
    8DOPE   C29  957   4.286   5.371   8.843 -0.6530 -0.7951  0.6610
    8DOPE   H9R  958   4.374   5.398   8.783 -2.0822  0.7265 -0.8691
    8DOPE  C210  959   4.220   5.470   8.898 -0.1301  0.4623 -0.0595
    8DOPE  H10R  960   4.250   5.576   8.893 -0.9028  0.6322 -2.6064
    8DOPE  C211  961   4.112   5.456   8.996 -0.3667  0.5455 -1.3162
    8DOPE  H11R  962   4.032   5.386   8.962 -0.7534 -1.2426  2.7058
    8DOPE  H11S  963   4.064   5.556   9.004  1.7649  1.7099 -2.3136
    8DOPE  C212  964   4.166   5.416   9.141  0.2062  0.3258 -0.6290
    8DOPE  H12R  965   4.214   5.318   9.120 -1.0458 -0.3658 -0.3353
    8DOPE  H12S  966   4.078   5.426   9.209  0.1349  0.0292 -0.6752
    8DOPE  C213  967   4.287   5.501   9.194  0.4025  0.0730  0.3218
    8DOPE  H13R  968   4.254   5.600   9.232 -1.0558  0.2546 -1.2989
    8DOPE  H13S  969   4.359   5.522   9.112 -0.3449 -1.7173 -0.8642
    8DOPE  C214  970   4.366   5.432   9.304 -0.6911 -0.3755 -0.5421
    8DOPE  H14R  971   4.445   5.496   9.350 -0.6755 -0.1373 -0.9007
    8DOPE  H14S  972   4.428   5.350   9.262  0.8841  1.1707 -1.3806
    8DOPE  C215  973   4.271   5.389   9.412 -0.3617  0.4865  0.1797
    8DOPE  H15R  974   4.202   5.311   9.373  1.2533  0.2023 -2.4274
    8DOPE  H15S  975   4.220   5.480   9.449  0.5046 -0.0835  2.9897
    8DOPE  C216  976   4.349   5.327   9.533 -0.3322 -0.3084  0.8859
    8DOPE  H16R  977   4.432   5.394   9.565  1.5455 -1.6140 -0.9038
    8DOPE  H16S  978   4.397   5.232   9.500  0.6224  0.8981 -1.4706
    8DOPE  C217  979   4.247   5.299   9.645 -0.1218  0.4333  0.9216
    8DOPE  H17R  980   4.175   5.383   9.644 -1.6904 -0.8407  1.4904
    8DOPE  H17S  981   4.294   5.301   9.745  3.2462  1.0207 -0.5111
    8DOPE  C218  982   4.177   5.161   9.627 -0.5482 -0.3924  0.5111
    8DOPE  H18R  983   4.251   5.083   9.656  0.7620  0.4549 -0.4551
    8DOPE  H18S  984   4.157   5.137   9.521 -2.3986  1.8552  0.2576
    8DOPE  H18T  985   4.084   5.145   9.686 -0.4285 -1.9417  0.3093
    8DOPE   C33  986   4.990   5.466   9.416 -0.3241 -0.0659  0.8738
    8DOPE   H3X  987   4.885   5.499   9.398 -1.2131 -3.0856 -0.1006
    8DOPE   H3Y  988   5.010   5.360   9.387  1.4113  0.4404  0.1079
    8DOPE   C34  989   5.079   5.557   9.328  0.2810  0.3542  0.0657
    8DOPE   H4X  990   5.051   5.659   9.362 -1.7291 -1.0306  3.0757
    8DOPE   H4Y  991   5.186   5.535   9.344 -0.4431 -2.2478  2.0204
    8DOPE   C35  992   5.039   5.551   9.175  0.6886 -0.5814  0.8123
    8DOPE   H5X  993   5.097   5.629   9.122 -0.4270 -1.3688 -1.7394
    8DOPE   H5Y  994   4.935   5.591   9.169  0.4279 -1.0554  2.0071
    8DOPE   C36  995   5.038   5.417   9.112 -0.8635  0.1231  0.3060
    8DOPE   H6X  996   4.961   5.348   9.152 -1.7013  0.3636 -0.8336
    8DOPE   H6Y  997   5.136   5.377   9.147 -0.8197 -0.1190 -0.0777
    8DOPE   C37  998   5.028   5.419   8.958 -0.4436  0.4458 -0.2590
    8DOPE   H7X  999   5.120   5.459   8.912  0.7246 -1.7615  0.0129
    8DOPE   H7Y 1000   5.014   5.317   8.917  1.9500 -0.3050  0.6049
    8DOPE   C38 1001   4.920   5.510   8.899 -0.0119 -0.4830  0.2746
    8DOPE   H8X 1002   4.930   5.533   8.791 -0.4106 -1.5419 -0.0053
    8DOPE   H8Y 1003   4.937   5.609   8.946  1.2349 -0.7196  0.3367
    8DOPE   C39 1004   4.769   5.468   8.917 -0.3809 -0.1074  0.6236
    8DOPE   H9X 1005   4.753   5.373   8.972 -0.4040 -1.5956 -1.8042
    8DOPE  C310 1006   4.658   5.527   8.865  0.3499  0.9273 -0.0783
    8DOPE  H10X 1007   4.558   5.486   8.883  1.1445 -1.3593 -0.5354
    8DOPE  C311 1008   4.659   5.654   8.786 -0.0482  0.5157  0.1661
    8DOPE  H11X 1009   4.629   5.733   8.858 -1.9608 -0.1027  0.0874
    8DOPE  H11Y 1010   4.765   5.678   8.763  1.0662 -3.6287  0.1784
    8DOPE  C312 1011   4.570   5.657   8.656  0.2553 -0.7776 -0.1734
    8DOPE  H12X 1012   4.463   5.627   8.668 -0.1461  0.3450 -0.7882
    8DOPE  H12Y 1013   4.613   5.578   8.590  1.5869  0.0596 -0.3434
    8DOPE  C313 1014   4.575   5.794   8.587 -0.8388 -0.1676  0.1317
    8DOPE  H13X 1015   4.524   5.859   8.661 -0.9479 -1.7664  1.5204
    8DOPE  H13Y 1016   4.676   5.831   8.560 -1.5976  1.1348 -1.1242
    8DOPE  C314 1017   4.493   5.781   8.460  0.1828 -0.3009 -0.2385
    8DOPE  H14X 1018   4.393   5.737   8.480  0.1803  0.1011  0.7033
    8DOPE  H14Y 1019   4.554   5.716   8.395  1.4219 -0.8008  1.3578
    8DOPE  C315 1020   4.479   5.914   8.396 -0.3719  0.2893 -0.1524
    8DOPE  H15X 1021   4.574   5.952   8.353 -0.4021 -0.2367 -0.6969
    8DOPE  H15Y 1022   4.443   5.978   8.479  2.7500 -0.2903  1.8186
    8DOPE  C316 1023   4.376   5.911   8.281  0.3028 -0.3804 -0.0319
    8DOPE  H16X 1024   4.364   6.013   8.238  1.8552 -0.5386 -0.9336
    8DOPE  H16Y 1025   4.278   5.877   8.320 -0.0344  1.9406  1.3159
    8DOPE  C317 1026   4.418   5.820   8.159  0.5561  0.3536 -0.4615
    8DOPE  H17X 1027   4.521   5.842   8.124  0.6825 -2.0498 -1.7838
    8DOPE  H17Y 1028   4.412   5.717   8.201 -0.1356 -0.0057 -1.4074
    8DOPE  C318 1029   4.326   5.822   8.043  0.3366 -0.2644 -0.0737
    8DOPE  H18X 1030   4.344   5.743   7.967 -0.0704 -1.9771  1.5267
    8DOPE  H18Y 1031   4.331   5.919   7.990 -1.5097 -1.3280 -2.4231
    8DOPE  H18Z 1032   4.220   5.822   8.078  0.4489  1.7751  0.3674
    9DOPE     N 1033   0.674   3.272  10.490  0.1003  0.4697 -0.1521
    9DOPE   HN1 1034   0.730   3.185  10.503 -1.4425 -0.4874  0.3814
    9DOPE   HN2 1035   0.580   3.248  10.452  0.6114  0.6869 -1.6489
    9DOPE   HN3 1036   0.733   3.322  10.421 -2.1000  0.2746 -2.3259
    9DOPE   C12 1037   0.666   3.366  10.603  0.3478  0.2289 -0.3477
    9DOPE  H12A 1038   0.773   3.381  10.629  0.3120  0.5756 -0.3967
    9DOPE  H12B 1039   0.628   3.317  10.695  2.9103 -1.3501 -0.0402
    9DOPE   C11 1040   0.589   3.499  10.578 -0.3665 -0.8582 -0.5436
    9DOPE  H11A 1041   0.582   3.548  10.677 -0.1141 -2.6672  0.4148
    9DOPE  H11B 1042   0.488   3.471  10.541 -0.8526 -0.8390  0.7214
    9DOPE     P 1043   0.573   3.694  10.417 -0.1560  0.1117  0.1931
    9DOPE   O13 1044   0.669   3.754  10.326 -0.0772  0.0986  0.0378
    9DOPE   O14 1045   0.520   3.789  10.518  0.8891 -0.2069  0.6064
    9DOPE   O11 1046   0.457   3.631  10.336 -0.2677 -0.1040 -0.1890
    9DOPE   O12 1047   0.656   3.574  10.479  0.7973 -0.2693 -0.1391
    9DOPE    C1 1048   0.472   3.498  10.262 -0.1311 -0.7819 -0.6417
    9DOPE    HA 1049   0.410   3.421  10.312  0.3234 -1.1773 -0.6738
    9DOPE    HB 1050   0.578   3.464  10.255  0.3311  0.4743 -0.1680
    9DOPE    C2 1051   0.413   3.503  10.116  0.1768  0.4415  0.8746
    9DOPE    HS 1052   0.414   3.394  10.093 -1.4242  0.1419  1.9965
    9DOPE   O21 1053   0.486   3.587  10.031 -0.5913 -0.0342 -0.8420
    9DOPE   C21 1054   0.586   3.530   9.959 -0.0326  0.3796  0.6241
    9DOPE   O22 1055   0.607   3.412   9.948  0.1722  0.1882 -0.2765
    9DOPE   C22 1056   0.670   3.633   9.886 -0.1262 -0.4668  0.3054
    9DOPE   H2R 1057   0.754   3.657   9.953 -1.0440 -1.3328  1.8172
    9DOPE   H2S 1058   0.612   3.728   9.888  2.0091  0.9468  4.0944
    9DOPE    C3 1059   0.269   3.559  10.107 -0.3782 -0.9962  0.6155
    9DOPE    HX 1060   0.272   3.669  10.121 -0.1354 -0.8985 -0.1551
    9DOPE    HY 1061   0.221   3.511  10.195  0.7835 -1.3721  1.0673
    9DOPE   O31 1062   0.205   3.531   9.980 -0.4111 -0.6046  0.0942
    9DOPE   C31 1063   0.207   3.621   9.886  0.5235 -0.1678  0.3834
    9DOPE   O32 1064   0.266   3.729   9.887 -0.3615  0.2166 -0.5396
    9DOPE   C32 1065   0.116   3.577   9.776 -1.0351  0.7551  0.0095
    9DOPE   H2X 1066   0.086   3.473   9.802  0.7484  0.4490  1.0602
    9DOPE   H2Y 1067   0.025   3.639   9.768 -1.6791 -0.2517 -0.7415
    9DOPE   C23 1068   0.721   3.574   9.748  0.2374 -0.0414 -0.2620
    9DOPE   H3R 1069   0.639   3.518   9.697 -0.3086  0.5798 -0.0723
    9DOPE   H3S 1070   0.809   3.509   9.767 -1.0311 -2.0926 -1.0497
    9DOPE   C24 1071   0.772   3.692   9.663  0.3967  0.5115 -0.5398
    9DOPE   H4R 1072   0.848   3.746   9.723 -0.0812 -1.3085  1.8524
    9DOPE   H4S 1073   0.673   3.741   9.651  0.6744  0.7265 -2.1229
    9DOPE   C25 1074   0.831   3.646   9.528 -0.2484  0.2941 -0.0245
    9DOPE   H5R 1075   0.769   3.562   9.491 -1.5623  0.5185  1.5642
    9DOPE   H5S 1076   0.935   3.608   9.540 -0.9686 -1.6329  0.4343
    9DOPE   C26 1077   0.825   3.754   9.409 -0.2150 -0.3509 -0.2666
    9DOPE   H6R 1078   0.721   3.791   9.409 -0.6077 -1.1429 -3.3134
    9DOPE   H6S 1079   0.840   3.697   9.314 -0.3555  0.0739 -0.5433
    9DOPE   C27 1080   0.919   3.876   9.420 -0.0736 -0.0378  0.2662
    9DOPE   H7R 1081   1.023   3.836   9.421 -0.4950 -1.4234 -2.1972
    9DOPE   H7S 1082   0.888   3.926   9.514 -2.8062 -1.3742  0.1634
    9DOPE   C28 1083   0.915   3.977   9.301 -0.5541 -0.5038 -0.7452
    9DOPE   H8R 1084   0.999   4.042   9.336 -1.2139 -1.3507  2.8526
    9DOPE   H8S 1085   0.827   4.039   9.328  1.5385  1.1311  3.3508
    9DOPE   C29 1086   0.919   3.925   9.159 -0.2093 -0.4448 -0.9147
    9DOPE   H9R 1087   1.017   3.888   9.124 -0.7874 -0.4363 -2.6084
    9DOPE  C210 1088   0.832   3.968   9.066  0.1591  0.4785 -0.4756
    9DOPE  H10R 1089   0.825   3.923   8.966 -0.2010  0.1497 -0.3065
    9DOPE  C211 1090   0.709   4.046   9.101  0.5389  0.0943 -1.4737
    9DOPE  H11R 1091   0.665   4.025   9.201  1.3874  1.9556 -0.6619
    9DOPE  H11S 1092   0.617   4.008   9.051 -2.3293 -0.8736  3.7447
    9DOPE  C212 1093   0.734   4.193   9.090 -0.0331 -0.2087 -0.7068
    9DOPE  H12R 1094   0.778   4.220   8.992  3.3539  2.7132  1.3614
    9DOPE  H12S 1095   0.818   4.216   9.159  0.6327 -0.4518 -1.4138
    9DOPE  C213 1096   0.620   4.282   9.132  0.9458  0.0570  0.1255
    9DOPE  H13R 1097   0.533   4.215   9.115  1.0860  0.3546 -2.0441
    9DOPE  H13S 1098   0.606   4.365   9.060 -0.3462 -0.6682 -0.4941
    9DOPE  C214 1099   0.643   4.328   9.272 -0.5890  0.6703  0.3230
    9DOPE  H14R 1100   0.730   4.395   9.286  0.7009 -1.1973  1.8897
    9DOPE  H14S 1101   0.669   4.238   9.332 -1.5074 -0.7408 -1.3194
    9DOPE  C215 1102   0.517   4.395   9.335  0.1652  0.6246 -0.2959
    9DOPE  H15R 1103   0.429   4.328   9.329 -0.3873  1.3227 -0.0707
    9DOPE  H15S 1104   0.487   4.477   9.266 -0.4241 -0.3451 -1.2148
    9DOPE  C216 1105   0.529   4.437   9.473  0.0689  0.0806  0.7959
    9DOPE  H16R 1106   0.614   4.506   9.493 -0.3836  0.5419  1.1425
    9DOPE  H16S 1107   0.551   4.349   9.537 -1.7023 -0.1009  1.1931
    9DOPE  C217 1108   0.396   4.493   9.532 -0.1810 -0.5810 -0.8688
    9DOPE  H17R 1109   0.311   4.425   9.510 -2.1269  1.4544  0.0786
    9DOPE  H17S 1110   0.384   4.594   9.488  1.5566  0.5863  1.1533
    9DOPE  C218 1111   0.399   4.514   9.685 -0.8715 -1.0291  0.2540
    9DOPE  H18R 1112   0.483   4.584   9.705 -1.8050  0.2732 -0.2482
    9DOPE  H18S 1113   0.414   4.419   9.741 -1.1661 -2.3901 -1.8811
    9DOPE  H18T 1114   0.301   4.551   9.722 -0.3243  1.0168 -0.2316
    9DOPE   C33 1115   0.181   3.588   9.635  0.0094 -0.1602 -0.1172
    9DOPE   H3X 1116   0.286   3.552   9.638  0.0161 -0.0835  1.1572
    9DOPE   H3Y 1117   0.192   3.693   9.603 -1.8133 -0.4235 -1.8458
    9DOPE   C34 1118   0.103   3.508   9.529  0.1028  0.1169  0.1032
    9DOPE   H4X 1119   0.105   3.399   9.552 -1.6281  0.1387  0.5035
    9DOPE   H4Y 1120  -0.006   3.528   9.535 -0.3759 -1.2051 -2.5070
    9DOPE   C35 1121   0.145   3.533   9.378 -0.2625  0.3610 -0.1847
    9DOPE   H5X 1122   0.247   3.492   9.365 -0.5614 -0.7727  0.8563
    9DOPE   H5Y 1123   0.143   3.644   9.369 -1.3154  0.3806  0.1606
    9DOPE   C36 1124   0.049   3.459   9.281 -0.4184 -0.7523  0.4214
    9DOPE   H6X 1125  -0.045   3.518   9.279 -1.6421 -2.6579 -0.4032
    9DOPE   H6Y 1126   0.022   3.360   9.324  0.1834 -0.2892  1.9546
    9DOPE   C37 1127   0.100   3.424   9.134 -0.3722  0.3214  0.2479
    9DOPE   H7X 1128   0.176   3.343   9.139 -1.4760 -0.7529  0.1468
    9DOPE   H7Y 1129   0.014   3.386   9.075  1.1012  2.4689 -3.6931
    9DOPE   C38 1130   0.168   3.543   9.061 -0.6009 -0.1065 -0.5086
    9DOPE   H8X 1131   0.265   3.560   9.112 -0.6499 -1.5788  0.1416
    9DOPE   H8Y 1132   0.110   3.637   9.069  1.6715  1.2590  1.1804
    9DOPE   C39 1133   0.202   3.496   8.922  0.6473  0.1486 -0.1349
    9DOPE   H9X 1134   0.308   3.472   8.902  0.5299 -0.2499 -0.3044
    9DOPE  C310 1135   0.118   3.489   8.818  0.1849  0.1210 -0.9286
    9DOPE  H10X 1136   0.152   3.452   8.720 -2.6381  0.2374 -2.0397
    9DOPE  C311 1137  -0.031   3.533   8.811 -0.0331  0.4371  0.0215
    9DOPE  H11X 1138  -0.095   3.444   8.826 -0.6293  0.8799  0.0975
    9DOPE  H11Y 1139  -0.054   3.610   8.888  1.3157  0.3862  0.5034
    9DOPE  C312 1140  -0.070   3.577   8.667  0.6361  0.6136 -0.2348
    9DOPE  H12X 1141  -0.178   3.603   8.672  1.0182  2.0781  2.7317
    9DOPE  H12Y 1142  -0.057   3.482   8.611  1.1965 -1.9953  3.8718
    9DOPE  C313 1143   0.009   3.697   8.619 -0.5411 -0.1144  0.2293
    9DOPE  H13X 1144  -0.030   3.783   8.678  0.5237 -0.3072  1.2417
    9DOPE  H13Y 1145   0.119   3.691   8.630 -0.5792 -0.6080  0.3457
    9DOPE  C314 1146  -0.018   3.706   8.466  0.2412 -0.5024  0.5960
    9DOPE  H14X 1147  -0.121   3.670   8.444  0.6379 -1.3904  0.1502
    9DOPE  H14Y 1148   0.056   3.649   8.406  0.8905  0.3327  0.5842
    9DOPE  C315 1149   0.000   3.848   8.417 -0.2512 -0.4113 -0.3804
    9DOPE  H15X 1150   0.093   3.890   8.462 -2.0965  0.7585  2.6140
    9DOPE  H15Y 1151  -0.077   3.917   8.457  1.1923  2.4487 -2.1982
    9DOPE  C316 1152  -0.009   3.879   8.270 -0.4788 -0.8145 -0.5205
    9DOPE  H16X 1153  -0.094   3.818   8.234 -0.1400 -1.7771  0.2450
    9DOPE  H16Y 1154   0.089   3.855   8.222  0.9941  3.3151 -0.0106
    9DOPE  C317 1155  -0.021   4.032   8.240 -0.9362 -0.2755 -0.1888
    9DOPE  H17X 1156  -0.067   4.037   8.139  0.6653  0.3369 -0.9229
    9DOPE  H17Y 1157  -0.081   4.093   8.310 -0.5034 -0.8208  0.6707
    9DOPE  C318 1158   0.118   4.099   8.223 -0.1324  0.5274 -0.5521
    9DOPE  H18X 1159   0.094   4.205   8.199 -1.2456  0.9876  2.2276
    9DOPE  H18Y 1160   0.160   4.110   8.325 -0.9902  1.0652 -0.2414
    9DOPE  H18Z 1161   0.196   4.063   8.152  1.6057 -0.2306  1.6369
   10DOPE     N 1162   6.136   5.016   9.931 -0.3058  0.4453  0.0077
   10DOPE   HN1 1163   6.191   4.928   9.922 -2.6489 -1.2413  1.1077
   10DOPE   HN2 1164   6.204   5.056   9.998  1.1239 -0.9427 -0.5370
   10DOPE   HN3 1165   6.046   5.003   9.982 -1.3057  0.9334 -1.5431
   10DOPE   C12 1166   6.128   5.104   9.806 -0.2685  0.1953  0.6452
   10DOPE  H12A 1167   6.052   5.183   9.825  1.0749  2.1205 -1.4736
   10DOPE  H12B 1168   6.096   5.041   9.721 -1.1506 -1.3692  2.0871
   10DOPE   C11 1169   6.261   5.187   9.784  0.0427 -0.5968  0.2821
   10DOPE  H11A 1170   6.238   5.253   9.697  0.9477 -1.8992 -0.9866
   10DOPE  H11B 1171   6.348   5.128   9.750 -0.7425 -1.0266 -1.0746
   10DOPE     P 1172   6.401   5.240   9.995 -0.0172  0.1286  0.0546
   10DOPE   O13 1173   6.373   5.108  10.047  0.4634 -0.0057  0.0115
   10DOPE   O14 1174   6.411   5.356  10.089 -0.3589 -0.2057  0.0786
   10DOPE   O11 1175   6.521   5.218   9.896 -0.2705 -0.2053 -1.0490
   10DOPE   O12 1176   6.282   5.272   9.896 -0.0381  0.3773 -0.7036
   10DOPE    C1 1177   6.650   5.180   9.942 -0.0219 -0.2528  0.5521
   10DOPE    HA 1178   6.646   5.162  10.052  0.8886 -0.4988  0.5465
   10DOPE    HB 1179   6.708   5.274   9.930  1.7315 -1.4708 -0.9302
   10DOPE    C2 1180   6.705   5.051   9.877  0.1748 -0.1603 -0.6469
   10DOPE    HS 1181   6.805   5.023   9.918  0.6719  2.3255  0.0301
   10DOPE   O21 1182   6.722   5.073   9.736  0.1615 -0.0606 -0.5321
   10DOPE   C21 1183   6.816   5.155   9.698  0.1556 -0.0587 -0.3310
   10DOPE   O22 1184   6.895   5.210   9.777 -0.1162  0.5740 -0.2391
   10DOPE   C22 1185   6.825   5.180   9.550 -0.3839  0.4381 -0.7999
   10DOPE   H2R 1186   6.722   5.182   9.510 -1.2402  0.4226  1.2756
   10DOPE   H2S 1187   6.865   5.090   9.499 -1.3359  1.0595 -2.7170
   10DOPE    C3 1188   6.613   4.931   9.908 -0.0977  0.7836 -0.5394
   10DOPE    HX 1189   6.513   4.945   9.860 -0.3383 -0.1856 -0.3348
   10DOPE    HY 1190   6.608   4.919  10.018 -0.0051  0.7296 -0.5417
   10DOPE   O31 1191   6.683   4.806   9.862 -0.1165 -0.1306  0.4578
   10DOPE   C31 1192   6.614   4.703   9.839 -0.9250  0.5093 -0.5481
   10DOPE   O32 1193   6.497   4.678   9.866  0.6123 -0.4432  0.0401
   10DOPE   C32 1194   6.707   4.612   9.762 -0.2546  0.1076 -0.0137
   10DOPE   H2X 1195   6.716   4.646   9.656 -0.2423  0.0166 -0.0417
   10DOPE   H2Y 1196   6.805   4.608   9.813  0.0308  0.1281 -0.5574
   10DOPE   C23 1197   6.899   5.304   9.514 -0.1854  0.0987  0.5397
   10DOPE   H3R 1198   7.004   5.288   9.549  0.3553  0.9986 -0.6199
   10DOPE   H3S 1199   6.852   5.389   9.567 -3.0319 -0.2795 -1.2111
   10DOPE   C24 1200   6.907   5.330   9.367 -0.0471 -0.4835  0.1175
   10DOPE   H4R 1201   6.806   5.357   9.328  0.3781  0.8889 -0.0780
   10DOPE   H4S 1202   6.937   5.243   9.304  1.0983 -0.1167  0.1365
   10DOPE   C25 1203   7.006   5.444   9.339 -0.0699  0.2184 -0.1754
   10DOPE   H5R 1204   7.110   5.408   9.358 -0.5267 -2.0400 -1.5456
   10DOPE   H5S 1205   6.977   5.532   9.400  0.6008 -1.4667  2.7349
   10DOPE   C26 1206   7.009   5.477   9.192  0.7526  0.4428  0.1504
   10DOPE   H6R 1207   7.038   5.387   9.133  0.2719  0.3207  0.1016
   10DOPE   H6S 1208   7.087   5.552   9.169  1.4896  0.4669  2.4827
   10DOPE   C27 1209   6.881   5.516   9.118  0.4254 -0.5631  0.0325
   10DOPE   H7R 1210   6.848   5.613   9.160 -1.3919 -2.0939  2.4418
   10DOPE   H7S 1211   6.796   5.447   9.139 -1.4129  1.8781  1.0605
   10DOPE   C28 1212   6.907   5.535   8.966 -0.4709  0.9862  0.4253
   10DOPE   H8R 1213   7.012   5.566   8.948 -0.4595  1.7735  1.7329
   10DOPE   H8S 1214   6.835   5.614   8.936 -1.4186 -0.7690 -2.3954
   10DOPE   C29 1215   6.872   5.415   8.884  0.5125  0.5726  0.0941
   10DOPE   H9R 1216   6.958   5.347   8.871 -0.4983 -0.6000 -0.7840
   10DOPE  C210 1217   6.756   5.379   8.823  0.2441 -0.5712 -0.5394
   10DOPE  H10R 1218   6.767   5.292   8.757  3.1602  0.1090 -1.1129
   10DOPE  C211 1219   6.628   5.459   8.836  0.3486 -0.0696 -0.2276
   10DOPE  H11R 1220   6.631   5.529   8.922 -0.8260 -1.9642  1.4558
   10DOPE  H11S 1221   6.547   5.386   8.856  0.5457 -0.3073 -0.2889
   10DOPE  C212 1222   6.586   5.541   8.708 -0.1332 -0.8921 -0.0166
   10DOPE  H12R 1223   6.484   5.575   8.733 -0.9876 -3.0533 -0.3838
   10DOPE  H12S 1224   6.588   5.478   8.617  1.1826 -0.6320 -0.1945
   10DOPE  C213 1225   6.663   5.677   8.693  0.0271 -0.0558 -0.4849
   10DOPE  H13R 1226   6.766   5.658   8.654  0.3596 -0.7738  0.6926
   10DOPE  H13S 1227   6.689   5.703   8.798  0.8488 -1.3280 -0.3518
   10DOPE  C214 1228   6.581   5.793   8.612  0.0513  0.4556 -0.2416
   10DOPE  H14R 1229   6.583   5.886   8.673  0.8794  0.0112  0.4201
   10DOPE  H14S 1230   6.473   5.769   8.604  0.6036 -2.0740 -0.9115
   10DOPE  C215 1231   6.655   5.816   8.474 -0.3873  0.5096 -0.5136
   10DOPE  H15R 1232   6.634   5.731   8.406  0.1038  0.9783 -1.2522
   10DOPE  H15S 1233   6.764   5.811   8.494 -0.3167 -1.0086 -1.1697
   10DOPE  C216 1234   6.616   5.940   8.396 -1.0218 -0.0108  0.5039
   10DOPE  H16R 1235   6.637   6.029   8.460  0.4325  0.0859 -0.0475
   10DOPE  H16S 1236   6.506   5.953   8.389 -0.7419  3.1505  0.5274
   10DOPE  C217 1237   6.698   5.973   8.267  0.8764 -0.4148  0.1477
   10DOPE  H17R 1238   6.800   5.999   8.304  0.8293  1.1060 -0.7037
   10DOPE  H17S 1239   6.649   6.065   8.230  0.9045 -1.3328 -2.3391
   10DOPE  C218 1240   6.712   5.863   8.161  0.2503 -0.6388  0.9100
   10DOPE  H18R 1241   6.611   5.853   8.114  0.7032  0.8770 -0.4829
   10DOPE  H18S 1242   6.740   5.758   8.187 -0.2577 -0.2916  3.0657
   10DOPE  H18T 1243   6.784   5.890   8.081 -1.6477 -0.8051 -0.9567
   10DOPE   C33 1244   6.654   4.466   9.768 -0.7497 -0.0435 -0.5734
   10DOPE   H3X 1245   6.562   4.460   9.707 -1.9087  1.1139  0.9530
   10DOPE   H3Y 1246   6.638   4.431   9.872  1.7192  1.1949  0.3316
   10DOPE   C34 1247   6.754   4.364   9.717 -0.0091  0.2994  0.0853
   10DOPE   H4X 1248   6.814   4.405   9.632 -0.9583  0.8047 -0.3537
   10DOPE   H4Y 1249   6.828   4.329   9.792  0.8336 -0.4008 -1.0267
   10DOPE   C35 1250   6.676   4.242   9.670  0.4170  0.7908  0.4024
   10DOPE   H5X 1251   6.586   4.274   9.613  0.7412  1.6195  0.3411
   10DOPE   H5Y 1252   6.633   4.196   9.762 -2.4204  2.0347 -0.1871
   10DOPE   C36 1253   6.757   4.146   9.584  0.1741  0.0654  0.0040
   10DOPE   H6X 1254   6.853   4.118   9.633  1.4719  0.2129 -2.2957
   10DOPE   H6Y 1255   6.786   4.210   9.498 -0.0410  0.6736  0.3811
   10DOPE   C37 1256   6.678   4.026   9.527 -0.0984 -0.2560 -0.4064
   10DOPE   H7X 1257   6.694   3.950   9.607  0.4738  0.1069 -0.1749
   10DOPE   H7Y 1258   6.570   4.053   9.525  0.4034  1.8963 -0.1757
   10DOPE   C38 1259   6.730   3.980   9.396 -0.8560  0.3153 -0.3258
   10DOPE   H8X 1260   6.675   3.886   9.378 -1.4681  0.7746 -0.9273
   10DOPE   H8Y 1261   6.837   3.953   9.397 -1.5701 -2.8504 -0.8125
   10DOPE   C39 1262   6.711   4.074   9.276 -0.2839  0.7004 -0.7369
   10DOPE   H9X 1263   6.616   4.130   9.268 -2.7119 -3.0378 -0.7122
   10DOPE  C310 1264   6.800   4.103   9.181  0.0625 -0.2460 -0.3191
   10DOPE  H10X 1265   6.774   4.178   9.105  1.5393 -1.0430 -1.6660
   10DOPE  C311 1266   6.937   4.040   9.168 -0.5634 -0.1993 -0.1839
   10DOPE  H11X 1267   7.015   4.111   9.203  1.0276 -0.8296 -2.2324
   10DOPE  H11Y 1268   6.940   3.946   9.227  0.3679  0.0764  0.2284
   10DOPE  C312 1269   6.969   3.992   9.026 -0.1570  0.3197  0.0074
   10DOPE  H12X 1270   7.058   3.926   9.022 -1.1463 -1.0148 -1.9562
   10DOPE  H12Y 1271   6.988   4.075   8.954 -0.5197 -0.8184 -1.4612
   10DOPE  C313 1272   6.856   3.915   8.957  0.2921 -0.3449 -0.4241
   10DOPE  H13X 1273   6.823   3.838   9.030 -2.6365  2.2289  1.2139
   10DOPE  H13Y 1274   6.764   3.977   8.947  1.4185  1.4994  0.3088
   10DOPE  C314 1275   6.895   3.856   8.820  0.2874  0.1108 -0.7901
   10DOPE  H14X 1276   6.976   3.782   8.838  1.7677  1.9701  0.7215
   10DOPE  H14Y 1277   6.935   3.929   8.746  0.0587 -0.6006 -1.6301
   10DOPE  C315 1278   6.784   3.777   8.744 -0.6899  0.3023  0.6337
   10DOPE  H15X 1279   6.699   3.848   8.731  0.0627  0.9796 -0.8754
   10DOPE  H15Y 1280   6.756   3.687   8.803  0.4439 -0.7848 -0.4421
   10DOPE  C316 1281   6.842   3.729   8.605  0.2502 -0.3939 -0.3476
   10DOPE  H16X 1282   6.934   3.670   8.627 -0.3555 -0.4788  2.2193
   10DOPE  H16Y 1283   6.874   3.824   8.556 -0.7829  1.1336  1.7787
   10DOPE  C317 1284   6.750   3.648   8.519 -0.3429  0.0395  0.9512
   10DOPE  H17X 1285   6.738   3.548   8.568  2.8143 -0.3708  1.0706
   10DOPE  H17Y 1286   6.647   3.690   8.527 -1.0294 -1.5715  1.0583
   10DOPE  C318 1287   6.797   3.630   8.376  0.4839  0.3861  0.2343
   10DOPE  H18X 1288   6.841   3.726   8.341  0.6509 -0.0295 -0.7105
   10DOPE  H18Y 1289   6.874   3.554   8.354  1.2914  1.2473 -0.0054
   10DOPE  H18Z 1290   6.711   3.614   8.308 -0.8402  2.3489  1.3482
   11DOPE     N 1291   7.587   2.030  10.390 -0.0545  0.2563 -0.4878
   11DOPE   HN1 1292   7.492   2.010  10.427  0.7313 -1.7617  0.5840
   11DOPE   HN2 1293   7.596   1.981  10.299  1.4970  1.8905 -1.2865
   11DOPE   HN3 1294   7.655   1.984  10.453  0.3346 -1.5520 -2.1274
   11DOPE   C12 1295   7.619   2.177  10.378  0.0648 -0.5567 -0.0062
   11DOPE  H12A 1296   7.728   2.193  10.364  0.3394 -2.4404 -0.2954
   11DOPE  H12B 1297   7.592   2.229  10.472  2.7225  0.2625  0.3974
   11DOPE   C11 1298   7.533   2.245  10.265 -0.2063 -0.9516  0.1172
   11DOPE  H11A 1299   7.548   2.196  10.166 -0.7333  0.7536 -0.8431
   11DOPE  H11B 1300   7.571   2.347  10.243 -3.4266  0.5569  1.0146
   11DOPE     P 1301   7.289   2.351  10.284  0.0054 -0.5291 -0.0034
   11DOPE   O13 1302   7.341   2.472  10.349  0.1072 -0.3733 -0.1310
   11DOPE   O14 1303   7.161   2.299  10.328 -0.0913  0.7291  0.0064
   11DOPE   O11 1304   7.286   2.363  10.133 -0.3176  0.1782  0.5682
   11DOPE   O12 1305   7.395   2.240  10.303  0.2997 -0.4047  0.1445
   11DOPE    C1 1306   7.189   2.307  10.041 -0.2592 -0.1560 -0.0970
   11DOPE    HA 1307   7.102   2.282  10.107  1.0705 -0.1529  1.7396
   11DOPE    HB 1308   7.223   2.217   9.986  0.1194 -0.2393  0.2746
   11DOPE    C2 1309   7.150   2.414   9.942  0.4879 -0.7881  0.3462
   11DOPE    HS 1310   7.046   2.397   9.905  0.6807  1.6385 -1.5060
   11DOPE   O21 1311   7.249   2.422   9.837  0.8402 -0.0027  0.5919
   11DOPE   C21 1312   7.202   2.445   9.714 -0.5211 -0.0516  0.8616
   11DOPE   O22 1313   7.090   2.477   9.682 -0.1690  0.1942  0.4584
   11DOPE   C22 1314   7.312   2.416   9.612 -0.0481  0.3370 -0.4330
   11DOPE   H2R 1315   7.367   2.321   9.632 -0.5444  0.0342 -0.4736
   11DOPE   H2S 1316   7.388   2.493   9.635 -0.6505  0.5494  0.9283
   11DOPE    C3 1317   7.136   2.559  10.017  0.0872 -0.5528 -0.4753
   11DOPE    HX 1318   7.235   2.608  10.027 -0.7858  1.3511 -0.7210
   11DOPE    HY 1319   7.091   2.542  10.117  0.2975 -0.6823 -0.4014
   11DOPE   O31 1320   7.058   2.650   9.929 -0.4019  0.4170 -0.2614
   11DOPE   C31 1321   6.931   2.633   9.938  0.0989  0.6521 -0.4262
   11DOPE   O32 1322   6.872   2.556  10.018 -0.3497  0.3518  0.6924
   11DOPE   C32 1323   6.865   2.711   9.820 -0.4823 -0.1179 -0.5286
   11DOPE   H2X 1324   6.800   2.790   9.861  1.0259  0.5034  0.7870
   11DOPE   H2Y 1325   6.944   2.762   9.760 -2.1474  0.7850 -2.0426
   11DOPE   C23 1326   7.274   2.429   9.459  0.0330 -0.2574  0.4232
   11DOPE   H3R 1327   7.229   2.528   9.436  1.0673 -0.2011 -1.5712
   11DOPE   H3S 1328   7.187   2.365   9.432  0.1250  0.2652 -1.2742
   11DOPE   C24 1329   7.396   2.415   9.367  0.3863  0.5884  0.4888
   11DOPE   H4R 1330   7.426   2.309   9.354  0.3413  0.5586  0.6338
   11DOPE   H4S 1331   7.484   2.465   9.412  1.4524  1.2203 -2.0639
   11DOPE   C25 1332   7.372   2.476   9.230 -0.1735  0.4470 -0.1697
   11DOPE   H5R 1333   7.464   2.462   9.168  0.4326 -0.6962  0.9462
   11DOPE   H5S 1334   7.346   2.583   9.239 -3.0453 -0.3234  1.8530
   11DOPE   C26 1335   7.257   2.406   9.154  0.1147 -0.3099  0.0118
   11DOPE   H6R 1336   7.161   2.423   9.206  1.2943 -0.7219  2.4882
   11DOPE   H6S 1337   7.259   2.295   9.153 -1.8211 -0.3824  0.9881
   11DOPE   C27 1338   7.249   2.452   9.002 -0.1794 -0.3699 -0.3813
   11DOPE   H7R 1339   7.345   2.427   8.953  0.7204  1.1240  0.5468
   11DOPE   H7S 1340   7.252   2.563   9.010  1.4207 -0.3982 -0.2588
   11DOPE   C28 1341   7.129   2.418   8.919  0.3111 -0.0514 -0.4719
   11DOPE   H8R 1342   7.040   2.471   8.962  0.9149 -0.3041  1.1662
   11DOPE   H8S 1343   7.114   2.310   8.940  0.0216  0.2762  1.1351
   11DOPE   C29 1344   7.148   2.435   8.770 -0.5788  0.8875  0.7669
   11DOPE   H9R 1345   7.219   2.512   8.738  1.0431 -0.8050  0.0925
   11DOPE  C210 1346   7.124   2.345   8.672  0.2950  0.3607 -0.0176
   11DOPE  H10R 1347   7.154   2.373   8.570 -0.2923 -1.0136 -0.5944
   11DOPE  C211 1348   7.056   2.211   8.697 -0.1621  0.1089 -0.4193
   11DOPE  H11R 1349   6.947   2.210   8.721 -0.4370 -3.9675 -1.1605
   11DOPE  H11S 1350   7.103   2.160   8.784  2.2360  1.0307 -1.0948
   11DOPE  C212 1351   7.088   2.109   8.584 -0.3061 -0.1597 -0.2088
   11DOPE  H12R 1352   7.196   2.103   8.560 -0.1603 -0.3255  0.4773
   11DOPE  H12S 1353   7.031   2.141   8.494 -0.6582 -1.0647 -0.3220
   11DOPE  C213 1354   7.050   1.966   8.605 -0.2964  0.6939  0.5175
   11DOPE  H13R 1355   6.942   1.952   8.585  0.2923  0.2183 -2.9555
   11DOPE  H13S 1356   7.077   1.943   8.710  0.7700  0.3892  0.1881
   11DOPE  C214 1357   7.125   1.868   8.504  0.0175 -0.4209 -0.0975
   11DOPE  H14R 1358   7.234   1.877   8.525  0.5846 -0.4719 -2.6738
   11DOPE  H14S 1359   7.104   1.899   8.400 -0.5730 -1.4580 -0.2974
   11DOPE  C215 1360   7.099   1.718   8.536 -0.2525 -0.2095  0.0321
   11DOPE  H15R 1361   6.990   1.702   8.546 -0.1725 -0.3926  0.6444
   11DOPE  H15S 1362   7.154   1.697   8.630  1.2684  2.5197 -0.1434
   11DOPE  C216 1363   7.153   1.624   8.424 -0.7191  0.2817 -0.2167
   11DOPE  H16R 1364   7.262   1.643   8.414 -0.8199  0.6839 -0.5854
   11DOPE  H16S 1365   7.122   1.664   8.325  2.1065 -1.8216 -2.1034
   11DOPE  C217 1366   7.122   1.478   8.460 -0.2144 -0.0475 -0.6002
   11DOPE  H17R 1367   7.012   1.475   8.474 -0.1309  1.4487  0.6781
   11DOPE  H17S 1368   7.171   1.450   8.556  0.3059  1.6181 -0.3421
   11DOPE  C218 1369   7.161   1.364   8.363 -0.3736 -0.4612 -0.1548
   11DOPE  H18R 1370   7.254   1.392   8.309 -0.6875 -0.0305 -0.4885
   11DOPE  H18S 1371   7.087   1.358   8.281 -1.0017 -0.1772  0.3765
   11DOPE  H18T 1372   7.176   1.263   8.407 -2.2402 -0.6716  0.0935
   11DOPE   C33 1373   6.781   2.622   9.723  0.4717 -0.5103  0.4753
   11DOPE   H3X 1374   6.695   2.584   9.782  0.0651 -0.9872 -0.3973
   11DOPE   H3Y 1375   6.846   2.535   9.701  1.0450 -0.5739  2.2530
   11DOPE   C34 1376   6.738   2.677   9.589  0.2115  0.7189  0.4525
   11DOPE   H4X 1377   6.686   2.773   9.608  0.1133  0.2140  2.9860
   11DOPE   H4Y 1378   6.830   2.681   9.525  1.1690 -0.3749  1.7030
   11DOPE   C35 1379   6.635   2.601   9.510 -0.4516  0.3869 -0.6245
   11DOPE   H5X 1380   6.541   2.607   9.569 -1.0811  1.4774 -1.6953
   11DOPE   H5Y 1381   6.655   2.491   9.508 -2.8587 -0.1235  0.0892
   11DOPE   C36 1382   6.618   2.640   9.366  0.3894  0.2396  0.2128
   11DOPE   H6X 1383   6.716   2.653   9.317 -0.0104  0.2696 -0.5835
   11DOPE   H6Y 1384   6.578   2.744   9.376  0.2869  0.0696  2.0969
   11DOPE   C37 1385   6.529   2.561   9.265  0.5015  0.1832 -0.2645
   11DOPE   H7X 1386   6.579   2.463   9.250 -3.2193 -2.2068  1.3642
   11DOPE   H7Y 1387   6.428   2.543   9.308  0.3628 -0.4958 -0.8647
   11DOPE   C38 1388   6.508   2.627   9.127  0.7352  0.0551 -1.0193
   11DOPE   H8X 1389   6.602   2.629   9.068  1.6668  0.1319  0.4085
   11DOPE   H8Y 1390   6.472   2.730   9.149 -1.6653 -0.8498 -0.3842
   11DOPE   C39 1391   6.401   2.553   9.054 -0.0513  0.0503 -0.0724
   11DOPE   H9X 1392   6.300   2.552   9.099 -1.2410 -2.2321 -2.4874
   11DOPE  C310 1393   6.416   2.473   8.943 -0.0298 -0.4721  0.3777
   11DOPE  H10X 1394   6.327   2.427   8.897 -0.1002  0.1446 -0.1132
   11DOPE  C311 1395   6.546   2.437   8.869 -0.2200 -0.6063  0.0239
   11DOPE  H11X 1396   6.634   2.487   8.915  0.3415  0.3085 -1.9308
   11DOPE  H11Y 1397   6.568   2.328   8.876 -0.3767 -0.5566  1.8342
   11DOPE  C312 1398   6.548   2.484   8.722  0.0482 -0.4989  0.4272
   11DOPE  H12X 1399   6.639   2.449   8.669 -1.3922 -2.6912 -0.7427
   11DOPE  H12Y 1400   6.548   2.594   8.706  1.9453 -0.7222 -1.5185
   11DOPE  C313 1401   6.446   2.429   8.627 -1.0560  0.0629 -0.2618
   11DOPE  H13X 1402   6.345   2.446   8.669 -0.7162 -0.1230  0.6585
   11DOPE  H13Y 1403   6.450   2.488   8.533 -0.7380 -1.5444 -1.2998
   11DOPE  C314 1404   6.473   2.278   8.595  0.5727 -0.6211  0.0200
   11DOPE  H14X 1405   6.497   2.222   8.687  0.0174  0.0696  0.5991
   11DOPE  H14Y 1406   6.565   2.258   8.536  0.6782 -0.9728  0.3062
   11DOPE  C315 1407   6.356   2.217   8.519 -0.0536  0.6925 -0.7595
   11DOPE  H15X 1408   6.340   2.264   8.420  0.5163  0.5405 -0.9298
   11DOPE  H15Y 1409   6.268   2.233   8.586  1.2226 -0.9885  1.4548
   11DOPE  C316 1410   6.376   2.065   8.502 -0.0814  0.2107 -0.8215
   11DOPE  H16X 1411   6.457   2.049   8.428  0.8851  0.7952  0.0802
   11DOPE  H16Y 1412   6.279   2.028   8.462  0.3900 -0.8871 -0.9791
   11DOPE  C317 1413   6.415   1.973   8.620 -0.1277  0.3395 -0.3021
   11DOPE  H17X 1414   6.401   1.871   8.579 -3.7702  0.1983  0.9154
   11DOPE  H17Y 1415   6.524   1.977   8.645  0.1457  2.0085 -1.5599
   11DOPE  C318 1416   6.327   1.974   8.750  0.2166 -0.2897 -0.5027
   11DOPE  H18X 1417   6.330   2.082   8.775  1.5706 -0.9080  2.3486
   11DOPE  H18Y 1418   6.227   1.927   8.735 -2.2471  3.4440  2.2205
   11DOPE  H18Z 1419   6.383   1.929   8.834  1.9421  0.3382 -1.2764
   12DOPE     N 1420   1.569   5.092  10.436 -0.3567  0.3220  0.1578
   12DOPE   HN1 1421   1.577   5.103  10.333 -0.1667  1.0856  0.2533
   12DOPE   HN2 1422   1.650   5.132  10.487 -0.1265 -1.3219  1.1724
   12DOPE   HN3 1423   1.573   4.989  10.452  0.8999  0.5192  1.3437
   12DOPE   C12 1424   1.438   5.138  10.496  0.2554  0.2290  0.1656
   12DOPE  H12A 1425   1.442   5.249  10.497  0.8278  0.2129 -0.1654
   12DOPE  H12B 1426   1.446   5.089  10.595  1.0445  0.9047  0.4352
   12DOPE   C11 1427   1.316   5.090  10.423  0.7330 -0.3125 -0.0941
   12DOPE  H11A 1428   1.316   5.133  10.321 -0.2904  1.1222  0.4737
   12DOPE  H11B 1429   1.224   5.140  10.461  0.1148 -0.7013 -1.0294
   12DOPE     P 1430   1.202   4.867  10.337  0.3163 -0.1955 -0.0044
   12DOPE   O13 1431   1.074   4.947  10.322 -0.1513  0.1759 -0.6491
   12DOPE   O14 1432   1.205   4.727  10.389  0.1253 -0.0622  0.3564
   12DOPE   O11 1433   1.276   4.861  10.198  0.0793  0.2756  0.0998
   12DOPE   O12 1434   1.305   4.948  10.431 -0.0690  0.0893 -0.2197
   12DOPE    C1 1435   1.420   4.831  10.188  1.1266  0.1718 -0.4220
   12DOPE    HA 1436   1.449   4.760  10.267 -2.9238 -0.0447  1.0933
   12DOPE    HB 1437   1.477   4.926  10.202  1.4873 -0.0018 -0.6990
   12DOPE    C2 1438   1.449   4.777  10.040  0.2146 -0.0323  0.7109
   12DOPE    HS 1439   1.559   4.792  10.030  0.3552 -0.3119  1.7362
   12DOPE   O21 1440   1.359   4.844   9.943 -0.1351  0.2712  0.1022
   12DOPE   C21 1441   1.380   4.971   9.919  0.3464  0.6485 -0.1561
   12DOPE   O22 1442   1.453   5.047   9.981  0.1441  0.2763  0.3995
   12DOPE   C22 1443   1.289   5.021   9.799  0.5469 -0.3403 -0.5465
   12DOPE   H2R 1444   1.212   5.087   9.842  0.0028 -0.0319 -1.9345
   12DOPE   H2S 1445   1.237   4.929   9.763 -0.9700 -0.1696  1.0840
   12DOPE    C3 1446   1.424   4.622  10.019  0.0024  0.1819 -0.0128
   12DOPE    HX 1447   1.315   4.610  10.037  0.2094  0.4807  1.6302
   12DOPE    HY 1448   1.467   4.555  10.097 -1.8586  1.5827  2.3779
   12DOPE   O31 1449   1.453   4.585   9.880 -0.0069 -1.0304  0.0599
   12DOPE   C31 1450   1.349   4.545   9.803 -0.1967 -0.2351  0.7812
   12DOPE   O32 1451   1.248   4.490   9.850  0.1150 -0.2640 -0.7028
   12DOPE   C32 1452   1.381   4.567   9.652  0.1563 -0.3709 -0.0811
   12DOPE   H2X 1453   1.492   4.563   9.646  0.2258  0.1116  0.8791
   12DOPE   H2Y 1454   1.333   4.474   9.613 -0.1249  0.0919 -0.8766
   12DOPE   C23 1455   1.354   5.089   9.684  0.2389 -0.1408  0.2592
   12DOPE   H3R 1456   1.455   5.047   9.663  1.2590  0.4464  3.4688
   12DOPE   H3S 1457   1.381   5.195   9.701 -1.3054  0.4788 -0.9415
   12DOPE   C24 1458   1.271   5.068   9.554  0.4503  0.3353  0.2259
   12DOPE   H4R 1459   1.174   5.121   9.566 -0.4651 -0.9595 -1.0365
   12DOPE   H4S 1460   1.232   4.964   9.556 -1.9917  1.1818  0.8206
   12DOPE   C25 1461   1.347   5.107   9.422  0.7440  0.2685 -1.0520
   12DOPE   H5R 1462   1.414   5.027   9.384 -0.4047 -0.2132 -2.1430
   12DOPE   H5S 1463   1.420   5.189   9.438 -0.2439  0.9063  0.3657
   12DOPE   C26 1464   1.245   5.139   9.306 -0.6755 -0.0924 -0.4231
   12DOPE   H6R 1465   1.190   5.232   9.332 -0.2081 -0.0702  0.5086
   12DOPE   H6S 1466   1.175   5.053   9.295  1.3107 -1.7201 -1.0531
   12DOPE   C27 1467   1.316   5.158   9.169  0.6121 -0.0526 -0.3610
   12DOPE   H7R 1468   1.269   5.105   9.083 -1.5046  1.7512 -0.3989
   12DOPE   H7S 1469   1.421   5.124   9.179  0.7768  0.6043  0.2089
   12DOPE   C28 1470   1.312   5.312   9.128  0.6159 -1.2344 -0.3208
   12DOPE   H8R 1471   1.225   5.361   9.177  2.2291 -1.1865  2.7396
   12DOPE   H8S 1472   1.310   5.316   9.017  0.7827 -2.0632 -0.3620
   12DOPE   C29 1473   1.428   5.377   9.195  0.3901 -0.5799  0.7211
   12DOPE   H9R 1474   1.425   5.351   9.302 -0.6861 -3.8021  0.0027
   12DOPE  C210 1475   1.513   5.457   9.124 -0.2890  0.0565 -0.1120
   12DOPE  H10R 1476   1.587   5.522   9.173 -1.3982  0.9668  0.3997
   12DOPE  C211 1477   1.500   5.494   8.975  0.5152  0.8444  0.3080
   12DOPE  H11R 1478   1.394   5.506   8.945 -0.0146 -2.2527  0.5316
   12DOPE  H11S 1479   1.550   5.416   8.914  2.0261  0.4581  1.9544
   12DOPE  C212 1480   1.575   5.622   8.934  0.1369 -0.1509 -0.0412
   12DOPE  H12R 1481   1.683   5.611   8.953 -0.0475 -0.8339  0.6871
   12DOPE  H12S 1482   1.540   5.713   8.988  0.1339  0.6030 -1.2902
   12DOPE  C213 1483   1.564   5.645   8.784 -0.1817  0.2536  0.5353
   12DOPE  H13R 1484   1.460   5.674   8.758  0.2693  1.5538  0.1253
   12DOPE  H13S 1485   1.603   5.551   8.738 -0.5686  0.2147  0.2803
   12DOPE  C214 1486   1.664   5.757   8.739 -0.4991 -0.7645  0.0436
   12DOPE  H14R 1487   1.681   5.748   8.629 -1.2445 -0.5459 -0.0947
   12DOPE  H14S 1488   1.760   5.735   8.790 -0.3648 -1.2787 -0.4127
   12DOPE  C215 1489   1.617   5.902   8.756  0.3861  0.8439  0.4328
   12DOPE  H15R 1490   1.699   5.977   8.748  0.7167  0.4082 -0.3733
   12DOPE  H15S 1491   1.575   5.916   8.858 -0.0735 -0.9204  0.5014
   12DOPE  C216 1492   1.516   5.944   8.660  0.6534  0.4024  0.0359
   12DOPE  H16R 1493   1.421   5.890   8.680  0.9567 -0.6609 -1.2437
   12DOPE  H16S 1494   1.533   5.931   8.551  0.5776  1.4281 -0.1067
   12DOPE  C217 1495   1.491   6.098   8.681 -0.6867 -0.2686  0.4459
   12DOPE  H17R 1496   1.581   6.154   8.646 -1.0367 -0.2108 -0.3855
   12DOPE  H17S 1497   1.475   6.126   8.787  0.5306  0.0934  0.5487
   12DOPE  C218 1498   1.373   6.137   8.593  0.0524 -0.5902 -0.4447
   12DOPE  H18R 1499   1.284   6.074   8.612 -1.7507  0.4353 -4.3736
   12DOPE  H18S 1500   1.383   6.126   8.483 -1.4178  0.9997 -0.7986
   12DOPE  H18T 1501   1.353   6.244   8.619  4.1660  0.1657  0.2306
   12DOPE   C33 1502   1.332   4.694   9.604 -0.0632  0.5421 -0.3898
   12DOPE   H3X 1503   1.383   4.787   9.637 -2.0609  1.6022 -0.1045
   12DOPE   H3Y 1504   1.225   4.709   9.630 -0.4055 -2.0843 -0.0334
   12DOPE   C34 1505   1.312   4.704   9.455  0.0731 -0.2303 -0.0996
   12DOPE   H4X 1506   1.246   4.621   9.424 -0.9406  1.1226 -1.7742
   12DOPE   H4Y 1507   1.259   4.798   9.426  1.2767  0.4126 -0.2904
   12DOPE   C35 1508   1.445   4.699   9.383  0.3779 -0.2558 -0.1165
   12DOPE   H5X 1509   1.512   4.627   9.435  0.2385  0.0090  0.4393
   12DOPE   H5Y 1510   1.493   4.798   9.399 -0.6682  0.1265  0.7376
   12DOPE   C36 1511   1.431   4.681   9.236 -0.1312  0.0442 -0.1359
   12DOPE   H6X 1512   1.383   4.585   9.208  0.1347  0.2558 -1.4024
   12DOPE   H6Y 1513   1.527   4.664   9.183 -0.8158  1.9182 -2.1387
   12DOPE   C37 1514   1.357   4.794   9.159 -0.1271  0.5803 -0.1215
   12DOPE   H7X 1515   1.255   4.814   9.199  0.1313  1.7782 -0.0321
   12DOPE   H7Y 1516   1.421   4.882   9.176 -1.5591  1.8048 -0.7800
   12DOPE   C38 1517   1.347   4.754   9.012  0.4696 -0.4986 -0.3866
   12DOPE   H8X 1518   1.260   4.804   8.964  0.3220 -0.7804 -0.4155
   12DOPE   H8Y 1519   1.316   4.647   9.014  1.0022 -0.7826 -3.0238
   12DOPE   C39 1520   1.481   4.759   8.935  0.3770  0.2179  0.9902
   12DOPE   H9X 1521   1.541   4.667   8.936 -0.1599 -0.1326  1.1814
   12DOPE  C310 1522   1.533   4.865   8.873 -0.2647  0.0554 -0.4309
   12DOPE  H10X 1523   1.622   4.847   8.811 -0.0171  1.6209 -0.5589
   12DOPE  C311 1524   1.466   4.999   8.869  0.5592 -0.9587  0.1388
   12DOPE  H11X 1525   1.364   4.995   8.914  0.6079  0.6745  0.4475
   12DOPE  H11Y 1526   1.522   5.067   8.935  1.1846 -2.4851  1.2488
   12DOPE  C312 1527   1.431   5.038   8.723  0.3736  0.0704  0.2526
   12DOPE  H12X 1528   1.376   4.952   8.679 -0.0233 -0.3228  1.5030
   12DOPE  H12Y 1529   1.531   5.059   8.679  1.1923  2.8307  3.1166
   12DOPE  C313 1530   1.347   5.164   8.721 -0.7565  0.4377  0.4798
   12DOPE  H13X 1531   1.264   5.159   8.796 -0.3893 -0.1543  0.8576
   12DOPE  H13Y 1532   1.411   5.252   8.743  0.1389  0.3259 -1.5134
   12DOPE  C314 1533   1.279   5.178   8.585 -0.2717 -0.6694  0.0015
   12DOPE  H14X 1534   1.222   5.084   8.566 -1.4346  0.2633 -1.3947
   12DOPE  H14Y 1535   1.356   5.193   8.506 -2.2885 -0.3877 -2.0346
   12DOPE  C315 1536   1.186   5.300   8.563  0.1351  0.1608 -0.3153
   12DOPE  H15X 1537   1.117   5.305   8.650  0.9169 -0.1649  0.3352
   12DOPE  H15Y 1538   1.115   5.279   8.480 -0.2188  1.6711 -0.4195
   12DOPE  C316 1539   1.243   5.440   8.531 -0.3472 -0.6769  0.0152
   12DOPE  H16X 1540   1.317   5.439   8.448 -1.4615  2.6298 -1.1595
   12DOPE  H16Y 1541   1.295   5.488   8.617 -0.4265 -0.3455 -0.1241
   12DOPE  C317 1542   1.129   5.541   8.497  0.0658  0.0532  0.7629
   12DOPE  H17X 1543   1.078   5.494   8.410 -1.3631  0.6209  1.2713
   12DOPE  H17Y 1544   1.065   5.550   8.588  1.8166 -0.4303  2.0929
   12DOPE  C318 1545   1.161   5.688   8.456  0.6856 -0.4094  0.0712
   12DOPE  H18X 1546   1.224   5.679   8.364  0.1230 -0.4925 -0.3113
   12DOPE  H18Y 1547   1.064   5.732   8.425  0.6024 -1.7868 -1.7763
   12DOPE  H18Z 1548   1.217   5.745   8.533 -0.1807 -1.3344  1.4148
   13DOPE     N 1549   0.580   0.226  10.742 -0.0671 -0.0857 -0.2799
   13DOPE   HN1 1550   0.602   0.129  10.774  2.2877  0.5944  0.2965
   13DOPE   HN2 1551   0.640   0.298  10.786 -0.2005  0.2782 -0.6777
   13DOPE   HN3 1552   0.480   0.249  10.761  0.4113  1.2083  0.7743
   13DOPE   C12 1553   0.609   0.236  10.591  0.0441  0.0300  0.2538
   13DOPE  H12A 1554   0.717   0.257  10.574 -0.0011 -0.3930 -0.6114
   13DOPE  H12B 1555   0.548   0.320  10.552  0.3464  1.4004  2.5263
   13DOPE   C11 1556   0.579   0.099  10.530 -0.5907 -0.1745  0.3628
   13DOPE  H11A 1557   0.474   0.066  10.543 -0.0264 -1.7095  1.2034
   13DOPE  H11B 1558   0.645   0.021  10.574 -1.1334 -1.4797 -1.0390
   13DOPE     P 1559   0.521   0.191  10.290 -0.1167 -0.1842 -0.0959
   13DOPE   O13 1560   0.598   0.316  10.266 -0.1694 -0.0486 -0.1513
   13DOPE   O14 1561   0.381   0.213  10.317 -0.0986  0.5630 -0.5945
   13DOPE   O11 1562   0.523   0.104  10.157  0.1452  0.1705  0.3291
   13DOPE   O12 1563   0.604   0.097  10.388 -0.1649  0.2791 -0.4086
   13DOPE    C1 1564   0.418   0.138  10.062 -0.4050  0.7104 -0.2343
   13DOPE    HA 1565   0.400   0.248  10.062 -1.3113  0.5696 -0.4315
   13DOPE    HB 1566   0.325   0.081  10.082 -1.0686  1.1682 -1.8338
   13DOPE    C2 1567   0.458   0.108   9.909  0.3388 -0.5313 -0.1148
   13DOPE    HS 1568   0.474  -0.002   9.905  1.7817 -0.3092 -2.6794
   13DOPE   O21 1569   0.571   0.187   9.873 -0.5058 -0.1924 -0.5715
   13DOPE   C21 1570   0.619   0.151   9.753  0.9063 -0.4523 -0.0264
   13DOPE   O22 1571   0.579   0.057   9.685  0.1959  0.7772 -0.2381
   13DOPE   C22 1572   0.740   0.246   9.723 -0.0948  0.1232  0.6174
   13DOPE   H2R 1573   0.821   0.223   9.796 -0.4190 -1.3967  0.5231
   13DOPE   H2S 1574   0.702   0.344   9.758  0.2579  0.4153  0.2008
   13DOPE    C3 1575   0.334   0.142   9.816 -0.0437  0.0199 -0.2660
   13DOPE    HX 1576   0.250   0.074   9.844 -0.6561  0.2569 -1.4738
   13DOPE    HY 1577   0.360   0.112   9.712  0.8187 -3.9254  0.9333
   13DOPE   O31 1578   0.296   0.283   9.817 -0.6583  0.6378  0.5826
   13DOPE   C31 1579   0.207   0.319   9.726  0.6504 -0.5166 -0.1196
   13DOPE   O32 1580   0.143   0.248   9.656 -0.0525 -0.1039 -0.2169
   13DOPE   C32 1581   0.191   0.468   9.738  0.7704  0.2249 -0.2138
   13DOPE   H2X 1582   0.120   0.485   9.822  0.4901  0.6759 -0.5368
   13DOPE   H2Y 1583   0.274   0.537   9.766 -0.6146  1.3007  1.4842
   13DOPE   C23 1584   0.792   0.234   9.577  0.5334 -0.3075 -0.3305
   13DOPE   H3R 1585   0.814   0.127   9.559  2.6904  0.0372  0.0706
   13DOPE   H3S 1586   0.889   0.286   9.562  0.1012  0.9879  1.1146
   13DOPE   C24 1587   0.680   0.278   9.477  0.1247 -0.4875  0.2010
   13DOPE   H4R 1588   0.596   0.206   9.485 -2.0029  1.6368 -1.6087
   13DOPE   H4S 1589   0.726   0.271   9.376  1.0572  0.8072  0.5132
   13DOPE   C25 1590   0.616   0.415   9.499 -0.5980 -0.0475 -1.3436
   13DOPE   H5R 1591   0.566   0.421   9.599 -1.3831 -0.7293 -1.6866
   13DOPE   H5S 1592   0.535   0.428   9.425  0.1837  0.2321 -2.1613
   13DOPE   C26 1593   0.715   0.531   9.493  0.4499 -0.0777  0.0166
   13DOPE   H6R 1594   0.766   0.533   9.394  1.9432  2.4574  0.7302
   13DOPE   H6S 1595   0.786   0.520   9.578  0.8796  0.2200 -0.3024
   13DOPE   C27 1596   0.651   0.668   9.505  0.4865 -0.4446 -0.3777
   13DOPE   H7R 1597   0.578   0.661   9.588  0.6013 -1.9550 -0.3712
   13DOPE   H7S 1598   0.598   0.686   9.408 -1.1064 -1.6340  0.2236
   13DOPE   C28 1599   0.770   0.764   9.522  0.5278 -0.1498  0.1166
   13DOPE   H8R 1600   0.832   0.756   9.430  0.9430 -0.9465  0.4499
   13DOPE   H8S 1601   0.837   0.715   9.595  1.9474 -1.1162 -1.7393
   13DOPE   C29 1602   0.723   0.904   9.552  0.0918 -0.1376 -0.1952
   13DOPE   H9R 1603   0.677   0.921   9.650 -0.9054 -2.1640 -0.2658
   13DOPE  C210 1604   0.736   1.014   9.477  0.3367  0.3578  0.7397
   13DOPE  H10R 1605   0.695   1.111   9.508  2.0320  1.5941 -0.7265
   13DOPE  C211 1606   0.791   1.018   9.335  0.2012 -0.5639  0.4169
   13DOPE  H11R 1607   0.784   0.916   9.292 -2.2154 -1.7403  3.2620
   13DOPE  H11S 1608   0.901   1.036   9.343 -0.0488  0.7191  1.2031
   13DOPE  C212 1609   0.738   1.129   9.247  0.0721 -0.2211 -0.2098
   13DOPE  H12R 1610   0.800   1.122   9.155  0.6287  1.0998  0.0406
   13DOPE  H12S 1611   0.755   1.232   9.286  2.7445 -0.3711 -0.8239
   13DOPE  C213 1612   0.597   1.094   9.198  0.1228  0.1983  0.3859
   13DOPE  H13R 1613   0.520   1.119   9.274 -0.4351 -1.4114  0.3782
   13DOPE  H13S 1614   0.597   0.987   9.168  0.5872  0.3375 -0.1278
   13DOPE  C214 1615   0.568   1.180   9.070  0.3145 -0.1231  0.0129
   13DOPE  H14R 1616   0.659   1.191   9.008  1.1995 -0.6170  1.1747
   13DOPE  H14S 1617   0.547   1.278   9.118 -0.7669  0.0613 -0.8151
   13DOPE  C215 1618   0.456   1.118   8.989  0.4878  0.2213  0.2728
   13DOPE  H15R 1619   0.375   1.076   9.052 -1.1448  1.2764 -1.0198
   13DOPE  H15S 1620   0.498   1.036   8.927  0.8027 -1.4855  2.6290
   13DOPE  C216 1621   0.389   1.221   8.897 -0.5702  0.2141  0.3400
   13DOPE  H16R 1622   0.369   1.307   8.964  0.4379 -0.8994  2.1434
   13DOPE  H16S 1623   0.304   1.180   8.839  1.1495 -2.2291 -0.6004
   13DOPE  C217 1624   0.488   1.274   8.791  0.5942 -0.8277  0.5621
   13DOPE  H17R 1625   0.525   1.183   8.739  0.4462 -1.1943  1.0941
   13DOPE  H17S 1626   0.572   1.322   8.845  0.9284 -1.4912  0.6421
   13DOPE  C218 1627   0.442   1.376   8.689  0.0506  0.7122 -0.1981
   13DOPE  H18R 1628   0.361   1.337   8.624  1.2887 -0.5593 -1.0239
   13DOPE  H18S 1629   0.524   1.418   8.626  0.4194 -2.5178 -2.0616
   13DOPE  H18T 1630   0.402   1.460   8.750  0.6177 -0.3291  1.6902
   13DOPE   C33 1631   0.133   0.532   9.606  0.0473 -0.0104 -0.1408
   13DOPE   H3X 1632   0.080   0.620   9.647  0.4464  0.4214 -0.5381
   13DOPE   H3Y 1633   0.062   0.465   9.552 -0.7108  1.5818 -1.1909
   13DOPE   C34 1634   0.235   0.576   9.509 -0.1332 -0.1166  0.3860
   13DOPE   H4X 1635   0.320   0.630   9.556 -0.1499  0.4303 -0.1950
   13DOPE   H4Y 1636   0.284   0.484   9.471 -0.2271 -0.6510  1.5446
   13DOPE   C35 1637   0.185   0.669   9.395 -0.6829 -0.1317 -0.2104
   13DOPE   H5X 1638   0.131   0.750   9.448  0.6223  0.0707  0.8663
   13DOPE   H5Y 1639   0.106   0.616   9.336  0.8893 -1.6387 -1.0661
   13DOPE   C36 1640   0.299   0.720   9.308 -0.1038  0.2570  0.3592
   13DOPE   H6X 1641   0.349   0.635   9.258  0.6500  0.4629  0.7487
   13DOPE   H6Y 1642   0.362   0.784   9.374 -0.9988  1.7254 -0.1453
   13DOPE   C37 1643   0.267   0.823   9.195 -0.4150 -0.4183  0.5821
   13DOPE   H7X 1644   0.199   0.904   9.230 -1.6400 -0.7417 -0.9248
   13DOPE   H7Y 1645   0.366   0.863   9.164  0.0146 -2.1450 -0.3896
   13DOPE   C38 1646   0.208   0.754   9.074 -0.1382 -0.2561  0.5607
   13DOPE   H8X 1647   0.101   0.739   9.100 -0.2219 -1.8552 -0.5063
   13DOPE   H8Y 1648   0.245   0.649   9.076 -1.8676 -0.9594 -0.7606
   13DOPE   C39 1649   0.230   0.815   8.931 -0.7406 -0.4485  0.2094
   13DOPE   H9X 1650   0.166   0.899   8.900  1.1296  1.2213  0.6879
   13DOPE  C310 1651   0.338   0.797   8.852 -0.4106 -0.4401 -0.1462
   13DOPE  H10X 1652   0.348   0.859   8.762 -0.3626  3.2201  2.1840
   13DOPE  C311 1653   0.460   0.710   8.872 -0.7796  0.3006  0.4051
   13DOPE  H11X 1654   0.553   0.763   8.842 -0.4220 -0.7795 -0.4675
   13DOPE  H11Y 1655   0.479   0.665   8.972 -0.6220 -0.2391  0.1360
   13DOPE  C312 1656   0.447   0.591   8.770 -0.4494 -0.0077  0.0520
   13DOPE  H12X 1657   0.353   0.542   8.803 -0.1197  0.3625  1.6148
   13DOPE  H12Y 1658   0.531   0.520   8.788  0.9985  1.6831  0.1629
   13DOPE  C313 1659   0.447   0.626   8.620 -0.3443 -0.1778 -0.2250
   13DOPE  H13X 1660   0.363   0.696   8.597 -1.3631 -0.2603  2.8352
   13DOPE  H13Y 1661   0.547   0.668   8.599  0.2464 -1.3496  0.1854
   13DOPE  C314 1662   0.440   0.509   8.526  0.4651  0.5522  0.1703
   13DOPE  H14X 1663   0.357   0.447   8.567 -0.9365  0.7371 -2.1828
   13DOPE  H14Y 1664   0.530   0.446   8.542  0.0095  0.2451  1.6511
   13DOPE  C315 1665   0.398   0.532   8.382 -0.5917 -0.2108  0.1404
   13DOPE  H15X 1666   0.474   0.595   8.329 -0.3998 -0.9022 -0.4312
   13DOPE  H15Y 1667   0.298   0.577   8.368 -0.8676 -0.0887  2.2281
   13DOPE  C316 1668   0.413   0.405   8.296 -0.2385  0.1724 -0.6299
   13DOPE  H16X 1669   0.517   0.368   8.297  0.0830  0.6606  3.5080
   13DOPE  H16Y 1670   0.403   0.433   8.189  2.2969 -0.2106 -1.0261
   13DOPE  C317 1671   0.310   0.300   8.341 -0.2078 -0.1645 -0.3682
   13DOPE  H17X 1672   0.332   0.257   8.441  0.3634  0.3549 -0.2613
   13DOPE  H17Y 1673   0.204   0.331   8.343 -0.7813 -2.0216  1.3457
   13DOPE  C318 1674   0.311   0.178   8.238  0.4187  0.3935  0.7371
   13DOPE  H18X 1675   0.406   0.121   8.245 -0.6249 -1.8022 -1.3502
   13DOPE  H18Y 1676   0.232   0.103   8.263  1.6908 -1.3950 -0.3754
   13DOPE  H18Z 1677   0.296   0.198   8.129  0.0570 -2.6259  0.1278
   14DOPE     N 1678   6.231   2.244  10.516  0.1439  0.0756  0.0104
   14DOPE   HN1 1679   6.181   2.165  10.472 -1.4709  1.4610 -0.7320
   14DOPE   HN2 1680   6.326   2.255  10.477 -0.0309  2.4017  0.0894
   14DOPE   HN3 1681   6.231   2.233  10.620  0.0707  0.1511  0.0182
   14DOPE   C12 1682   6.176   2.379  10.466 -0.4348  0.0304 -0.6460
   14DOPE  H12A 1683   6.163   2.442  10.557 -2.7108 -1.5048  0.1910
   14DOPE  H12B 1684   6.072   2.362  10.432 -0.3887 -0.0117 -0.7666
   14DOPE   C11 1685   6.269   2.439  10.364 -0.1969  0.3472  0.0858
   14DOPE  H11A 1686   6.369   2.459  10.408  0.2719  1.8005 -1.5283
   14DOPE  H11B 1687   6.224   2.531  10.321  0.9235 -0.5725 -3.3681
   14DOPE     P 1688   6.414   2.279  10.211  0.1436 -0.2512  0.3414
   14DOPE   O13 1689   6.381   2.173  10.115 -0.1307  0.1176  0.2389
   14DOPE   O14 1690   6.481   2.241  10.336 -0.4237 -0.2208  0.0516
   14DOPE   O11 1691   6.515   2.384  10.154  1.1113 -0.5861 -0.5220
   14DOPE   O12 1692   6.277   2.357  10.245  0.0935  0.2847 -0.0121
   14DOPE    C1 1693   6.476   2.488  10.071  0.1993 -0.2008  0.4104
   14DOPE    HA 1694   6.565   2.552  10.054  0.6260 -0.2171  2.3232
   14DOPE    HB 1695   6.402   2.548  10.127  1.1451  0.2679  1.1991
   14DOPE    C2 1696   6.433   2.453   9.918  0.2329 -0.1287 -0.2247
   14DOPE    HS 1697   6.348   2.384   9.934 -0.2466  0.0138 -1.9695
   14DOPE   O21 1698   6.544   2.389   9.869  0.1689 -0.2906  0.6472
   14DOPE   C21 1699   6.519   2.291   9.783  0.4123 -0.2657 -0.4421
   14DOPE   O22 1700   6.414   2.240   9.759 -0.0381 -0.2581 -0.6665
   14DOPE   C22 1701   6.640   2.254   9.702 -0.6756  0.6333  0.0662
   14DOPE   H2R 1702   6.727   2.251   9.771 -1.0707  3.6822  0.8610
   14DOPE   H2S 1703   6.671   2.327   9.624 -0.3501  1.4323  0.9201
   14DOPE    C3 1704   6.401   2.577   9.823  0.1321  0.4880 -0.5410
   14DOPE    HX 1705   6.495   2.636   9.823  0.6455 -0.2221 -2.9040
   14DOPE    HY 1706   6.320   2.639   9.866 -1.2039 -0.2280 -1.9299
   14DOPE   O31 1707   6.360   2.531   9.690  0.0284 -0.2665 -0.7431
   14DOPE   C31 1708   6.233   2.481   9.687  0.0749 -0.0911  0.0756
   14DOPE   O32 1709   6.153   2.484   9.780  0.0350 -0.5824 -0.1024
   14DOPE   C32 1710   6.225   2.416   9.548  0.6010 -0.2526 -0.6891
   14DOPE   H2X 1711   6.211   2.505   9.483  2.6647  0.0917 -0.7281
   14DOPE   H2Y 1712   6.328   2.383   9.524  0.8146 -1.0132  1.1348
   14DOPE   C23 1713   6.624   2.119   9.634  0.1017 -0.3755 -0.1360
   14DOPE   H3R 1714   6.568   2.044   9.693  1.2553 -0.0094  1.4782
   14DOPE   H3S 1715   6.721   2.072   9.608 -0.4351 -1.9296  0.5566
   14DOPE   C24 1716   6.548   2.134   9.505  0.0526 -0.2072  0.1330
   14DOPE   H4R 1717   6.599   2.211   9.444  0.4459 -1.0793 -0.6637
   14DOPE   H4S 1718   6.446   2.177   9.515 -0.6958 -1.6182 -1.0073
   14DOPE   C25 1719   6.525   2.006   9.418  0.3429 -0.0218 -0.4643
   14DOPE   H5R 1720   6.621   1.950   9.405 -0.2044 -1.1172  0.1029
   14DOPE   H5S 1721   6.486   2.036   9.319  0.6690  1.7876 -0.0937
   14DOPE   C26 1722   6.426   1.909   9.482  0.1340 -0.3077  0.9543
   14DOPE   H6R 1723   6.344   1.973   9.522  0.9732  0.9573  0.6977
   14DOPE   H6S 1724   6.463   1.850   9.568  0.8797 -1.4061 -0.0830
   14DOPE   C27 1725   6.383   1.796   9.386 -0.1243 -0.0207 -0.2012
   14DOPE   H7R 1726   6.328   1.719   9.445 -2.1731  1.6241  0.1727
   14DOPE   H7S 1727   6.482   1.762   9.352  1.0458  2.3187  0.6317
   14DOPE   C28 1728   6.291   1.841   9.277  0.6292 -0.1800 -0.5658
   14DOPE   H8R 1729   6.332   1.932   9.229 -2.0199  0.6491 -1.4349
   14DOPE   H8S 1730   6.196   1.884   9.315  0.4956  0.0487 -1.1555
   14DOPE   C29 1731   6.278   1.729   9.176 -0.2203  0.2338  0.2099
   14DOPE   H9R 1732   6.371   1.673   9.157 -0.1518  0.5396 -0.3876
   14DOPE  C210 1733   6.175   1.690   9.103  0.5223 -0.0831  0.2686
   14DOPE  H10R 1734   6.173   1.603   9.036 -3.8590  0.5849 -0.7509
   14DOPE  C211 1735   6.034   1.742   9.110 -0.0269 -0.6856  0.1952
   14DOPE  H11R 1736   6.043   1.853   9.111  1.8830 -0.7724  2.3154
   14DOPE  H11S 1737   5.994   1.717   9.211  0.8618 -0.2622  0.6611
   14DOPE  C212 1738   5.927   1.708   8.999 -0.1607 -0.4560 -0.7462
   14DOPE  H12R 1739   5.839   1.768   9.028  2.7217  3.2790  1.1949
   14DOPE  H12S 1740   5.910   1.598   8.999 -2.1682 -0.3017  2.7327
   14DOPE  C213 1741   5.954   1.763   8.862 -0.2026  0.2449  0.0998
   14DOPE  H13R 1742   6.050   1.732   8.815 -0.3193  3.0050 -2.2551
   14DOPE  H13S 1743   5.949   1.874   8.869 -1.5256  0.0945  2.2028
   14DOPE  C214 1744   5.842   1.712   8.772  0.2309 -0.0367  0.0506
   14DOPE  H14R 1745   5.743   1.746   8.809  0.2873  0.3514 -0.1461
   14DOPE  H14S 1746   5.845   1.601   8.776  0.3424 -0.0288  0.1891
   14DOPE  C215 1747   5.856   1.766   8.625 -0.3211 -0.4830 -0.1653
   14DOPE  H15R 1748   5.767   1.731   8.568  0.2807 -0.9218 -0.8375
   14DOPE  H15S 1749   5.934   1.702   8.579  0.9054  0.3745  0.6456
   14DOPE  C216 1750   5.880   1.916   8.603 -0.0307  0.0455  0.1686
   14DOPE  H16R 1751   5.950   1.957   8.679  1.5623 -1.3824 -0.4726
   14DOPE  H16S 1752   5.785   1.965   8.634 -0.1928 -0.5635  0.6448
   14DOPE  C217 1753   5.930   1.955   8.460 -0.1025  0.1325  0.7192
   14DOPE  H17R 1754   5.853   1.914   8.390 -0.1089  2.6897 -0.8941
   14DOPE  H17S 1755   6.029   1.911   8.436 -0.1563  1.7995 -3.4976
   14DOPE  C218 1756   5.942   2.105   8.442 -0.7387  0.3152 -0.5114
   14DOPE  H18R 1757   6.012   2.136   8.523 -0.1331 -1.3907 -0.3517
   14DOPE  H18S 1758   5.852   2.167   8.465 -0.4480  0.4645  0.2909
   14DOPE  H18T 1759   5.985   2.129   8.343 -0.1338  0.5546 -0.1998
   14DOPE   C33 1760   6.106   2.325   9.533 -0.0724 -0.4499  0.1676
   14DOPE   H3X 1761   6.017   2.372   9.579 -0.7625  1.2484 -2.5996
   14DOPE   H3Y 1762   6.129   2.225   9.574  0.4700 -1.2692 -1.9759
   14DOPE   C34 1763   6.065   2.297   9.386  0.2757 -0.6721  0.3363
   14DOPE   H4X 1764   5.986   2.219   9.381 -0.8363  0.4138  0.4028
   14DOPE   H4Y 1765   6.018   2.387   9.340  2.0170 -0.6234 -1.4779
   14DOPE   C35 1766   6.179   2.258   9.301 -0.9688 -0.2386  0.4540
   14DOPE   H5X 1767   6.237   2.188   9.364  0.0902 -0.6263 -0.8993
   14DOPE   H5Y 1768   6.250   2.343   9.288  0.5994 -1.4276  0.9869
   14DOPE   C36 1769   6.152   2.196   9.159  0.2868  0.0018 -0.6201
   14DOPE   H6X 1770   6.092   2.103   9.164  2.1129 -1.2432 -0.6092
   14DOPE   H6Y 1771   6.251   2.153   9.132  1.0560  2.1777 -1.5067
   14DOPE   C37 1772   6.105   2.281   9.042  0.0816  0.3879  0.1572
   14DOPE   H7X 1773   6.011   2.329   9.078 -0.1085 -0.0988  0.3050
   14DOPE   H7Y 1774   6.192   2.350   9.031 -1.7240  2.5106 -1.6605
   14DOPE   C38 1775   6.075   2.197   8.918 -0.4843  0.7248 -0.1617
   14DOPE   H8X 1776   6.000   2.117   8.940  1.9101 -1.6842 -0.2760
   14DOPE   H8Y 1777   6.165   2.134   8.903 -1.1184 -0.1178 -0.5245
   14DOPE   C39 1778   6.025   2.281   8.806 -0.2152  0.2139 -0.8867
   14DOPE   H9X 1779   6.104   2.340   8.757  1.2710 -2.9247 -2.5616
   14DOPE  C310 1780   5.895   2.308   8.775 -0.5703  0.7003  0.1181
   14DOPE  H10X 1781   5.884   2.376   8.690 -1.4940 -0.7583 -0.9716
   14DOPE  C311 1782   5.767   2.238   8.822 -0.6502  0.3279  0.0106
   14DOPE  H11X 1783   5.710   2.201   8.734  1.8392 -0.3420 -1.4588
   14DOPE  H11Y 1784   5.787   2.143   8.877 -1.5148 -0.2921 -0.7180
   14DOPE  C312 1785   5.675   2.338   8.901 -0.3617  0.6967  0.5632
   14DOPE  H12X 1786   5.580   2.284   8.920 -0.8854  1.2528 -0.4072
   14DOPE  H12Y 1787   5.641   2.412   8.826  0.3617  0.0862 -0.3867
   14DOPE  C313 1788   5.733   2.390   9.038 -0.1372 -0.1377  0.1000
   14DOPE  H13X 1789   5.799   2.310   9.076 -3.1821 -2.9655 -0.1273
   14DOPE  H13Y 1790   5.786   2.485   9.014  0.1309 -0.3365 -0.0886
   14DOPE  C314 1791   5.615   2.413   9.146  0.2372 -0.0601 -0.0108
   14DOPE  H14X 1792   5.546   2.326   9.150  1.4037 -0.9586  1.6291
   14DOPE  H14Y 1793   5.563   2.509   9.123 -0.2292 -0.1914  0.4880
   14DOPE  C315 1794   5.667   2.417   9.290  0.0617  0.1649 -0.6111
   14DOPE  H15X 1795   5.734   2.331   9.313 -0.2981  0.0135 -0.1125
   14DOPE  H15Y 1796   5.575   2.411   9.351  0.3905 -1.4637 -0.2415
   14DOPE  C316 1797   5.739   2.548   9.327 -0.1876 -0.8953  0.6310
   14DOPE  H16X 1798   5.664   2.628   9.312  0.4000 -0.4493  0.0440
   14DOPE  H16Y 1799   5.825   2.559   9.257 -0.2175 -0.7235  0.6219
   14DOPE  C317 1800   5.784   2.565   9.473 -0.2415 -0.2501  0.4074
   14DOPE  H17X 1801   5.687   2.576   9.528 -0.2677  1.7588  0.0016
   14DOPE  H17Y 1802   5.835   2.470   9.500  0.7070 -0.7523 -2.7298
   14DOPE  C318 1803   5.868   2.689   9.499 -0.5840 -0.5768 -0.2613
   14DOPE  H18X 1804   5.978   2.671   9.497 -0.6252 -0.8511 -1.6011
   14DOPE  H18Y 1805   5.843   2.771   9.429 -1.9334 -0.6736  0.0885
   14DOPE  H18Z 1806   5.838   2.739   9.593 -2.9450  1.2344 -1.8584
   15DOPE     N 1807   6.064   1.854  10.544  1.0064  0.0507  0.2124
   15DOPE   HN1 1808   6.130   1.895  10.614  1.9420  1.8709 -1.6263
   15DOPE   HN2 1809   6.052   1.926  10.470 -2.7772  0.3791  0.9722
   15DOPE   HN3 1810   5.973   1.856  10.593  1.2911 -0.6253  0.7976
   15DOPE   C12 1811   6.099   1.721  10.490 -0.7145 -1.1793  0.3919
   15DOPE  H12A 1812   6.150   1.654  10.562 -0.4689 -1.7320 -0.2802
   15DOPE  H12B 1813   6.178   1.734  10.412 -1.4535  0.2048 -0.1547
   15DOPE   C11 1814   5.975   1.647  10.433  0.3645  0.6856 -0.5148
   15DOPE  H11A 1815   5.909   1.631  10.521 -1.7895  1.5827 -1.8544
   15DOPE  H11B 1816   6.008   1.548  10.396 -0.3914  0.0739  0.3830
   15DOPE     P 1817   5.776   1.662  10.274 -0.7395 -0.1590 -0.4594
   15DOPE   O13 1818   5.691   1.768  10.217  0.5635  0.1620 -0.0722
   15DOPE   O14 1819   5.706   1.586  10.380  1.2767 -0.2754  0.5777
   15DOPE   O11 1820   5.837   1.564  10.161  0.2946  0.3115  0.0241
   15DOPE   O12 1821   5.899   1.730  10.346  0.3006 -0.2393 -0.3263
   15DOPE    C1 1822   5.951   1.599  10.088  0.3400 -0.0734  0.4516
   15DOPE    HA 1823   6.014   1.509  10.069 -0.5621 -0.8506  1.0369
   15DOPE    HB 1824   6.028   1.663  10.136  2.6703 -1.4563 -1.2215
   15DOPE    C2 1825   5.897   1.673   9.960 -0.1199 -0.1689 -0.0071
   15DOPE    HS 1826   5.844   1.761  10.001  1.2971  0.0632  1.4504
   15DOPE   O21 1827   5.810   1.576   9.891 -0.1510 -0.1306 -0.4976
   15DOPE   C21 1828   5.709   1.641   9.824  0.3417 -0.4400  0.3031
   15DOPE   O22 1829   5.678   1.757   9.831 -0.1564  0.4677  0.0081
   15DOPE   C22 1830   5.666   1.539   9.719 -1.0824 -0.0597  0.3754
   15DOPE   H2R 1831   5.656   1.436   9.760 -0.8008 -0.7012 -1.1291
   15DOPE   H2S 1832   5.746   1.538   9.642 -1.0407  0.9204  0.3894
   15DOPE    C3 1833   6.009   1.726   9.869 -0.2894 -0.1119 -0.0470
   15DOPE    HX 1834   6.080   1.644   9.848  1.6781  1.3841  0.5032
   15DOPE    HY 1835   6.069   1.803   9.922  1.9532 -0.6163 -1.7138
   15DOPE   O31 1836   5.966   1.784   9.746 -0.3213  0.7143  0.1621
   15DOPE   C31 1837   6.056   1.862   9.694  0.6368 -0.0080  0.0809
   15DOPE   O32 1838   6.173   1.866   9.731  0.0856 -0.5124 -0.1879
   15DOPE   C32 1839   5.987   1.948   9.580  0.5355  0.0070  0.0261
   15DOPE   H2X 1840   5.937   2.031   9.635 -2.8998 -1.8184 -0.0312
   15DOPE   H2Y 1841   6.066   1.972   9.506 -0.9999  0.7876 -1.4475
   15DOPE   C23 1842   5.537   1.581   9.646 -0.8435 -0.1253 -0.1140
   15DOPE   H3R 1843   5.543   1.682   9.601 -0.7669 -1.2430 -2.8367
   15DOPE   H3S 1844   5.459   1.575   9.725  0.7213 -1.4617  1.4079
   15DOPE   C24 1845   5.501   1.485   9.530 -0.0113  0.7001 -0.3950
   15DOPE   H4R 1846   5.516   1.384   9.573 -0.4769  1.2086  0.9984
   15DOPE   H4S 1847   5.578   1.514   9.454  1.9473 -1.5246  0.6223
   15DOPE   C25 1848   5.353   1.505   9.485 -0.6316 -0.3281 -0.2310
   15DOPE   H5R 1849   5.283   1.480   9.568  1.1517 -0.4923  1.2781
   15DOPE   H5S 1850   5.344   1.420   9.414 -1.7129 -1.3421  1.0745
   15DOPE   C26 1851   5.323   1.642   9.408  0.5571  0.3042 -0.0050
   15DOPE   H6R 1852   5.390   1.655   9.320  1.4991  2.6341  0.9698
   15DOPE   H6S 1853   5.353   1.734   9.462  1.1883 -0.5617  1.1938
   15DOPE   C27 1854   5.176   1.660   9.375 -0.3545 -0.2409  0.0407
   15DOPE   H7R 1855   5.153   1.762   9.337  2.7477 -0.1791 -2.0942
   15DOPE   H7S 1856   5.122   1.651   9.471 -0.3563 -0.2214  0.0414
   15DOPE   C28 1857   5.105   1.562   9.274  0.0820  0.9798 -0.0995
   15DOPE   H8R 1858   4.997   1.590   9.270 -0.5660 -0.9494  1.7008
   15DOPE   H8S 1859   5.101   1.456   9.309  0.2315  0.6898 -0.9304
   15DOPE   C29 1860   5.176   1.554   9.139 -0.1770  0.1724 -0.7771
   15DOPE   H9R 1861   5.268   1.493   9.143 -0.6072 -0.5537 -1.6222
   15DOPE  C210 1862   5.137   1.617   9.031  0.2517  0.2234  0.3379
   15DOPE  H10R 1863   5.188   1.598   8.936  1.5078 -1.2222  1.2438
   15DOPE  C211 1864   5.009   1.697   9.021 -0.6999  0.2366  0.3525
   15DOPE  H11R 1865   5.003   1.758   9.113 -0.2109 -1.0910  1.3070
   15DOPE  H11S 1866   4.928   1.620   9.029  1.4692 -2.2005  0.2357
   15DOPE  C212 1867   4.999   1.796   8.905  0.4015 -0.2158  0.6702
   15DOPE  H12R 1868   5.089   1.861   8.903  1.5137 -1.6821  1.6551
   15DOPE  H12S 1869   4.915   1.867   8.923 -0.4935 -1.0665 -0.0649
   15DOPE  C213 1870   4.975   1.743   8.769  0.1008 -0.2654  0.0005
   15DOPE  H13R 1871   4.865   1.727   8.767  0.3420 -2.1504  0.6258
   15DOPE  H13S 1872   5.023   1.643   8.764 -0.2829 -0.4115 -1.0278
   15DOPE  C214 1873   5.011   1.841   8.654 -0.5524 -0.2413 -0.1634
   15DOPE  H14R 1874   5.120   1.865   8.656 -0.5335 -0.3836  0.6257
   15DOPE  H14S 1875   4.965   1.941   8.673 -1.6940 -0.6730 -0.5989
   15DOPE  C215 1876   4.962   1.791   8.519  0.3928 -0.0354  0.1503
   15DOPE  H15R 1877   4.863   1.743   8.530  0.1225  0.4545 -0.1228
   15DOPE  H15S 1878   5.037   1.718   8.482  1.3875  0.9665  0.0917
   15DOPE  C216 1879   4.942   1.908   8.411 -0.0023  0.4581 -0.6273
   15DOPE  H16R 1880   4.873   1.986   8.450  2.0357  1.4881  1.0569
   15DOPE  H16S 1881   4.885   1.860   8.328 -1.4739 -0.0568  0.6267
   15DOPE  C217 1882   5.077   1.963   8.363  0.4648  0.4217  0.0999
   15DOPE  H17R 1883   5.137   1.892   8.303  0.2768  0.7668 -0.5104
   15DOPE  H17S 1884   5.136   1.988   8.453 -2.1716  1.3470  1.6944
   15DOPE  C218 1885   5.057   2.093   8.280  0.3321  0.2824 -0.4015
   15DOPE  H18R 1886   4.984   2.071   8.199 -0.4617 -0.9648  0.6201
   15DOPE  H18S 1887   5.152   2.132   8.236  0.6399  1.0259  0.9013
   15DOPE  H18T 1888   5.011   2.170   8.345  2.2689  0.5602  0.7278
   15DOPE   C33 1889   5.879   1.863   9.501 -0.5737 -0.1429  0.1862
   15DOPE   H3X 1890   5.811   1.812   9.572  3.3993 -3.0289  2.3047
   15DOPE   H3Y 1891   5.944   1.784   9.457  0.9948  1.5728 -0.7201
   15DOPE   C34 1892   5.805   1.943   9.387  0.0661  0.3165 -0.2288
   15DOPE   H4X 1893   5.794   2.049   9.418 -0.8548  0.2472 -0.3049
   15DOPE   H4Y 1894   5.880   1.955   9.306 -0.4056  2.6053 -0.3888
   15DOPE   C35 1895   5.678   1.878   9.327 -0.6600  0.1414 -0.3252
   15DOPE   H5X 1896   5.608   1.850   9.409  0.1768 -1.3955 -0.1137
   15DOPE   H5Y 1897   5.709   1.785   9.276 -3.1824 -0.3806 -1.0887
   15DOPE   C36 1898   5.618   1.966   9.219 -0.0525 -0.4129  0.5024
   15DOPE   H6X 1899   5.695   1.996   9.145 -3.0248  1.4114 -2.1287
   15DOPE   H6Y 1900   5.578   2.055   9.272  0.3713  1.8973 -2.7601
   15DOPE   C37 1901   5.493   1.900   9.154 -0.1035  0.6208 -0.7144
   15DOPE   H7X 1902   5.518   1.796   9.125  0.5334  0.2088  1.1815
   15DOPE   H7Y 1903   5.410   1.893   9.227 -0.5704 -0.8279 -1.3665
   15DOPE   C38 1904   5.441   1.971   9.031 -0.2065  0.6025 -0.9095
   15DOPE   H8X 1905   5.431   2.077   9.060 -4.1816  0.0280  0.4304
   15DOPE   H8Y 1906   5.337   1.940   9.005 -0.4319 -0.4866  1.0486
   15DOPE   C39 1907   5.536   1.964   8.913 -0.0524 -0.8544  0.0805
   15DOPE   H9X 1908   5.619   2.037   8.916 -1.7178  1.1042  2.1794
   15DOPE  C310 1909   5.505   1.899   8.797 -0.0188  0.3325 -0.0985
   15DOPE  H10X 1910   5.570   1.908   8.709 -0.6086  0.2379 -0.5530
   15DOPE  C311 1911   5.389   1.813   8.770 -0.0909 -0.6326  0.9855
   15DOPE  H11X 1912   5.315   1.814   8.853 -1.7956  0.3636 -0.4537
   15DOPE  H11Y 1913   5.329   1.846   8.682 -3.1488 -1.8954  2.4292
   15DOPE  C312 1914   5.446   1.670   8.756  0.1562 -0.6090  0.0356
   15DOPE  H12X 1915   5.468   1.629   8.857  1.4887 -1.1755 -0.4553
   15DOPE  H12Y 1916   5.542   1.672   8.700 -0.7659 -0.3169 -1.5906
   15DOPE  C313 1917   5.356   1.585   8.670  0.4596  0.1435  0.4252
   15DOPE  H13X 1918   5.372   1.477   8.688 -2.9673 -0.0121  3.7459
   15DOPE  H13Y 1919   5.251   1.609   8.697  0.1389 -0.8096  0.0653
   15DOPE  C314 1920   5.377   1.598   8.514 -0.0543 -0.7448 -0.1180
   15DOPE  H14X 1921   5.485   1.579   8.494 -0.0934 -1.7660  0.6233
   15DOPE  H14Y 1922   5.357   1.702   8.479 -0.3547 -0.8798 -0.3525
   15DOPE  C315 1923   5.295   1.498   8.436  0.0827  0.2210  0.6661
   15DOPE  H15X 1924   5.193   1.518   8.477  0.1366  0.9050  0.4778
   15DOPE  H15Y 1925   5.333   1.399   8.471 -4.6200 -1.3199  2.2189
   15DOPE  C316 1926   5.312   1.502   8.288 -0.3857 -0.6153 -0.1974
   15DOPE  H16X 1927   5.248   1.419   8.252 -0.1987 -1.0552  0.4660
   15DOPE  H16Y 1928   5.417   1.481   8.259  0.4012  0.2066  1.8978
   15DOPE  C317 1929   5.253   1.627   8.217  0.1457  0.3570 -0.7043
   15DOPE  H17X 1930   5.170   1.646   8.289  1.1635  1.4930  0.2268
   15DOPE  H17Y 1931   5.317   1.718   8.214  1.0887 -0.2295  0.5038
   15DOPE  C318 1932   5.206   1.593   8.083  0.2053  0.1093 -0.0726
   15DOPE  H18X 1933   5.282   1.559   8.009  0.4829 -0.8243  0.6217
   15DOPE  H18Y 1934   5.126   1.517   8.091  0.1705  0.2048  0.5372
   15DOPE  H18Z 1935   5.155   1.680   8.037  1.2068  0.2880 -0.8933
   16DOPE     N 1936   5.338   0.510  10.488  0.0668  0.4202  0.4555
   16DOPE   HN1 1937   5.281   0.474  10.567 -0.8543  0.6104 -0.1043
   16DOPE   HN2 1938   5.435   0.536  10.515  0.9931 -1.2652 -0.9900
   16DOPE   HN3 1939   5.293   0.596  10.451  1.0843  0.2634 -1.2612
   16DOPE   C12 1940   5.341   0.417  10.370  0.1136  0.2560  0.2163
   16DOPE  H12A 1941   5.233   0.399  10.350  0.1522 -0.1406  0.3590
   16DOPE  H12B 1942   5.395   0.325  10.397  0.7891  0.8459  0.9360
   16DOPE   C11 1943   5.413   0.479  10.248 -0.0053  0.3610  0.3407
   16DOPE  H11A 1944   5.357   0.559  10.194 -0.9459 -1.2799 -1.2242
   16DOPE  H11B 1945   5.413   0.410  10.161 -1.0953  3.1445 -2.0600
   16DOPE     P 1946   5.677   0.469  10.213 -0.1875  0.3579 -0.5256
   16DOPE   O13 1947   5.700   0.341  10.294 -0.1122  0.6648 -0.0486
   16DOPE   O14 1948   5.785   0.571  10.217 -0.3116  0.2970  0.1346
   16DOPE   O11 1949   5.639   0.424  10.067 -0.2321 -0.4693  0.5523
   16DOPE   O12 1950   5.542   0.535  10.273  0.1213 -0.2439 -0.7261
   16DOPE    C1 1951   5.613   0.528   9.972  0.0892  0.6117 -0.3818
   16DOPE    HA 1952   5.713   0.553   9.929  0.6045  0.5686  0.7549
   16DOPE    HB 1953   5.575   0.622  10.016  1.8578  0.5716  1.3863
   16DOPE    C2 1954   5.527   0.483   9.848  0.4536 -0.3863 -0.4981
   16DOPE    HS 1955   5.431   0.453   9.895  0.2547 -1.5224 -1.5824
   16DOPE   O21 1956   5.579   0.381   9.765 -0.1822  0.1521 -0.1714
   16DOPE   C21 1957   5.542   0.258   9.790 -0.2221 -0.1518  0.2131
   16DOPE   O22 1958   5.482   0.215   9.882  0.5267  0.3511  0.1654
   16DOPE   C22 1959   5.613   0.185   9.688 -0.2565  0.2552  0.6257
   16DOPE   H2R 1960   5.559   0.088   9.686 -1.2611  0.6740  3.1479
   16DOPE   H2S 1961   5.718   0.171   9.724 -0.6342 -1.4928  1.1486
   16DOPE    C3 1962   5.505   0.609   9.758 -0.6952  0.0282 -0.3048
   16DOPE    HX 1963   5.599   0.611   9.699 -0.6281 -0.4616 -0.2238
   16DOPE    HY 1964   5.490   0.703   9.815  1.8988 -0.4995  1.4226
   16DOPE   O31 1965   5.399   0.594   9.666 -0.1422  0.3001  0.6526
   16DOPE   C31 1966   5.417   0.694   9.572 -0.1860  0.1137 -0.0869
   16DOPE   O32 1967   5.495   0.784   9.581  0.8036 -0.5052  0.8899
   16DOPE   C32 1968   5.320   0.672   9.454  0.1994  0.3571  0.1179
   16DOPE   H2X 1969   5.288   0.566   9.461  2.2123 -0.2604  0.7422
   16DOPE   H2Y 1970   5.230   0.735   9.473 -0.0684  0.9696 -2.7338
   16DOPE   C23 1971   5.599   0.241   9.548 -0.1923  0.1958 -0.4348
   16DOPE   H3R 1972   5.650   0.180   9.470 -0.8732 -0.5283 -0.3271
   16DOPE   H3S 1973   5.646   0.342   9.545 -1.9875  1.1025  0.0989
   16DOPE   C24 1974   5.451   0.264   9.505 -0.0190  0.4089  0.5301
   16DOPE   H4R 1975   5.389   0.308   9.586 -1.8945 -0.5121 -0.3560
   16DOPE   H4S 1976   5.420   0.159   9.485 -0.4494  0.4281  1.0855
   16DOPE   C25 1977   5.433   0.355   9.380  0.2567 -0.0204  0.7475
   16DOPE   H5R 1978   5.480   0.456   9.384  0.9506 -0.3722  1.7415
   16DOPE   H5S 1979   5.325   0.366   9.357  0.3811  0.0407  0.1645
   16DOPE   C26 1980   5.501   0.298   9.251 -0.0750 -0.3744  0.0414
   16DOPE   H6R 1981   5.441   0.207   9.229  1.2513 -1.5248  1.0162
   16DOPE   H6S 1982   5.608   0.270   9.258  0.4422  1.5250  0.3019
   16DOPE   C27 1983   5.483   0.393   9.131  0.0496 -0.4147 -0.0355
   16DOPE   H7R 1984   5.544   0.484   9.148 -1.6789  0.5158  1.5900
   16DOPE   H7S 1985   5.377   0.428   9.133  0.2398  0.1628 -0.1234
   16DOPE   C28 1986   5.515   0.333   8.997 -0.3383  0.2956  0.2080
   16DOPE   H8R 1987   5.447   0.247   8.980 -1.3629  1.6069 -3.3188
   16DOPE   H8S 1988   5.621   0.299   8.992 -0.8421 -1.4101  0.5932
   16DOPE   C29 1989   5.495   0.448   8.898 -0.0183  0.4210  0.2618
   16DOPE   H9R 1990   5.390   0.480   8.888  0.2679  0.9610 -1.4146
   16DOPE  C210 1991   5.590   0.502   8.824  0.0814  0.0859  0.3061
   16DOPE  H10R 1992   5.566   0.593   8.767  0.5806 -0.1539 -0.2898
   16DOPE  C211 1993   5.737   0.474   8.822  0.0523  0.0272  0.1699
   16DOPE  H11R 1994   5.782   0.473   8.924  1.9306  0.5255 -0.6112
   16DOPE  H11S 1995   5.787   0.546   8.754 -0.6004  0.5256  0.2084
   16DOPE  C212 1996   5.773   0.331   8.771 -0.3633  0.7778  0.1662
   16DOPE  H12R 1997   5.700   0.256   8.806  0.9969 -1.2187 -1.0722
   16DOPE  H12S 1998   5.874   0.303   8.809  0.0928 -1.7508 -2.5453
   16DOPE  C213 1999   5.759   0.317   8.621 -1.0863  0.1479  0.1103
   16DOPE  H13R 2000   5.829   0.387   8.571 -2.9248  0.3808 -2.3213
   16DOPE  H13S 2001   5.656   0.348   8.593 -0.2904  1.9793 -0.9770
   16DOPE  C214 2002   5.774   0.175   8.572 -0.4784 -0.0854  0.1017
   16DOPE  H14R 2003   5.679   0.145   8.522 -0.9533  1.6673 -0.1549
   16DOPE  H14S 2004   5.791   0.108   8.658 -0.3380  1.5550  1.4180
   16DOPE  C215 2005   5.883   0.153   8.459 -0.3060  0.1128 -0.0261
   16DOPE  H15R 2006   5.934   0.058   8.487  1.0754  0.8404  0.0320
   16DOPE  H15S 2007   5.949   0.242   8.469  1.3540 -0.9490 -1.0909
   16DOPE  C216 2008   5.826   0.131   8.319  0.8523  0.8722 -0.2537
   16DOPE  H16R 2009   5.791   0.227   8.274  0.8244  0.8772 -0.2222
   16DOPE  H16S 2010   5.732   0.073   8.333  1.5246 -0.5559 -1.4057
   16DOPE  C217 2011   5.921   0.068   8.222  0.4212 -0.0093  0.1415
   16DOPE  H17R 2012   5.862   0.065   8.127  1.2020  2.2729 -0.4676
   16DOPE  H17S 2013   5.939  -0.039   8.246 -0.9979  0.0363  1.6219
   16DOPE  C218 2014   6.052   0.141   8.176  0.5875 -0.0026 -0.1357
   16DOPE  H18R 2015   6.116   0.161   8.264  1.8725 -1.2910 -0.7374
   16DOPE  H18S 2016   6.035   0.241   8.132  1.9481 -0.0055 -0.7227
   16DOPE  H18T 2017   6.110   0.076   8.106  0.4847  0.2273 -0.4375
   16DOPE   C33 2018   5.364   0.728   9.312 -0.6349 -1.0170  0.1607
   16DOPE   H3X 2019   5.460   0.691   9.271  0.8069  1.4351  1.0959
   16DOPE   H3Y 2020   5.380   0.836   9.330  3.9279 -1.4730 -0.0863
   16DOPE   C34 2021   5.251   0.699   9.210 -0.0984  0.1135  0.2026
   16DOPE   H4X 2022   5.229   0.590   9.206 -2.1883  0.5304 -0.8228
   16DOPE   H4Y 2023   5.160   0.749   9.249  0.5363  0.8928  0.7296
   16DOPE   C35 2024   5.275   0.755   9.068 -0.0659 -0.0666  0.1415
   16DOPE   H5X 2025   5.378   0.731   9.035  0.4052  1.6239  0.2992
   16DOPE   H5Y 2026   5.266   0.865   9.072 -0.3470 -0.0579 -0.5645
   16DOPE   C36 2027   5.182   0.679   8.966 -0.2018 -0.4641  0.2348
   16DOPE   H6X 2028   5.076   0.711   8.974  0.1536  1.6261 -2.2185
   16DOPE   H6Y 2029   5.195   0.571   8.990  1.3017 -0.2408  0.5643
   16DOPE   C37 2030   5.219   0.687   8.816 -0.0612 -0.0898  0.6423
   16DOPE   H7X 2031   5.186   0.787   8.780  0.2424 -0.7465 -1.6228
   16DOPE   H7Y 2032   5.329   0.677   8.801 -0.5507 -0.8869 -3.2580
   16DOPE   C38 2033   5.153   0.578   8.729  0.0253  0.4237 -0.3454
   16DOPE   H8X 2034   5.043   0.577   8.738 -0.3267  2.9941 -2.8354
   16DOPE   H8Y 2035   5.189   0.481   8.769  2.0678  1.7392  1.2143
   16DOPE   C39 2036   5.194   0.606   8.589 -0.3466  0.1950 -0.2185
   16DOPE   H9X 2037   5.303   0.600   8.576 -0.2230 -0.4368  1.0232
   16DOPE  C310 2038   5.122   0.630   8.479 -0.2890  0.0396  0.3342
   16DOPE  H10X 2039   5.182   0.661   8.392 -0.0352 -0.3065  0.3844
   16DOPE  C311 2040   4.974   0.656   8.470 -0.8126  0.4746  0.3696
   16DOPE  H11X 2041   4.943   0.657   8.363 -1.0275 -0.1352  0.4212
   16DOPE  H11Y 2042   4.923   0.572   8.522  2.2420 -0.9745  1.2406
   16DOPE  C312 2043   4.924   0.781   8.540 -0.8305 -0.2586  0.3850
   16DOPE  H12X 2044   4.964   0.784   8.644  0.5360 -2.5589 -0.0181
   16DOPE  H12Y 2045   4.813   0.778   8.539 -0.9247 -2.0724 -3.6405
   16DOPE  C313 2046   4.967   0.906   8.455 -0.1395 -0.1660 -0.2634
   16DOPE  H13X 2047   5.069   0.929   8.493  0.5194 -1.6489 -1.0764
   16DOPE  H13Y 2048   4.979   0.863   8.354 -1.0558 -3.4193  0.8827
   16DOPE  C314 2049   4.877   1.029   8.462  0.3579 -0.1818 -0.1767
   16DOPE  H14X 2050   4.929   1.113   8.412  0.0293 -0.1668 -0.5009
   16DOPE  H14Y 2051   4.848   1.055   8.566 -0.3996  1.6624 -0.8118
   16DOPE  C315 2052   4.736   1.019   8.399 -0.0496  0.2134  0.0953
   16DOPE  H15X 2053   4.688   1.119   8.396  2.5230  1.4884 -1.3836
   16DOPE  H15Y 2054   4.677   0.961   8.474  3.1154 -0.9320  1.8907
   16DOPE  C316 2055   4.725   0.946   8.265  0.6135 -0.0442  0.3425
   16DOPE  H16X 2056   4.785   0.853   8.271  0.8550 -0.0350 -1.4524
   16DOPE  H16Y 2057   4.743   1.007   8.174 -0.0949  0.0884  0.2821
   16DOPE  C317 2058   4.577   0.902   8.243  0.8160 -0.2642  0.1903
   16DOPE  H17X 2059   4.556   0.833   8.328  0.4084 -1.5335 -0.9162
   16DOPE  H17Y 2060   4.503   0.985   8.243 -1.6118 -2.3089 -0.3124
   16DOPE  C318 2061   4.559   0.827   8.108 -0.0667 -0.1583  0.0862
   16DOPE  H18X 2062   4.639   0.750   8.104  0.1544  0.1242 -2.7947
   16DOPE  H18Y 2063   4.456   0.787   8.106 -0.6553  1.2074  1.1589
   16DOPE  H18Z 2064   4.580   0.895   8.022 -0.0321  2.5065  2.0577
   17DOPE     N 2065   0.771   6.059  10.345  0.5189  0.1249  0.1183
   17DOPE   HN1 2066   0.676   6.016  10.336  0.3969  0.4420 -0.1435
   17DOPE   HN2 2067   0.755   6.158  10.371 -0.6118  0.3906 -1.4054
   17DOPE   HN3 2068   0.818   6.052  10.252  3.2790  0.1740  1.4250
   17DOPE   C12 2069   0.849   5.979  10.442 -0.5728 -0.5513 -0.5428
   17DOPE  H12A 2070   0.822   5.871  10.430 -1.2289 -0.5812  1.0317
   17DOPE  H12B 2071   0.809   6.008  10.541  0.6987 -1.3339  0.2188
   17DOPE   C11 2072   0.995   6.015  10.428  0.4001 -0.2581 -0.0214
   17DOPE  H11A 2073   1.000   6.119  10.467  1.4406  0.2355 -1.3633
   17DOPE  H11B 2074   1.036   6.024  10.325 -0.1310  1.8416 -0.0882
   17DOPE     P 2075   1.136   5.802  10.490  0.0018 -0.1885 -0.1323
   17DOPE   O13 2076   1.083   5.689  10.576 -0.6888 -0.1136  0.3165
   17DOPE   O14 2077   1.285   5.817  10.493  0.2063  0.5232 -0.2017
   17DOPE   O11 2078   1.088   5.776  10.343 -0.6257  0.9228 -0.3649
   17DOPE   O12 2079   1.071   5.938  10.524 -0.9390 -0.0470 -0.0832
   17DOPE    C1 2080   1.065   5.646  10.287 -0.4023 -0.6870 -0.3603
   17DOPE    HA 2081   1.015   5.660  10.189  1.2845  1.2454 -1.0344
   17DOPE    HB 2082   1.007   5.583  10.358 -0.7802  0.6052  0.5200
   17DOPE    C2 2083   1.201   5.565  10.269 -0.0248 -0.0077 -0.2854
   17DOPE    HS 2084   1.267   5.590  10.355  0.1745 -3.0799  0.5508
   17DOPE   O21 2085   1.261   5.608  10.146 -0.0285 -0.5947 -0.3992
   17DOPE   C21 2086   1.386   5.559  10.134 -0.0226 -0.7788 -1.3312
   17DOPE   O22 2087   1.449   5.501  10.219 -0.0390  0.2227  0.6363
   17DOPE   C22 2088   1.431   5.588   9.989 -0.1722 -1.2643 -0.8233
   17DOPE   H2R 2089   1.448   5.697   9.976 -4.6454 -0.2320  0.2740
   17DOPE   H2S 2090   1.336   5.578   9.931  0.0216 -1.1634 -1.1634
   17DOPE    C3 2091   1.159   5.415  10.281 -0.0816  0.0782  0.0674
   17DOPE    HX 2092   1.101   5.409  10.375  1.2145 -3.1038  0.7989
   17DOPE    HY 2093   1.249   5.350  10.291  1.4331  1.5445 -2.7648
   17DOPE   O31 2094   1.071   5.369  10.177  0.4558 -0.1387 -0.2922
   17DOPE   C31 2095   1.138   5.346  10.065 -0.6773  0.4815  0.1781
   17DOPE   O32 2096   1.259   5.324  10.069  0.6940  0.5902 -0.4360
   17DOPE   C32 2097   1.047   5.377   9.950  0.2569 -0.3328 -0.9721
   17DOPE   H2X 2098   0.980   5.289   9.938  2.1298 -2.3513  2.0474
   17DOPE   H2Y 2099   0.986   5.467   9.976  0.0404 -0.6226 -0.4487
   17DOPE   C23 2100   1.548   5.508   9.934  0.5318 -0.2740 -0.1218
   17DOPE   H3R 2101   1.540   5.402   9.966  2.4693 -0.1032  1.0427
   17DOPE   H3S 2102   1.643   5.544   9.977 -0.5945  1.2113  1.2750
   17DOPE   C24 2103   1.566   5.516   9.783 -0.0377  0.3856 -0.4166
   17DOPE   H4R 2104   1.459   5.508   9.753 -0.2424  0.6766  0.2078
   17DOPE   H4S 2105   1.622   5.433   9.736  0.9234  1.0890 -0.5338
   17DOPE   C25 2106   1.624   5.647   9.730  0.8038 -0.1095 -0.4418
   17DOPE   H5R 2107   1.701   5.690   9.798  0.1743  1.4305 -0.6533
   17DOPE   H5S 2108   1.549   5.729   9.730  1.4687  0.5352  1.3411
   17DOPE   C26 2109   1.689   5.639   9.590 -1.0110 -1.0616 -0.3754
   17DOPE   H6R 2110   1.614   5.618   9.511  1.5314 -1.7388 -2.7424
   17DOPE   H6S 2111   1.754   5.548   9.592 -0.0574 -0.4479  3.1092
   17DOPE   C27 2112   1.763   5.766   9.556  1.0948  0.2979 -0.6122
   17DOPE   H7R 2113   1.848   5.785   9.625  0.6893 -3.0470  1.0190
   17DOPE   H7S 2114   1.698   5.855   9.562  0.1149 -0.3980 -0.6135
   17DOPE   C28 2115   1.818   5.764   9.418 -0.2220  0.2972  0.5930
   17DOPE   H8R 2116   1.873   5.860   9.406 -1.0550  0.8201  0.8942
   17DOPE   H8S 2117   1.733   5.762   9.347 -0.7315 -1.6985  1.1790
   17DOPE   C29 2118   1.922   5.657   9.388  0.1148 -0.0675  0.5431
   17DOPE   H9R 2119   1.950   5.595   9.474 -0.8435  1.2341  1.8583
   17DOPE  C210 2120   1.981   5.628   9.268  0.2148  0.0241 -0.3003
   17DOPE  H10R 2121   2.063   5.555   9.271 -0.0054 -0.2020  2.2623
   17DOPE  C211 2122   1.971   5.701   9.139  0.5448 -0.1382 -0.2528
   17DOPE  H11R 2123   2.046   5.782   9.134 -0.4320  0.7123 -1.5969
   17DOPE  H11S 2124   1.870   5.746   9.132 -0.2288 -1.8771 -0.9576
   17DOPE  C212 2125   1.984   5.601   9.023  0.0870 -0.6925  0.1852
   17DOPE  H12R 2126   1.926   5.649   8.941  1.9656 -0.6650 -1.1771
   17DOPE  H12S 2127   1.947   5.500   9.052  3.5440 -1.5879  1.9850
   17DOPE  C213 2128   2.124   5.568   8.990 -0.5925 -0.8486 -0.8714
   17DOPE  H13R 2129   2.180   5.517   9.071  1.6355  0.4303 -1.5082
   17DOPE  H13S 2130   2.171   5.661   8.953 -2.5692  0.5594  0.0120
   17DOPE  C214 2131   2.132   5.475   8.869 -0.1910 -0.1734  0.2865
   17DOPE  H14R 2132   2.095   5.533   8.782  0.8706 -0.6435 -0.5118
   17DOPE  H14S 2133   2.066   5.388   8.888  0.6523 -0.9414 -0.2117
   17DOPE  C215 2134   2.273   5.425   8.835 -0.6400 -0.6643 -0.0772
   17DOPE  H15R 2135   2.268   5.330   8.778 -0.2753 -2.6570  2.9671
   17DOPE  H15S 2136   2.321   5.392   8.930  0.7849 -2.0681 -1.2467
   17DOPE  C216 2137   2.349   5.521   8.746 -0.6591  0.0757  0.1221
   17DOPE  H16R 2138   2.341   5.627   8.778  0.3226  0.0980  0.3258
   17DOPE  H16S 2139   2.298   5.516   8.647 -1.0416  3.0575  0.0872
   17DOPE  C217 2140   2.499   5.485   8.717  0.4915  0.1929 -0.2420
   17DOPE  H17R 2141   2.548   5.500   8.815  0.6281 -0.3928 -0.2206
   17DOPE  H17S 2142   2.533   5.561   8.643 -1.8683 -1.2432 -2.9923
   17DOPE  C218 2143   2.536   5.339   8.673  0.7342  0.2479 -0.2319
   17DOPE  H18R 2144   2.486   5.253   8.723  0.5430 -0.0675 -0.9408
   17DOPE  H18S 2145   2.647   5.338   8.683  0.8449  0.6908 -1.2480
   17DOPE  H18T 2146   2.512   5.326   8.565 -0.2664 -1.4752  0.1565
   17DOPE   C33 2147   1.128   5.385   9.821 -0.5936 -0.2778  0.0562
   17DOPE   H3X 2148   1.162   5.287   9.781 -0.0009 -0.0963  0.0949
   17DOPE   H3Y 2149   1.223   5.439   9.843 -0.3066 -0.8273  0.1993
   17DOPE   C34 2150   1.055   5.464   9.714  0.0230 -0.3080  0.1211
   17DOPE   H4X 2151   0.966   5.405   9.684  1.3669 -2.7096  0.5358
   17DOPE   H4Y 2152   1.034   5.568   9.748  1.5171 -0.1764  0.7574
   17DOPE   C35 2153   1.131   5.474   9.582 -0.4914 -0.7674  1.1339
   17DOPE   H5X 2154   1.058   5.464   9.499 -0.7510  1.4064  1.0430
   17DOPE   H5Y 2155   1.219   5.406   9.575  0.3388  0.3603  0.4576
   17DOPE   C36 2156   1.182   5.615   9.558 -0.7716  0.6332 -0.2447
   17DOPE   H6X 2157   1.239   5.645   9.649  0.4463 -3.3531  0.5066
   17DOPE   H6Y 2158   1.102   5.692   9.555 -1.2381  0.1995  0.6582
   17DOPE   C37 2159   1.272   5.633   9.428  0.5977  0.1693 -0.5273
   17DOPE   H7X 2160   1.358   5.564   9.441  0.5210  0.2995  0.7709
   17DOPE   H7Y 2161   1.220   5.599   9.336  1.8469 -0.8428 -0.8844
   17DOPE   C38 2162   1.331   5.770   9.418  0.1631 -0.6140 -0.4276
   17DOPE   H8X 2163   1.422   5.761   9.355  0.4155 -1.3753  0.0376
   17DOPE   H8Y 2164   1.373   5.809   9.513  0.3082 -1.0031 -0.3301
   17DOPE   C39 2165   1.237   5.874   9.358  0.5771 -0.0899  0.0395
   17DOPE   H9X 2166   1.179   5.921   9.438  2.4284 -0.3393  1.5853
   17DOPE  C310 2167   1.223   5.906   9.226 -0.2417 -0.4606 -0.2467
   17DOPE  H10X 2168   1.143   5.969   9.186 -1.4583 -1.4315  0.5815
   17DOPE  C311 2169   1.316   5.860   9.115  0.7953  0.4588 -0.1657
   17DOPE  H11X 2170   1.384   5.948   9.108 -0.6414  1.6207  0.1328
   17DOPE  H11Y 2171   1.367   5.768   9.152  0.0826  0.4941  0.9577
   17DOPE  C312 2172   1.241   5.834   8.984 -0.1713  0.2610  0.0857
   17DOPE  H12X 2173   1.320   5.799   8.914  1.4004 -2.4134  2.9283
   17DOPE  H12Y 2174   1.203   5.925   8.934  0.9087 -0.2110 -1.7115
   17DOPE  C313 2175   1.134   5.725   8.984 -0.1751  0.8799 -0.1896
   17DOPE  H13X 2176   1.162   5.647   9.058  0.5543  1.1915 -0.1294
   17DOPE  H13Y 2177   1.036   5.756   9.027 -0.3910  0.8578 -0.6519
   17DOPE  C314 2178   1.128   5.650   8.858  0.1449  0.2823  1.1309
   17DOPE  H14X 2179   1.226   5.623   8.813 -0.0990 -0.8716  1.2654
   17DOPE  H14Y 2180   1.084   5.721   8.785 -1.1453 -1.6188 -0.0191
   17DOPE  C315 2181   1.029   5.529   8.879  0.1934 -0.2311  0.2326
   17DOPE  H15X 2182   1.070   5.468   8.962  0.2235 -0.0734  0.3338
   17DOPE  H15Y 2183   1.048   5.481   8.781  1.9976  0.6171  0.1263
   17DOPE  C316 2184   0.886   5.562   8.916  0.6532 -0.4873 -0.2534
   17DOPE  H16X 2185   0.857   5.654   8.861 -0.9479 -0.0771  1.1708
   17DOPE  H16Y 2186   0.883   5.586   9.024  1.7643  0.6683 -0.4676
   17DOPE  C317 2187   0.779   5.458   8.876  0.2592  0.3800 -0.2661
   17DOPE  H17X 2188   0.681   5.511   8.875 -0.0476 -0.1148 -2.3242
   17DOPE  H17Y 2189   0.803   5.427   8.772  0.4857  2.2462 -0.8073
   17DOPE  C318 2190   0.795   5.343   8.977  0.0691  0.2702 -0.3821
   17DOPE  H18X 2191   0.778   5.383   9.079 -1.7281 -1.7410  0.2030
   17DOPE  H18Y 2192   0.712   5.270   8.966 -0.0136  0.4259 -0.8214
   17DOPE  H18Z 2193   0.894   5.293   8.973 -0.4892 -0.8278 -1.2643
   18DOPE     N 2194   3.209   1.842  10.482  0.1442 -0.2862  0.0280
   18DOPE   HN1 2195   3.108   1.825  10.504 -0.2239  0.3719 -1.0772
   18DOPE   HN2 2196   3.271   1.789  10.546  1.3524  1.8829  0.7469
   18DOPE   HN3 2197   3.229   1.940  10.509  1.3230 -0.4298 -0.2963
   18DOPE   C12 2198   3.238   1.800  10.341 -0.2521  0.0055  0.0358
   18DOPE  H12A 2199   3.306   1.877  10.301 -0.8354  0.7205  0.4047
   18DOPE  H12B 2200   3.142   1.794  10.285  0.0238 -1.2162 -0.3494
   18DOPE   C11 2201   3.319   1.657  10.329 -0.3070  0.2585  0.5612
   18DOPE  H11A 2202   3.318   1.612  10.227  0.7484  0.0705  0.6314
   18DOPE  H11B 2203   3.254   1.595  10.396 -1.1132  0.5954  0.1129
   18DOPE     P 2204   3.576   1.701  10.309 -0.0366  0.0465 -0.1957
   18DOPE   O13 2205   3.690   1.670  10.402  0.0051  0.0891  0.1035
   18DOPE   O14 2206   3.563   1.841  10.269 -0.3931 -0.0275  0.3581
   18DOPE   O11 2207   3.586   1.606  10.191  0.3999  0.1041 -0.1859
   18DOPE   O12 2208   3.447   1.653  10.384 -0.0390  0.2131  0.0746
   18DOPE    C1 2209   3.587   1.462  10.206  0.1787 -0.8797 -0.1961
   18DOPE    HA 2210   3.528   1.412  10.126 -0.3804 -3.0958  1.4973
   18DOPE    HB 2211   3.537   1.428  10.299 -1.3673 -1.5461 -1.2328
   18DOPE    C2 2212   3.727   1.408  10.211  0.7729  0.4286 -0.2502
   18DOPE    HS 2213   3.768   1.446  10.307 -1.4923 -1.0320  1.3998
   18DOPE   O21 2214   3.794   1.449  10.092  0.0807 -0.1057 -0.4687
   18DOPE   C21 2215   3.925   1.463  10.106 -0.2802  0.2371  0.4499
   18DOPE   O22 2216   3.991   1.444  10.209  0.1105  0.4741  0.6153
   18DOPE   C22 2217   3.969   1.480   9.959  0.5364  0.4264 -0.3219
   18DOPE   H2R 2218   3.919   1.567   9.913 -1.5048 -0.8495 -0.6051
   18DOPE   H2S 2219   3.934   1.392   9.901 -1.2644  1.0959 -0.3186
   18DOPE    C3 2220   3.735   1.255  10.235  0.0400  0.2582  0.2400
   18DOPE    HX 2221   3.685   1.240  10.333  0.0398  1.1010  0.3806
   18DOPE    HY 2222   3.839   1.221  10.255 -0.1567  0.6227  2.0882
   18DOPE   O31 2223   3.675   1.172  10.130  0.7082  0.1953  0.3443
   18DOPE   C31 2224   3.761   1.128  10.036  1.1102 -0.5707 -0.3284
   18DOPE   O32 2225   3.881   1.163  10.032 -0.4266  0.8368 -0.3518
   18DOPE   C32 2226   3.692   1.042   9.934  0.3684  1.2429  0.0955
   18DOPE   H2X 2227   3.750   0.950   9.911 -0.0914  0.3606  2.2163
   18DOPE   H2Y 2228   3.596   1.002   9.972  0.0237  1.8765 -0.0872
   18DOPE   C23 2229   4.118   1.508   9.956 -0.4995  0.2226  0.2240
   18DOPE   H3R 2230   4.174   1.448  10.031  0.3581  0.1266 -0.4727
   18DOPE   H3S 2231   4.127   1.613   9.991 -0.9645 -0.8577  4.0305
   18DOPE   C24 2232   4.191   1.462   9.836  1.0434  0.2271 -0.1793
   18DOPE   H4R 2233   4.136   1.488   9.744 -0.8405  0.1255  0.8727
   18DOPE   H4S 2234   4.201   1.351   9.839  0.4105  0.1662 -0.2310
   18DOPE   C25 2235   4.331   1.524   9.834 -0.2763 -0.0579 -0.5610
   18DOPE   H5R 2236   4.403   1.497   9.914 -1.4296 -0.1523  0.4895
   18DOPE   H5S 2237   4.309   1.630   9.858 -0.1048 -0.3432  0.9843
   18DOPE   C26 2238   4.394   1.515   9.692 -0.4139 -0.7434 -0.9185
   18DOPE   H6R 2239   4.491   1.569   9.696 -0.0878 -1.3922  1.0895
   18DOPE   H6S 2240   4.322   1.559   9.620  0.2800  0.7329 -0.7360
   18DOPE   C27 2241   4.426   1.368   9.666  0.5845  0.2313  0.2278
   18DOPE   H7R 2242   4.332   1.310   9.660  1.0778 -0.6026  0.4637
   18DOPE   H7S 2243   4.459   1.336   9.767  2.7086 -1.1922 -0.8609
   18DOPE   C28 2244   4.523   1.336   9.554 -0.3764 -0.2976 -0.7395
   18DOPE   H8R 2245   4.515   1.405   9.467 -0.2680 -0.2724 -0.7295
   18DOPE   H8S 2246   4.496   1.239   9.507  1.5401 -1.0630 -0.3678
   18DOPE   C29 2247   4.665   1.339   9.616  0.1657  0.2615 -0.7019
   18DOPE   H9R 2248   4.694   1.410   9.695  3.0129 -1.7340  0.2429
   18DOPE  C210 2249   4.757   1.243   9.609 -0.1372 -0.5260 -0.4579
   18DOPE  H10R 2250   4.854   1.256   9.660 -0.2352 -2.2992  0.2693
   18DOPE  C211 2251   4.761   1.129   9.516 -0.0532 -0.1363  0.0425
   18DOPE  H11R 2252   4.690   1.047   9.541  0.8566 -1.4342 -1.3887
   18DOPE  H11S 2253   4.860   1.081   9.533 -0.5533 -0.2160  3.4643
   18DOPE  C212 2254   4.757   1.155   9.367  0.0640 -0.0248  0.6574
   18DOPE  H12R 2255   4.834   1.234   9.349  0.9517 -0.4797  2.2466
   18DOPE  H12S 2256   4.664   1.200   9.326  1.3961  0.8031 -1.6416
   18DOPE  C213 2257   4.811   1.038   9.288 -0.1021 -0.2906 -0.0974
   18DOPE  H13R 2258   4.762   0.943   9.318  1.9284 -0.7870  2.0100
   18DOPE  H13S 2259   4.920   1.032   9.312 -0.0930  2.4686  0.9954
   18DOPE  C214 2260   4.793   1.057   9.137 -0.3661 -0.1822  0.5299
   18DOPE  H14R 2261   4.687   1.061   9.104  0.0893  1.0080 -0.8553
   18DOPE  H14S 2262   4.837   0.968   9.087 -0.0970 -0.1223  0.6584
   18DOPE  C215 2263   4.868   1.181   9.087  0.0479 -0.1819 -0.0883
   18DOPE  H15R 2264   4.963   1.200   9.141  0.0878  1.3997 -0.6530
   18DOPE  H15S 2265   4.791   1.260   9.101 -0.3233 -0.3994 -0.8243
   18DOPE  C216 2266   4.893   1.169   8.938  0.3176  0.0613 -0.9394
   18DOPE  H16R 2267   4.805   1.116   8.894 -0.6421 -1.6284  2.6224
   18DOPE  H16S 2268   4.979   1.104   8.912  0.1600 -0.2327 -0.7327
   18DOPE  C217 2269   4.913   1.305   8.873  0.3289 -0.2122 -0.1401
   18DOPE  H17R 2270   4.998   1.371   8.901  0.3820  0.7981 -2.4429
   18DOPE  H17S 2271   4.824   1.369   8.892 -0.0534 -0.2777 -1.5280
   18DOPE  C218 2272   4.916   1.283   8.725 -0.1208  0.1577 -0.3540
   18DOPE  H18R 2273   4.817   1.239   8.697 -0.3831  0.1854  0.5162
   18DOPE  H18S 2274   5.002   1.223   8.689  0.7369  0.4055  1.2207
   18DOPE  H18T 2275   4.916   1.384   8.679 -2.6176  1.5518  2.3530
   18DOPE   C33 2276   3.657   1.111   9.799 -1.1650  0.4793 -0.0981
   18DOPE   H3X 2277   3.596   1.203   9.812  1.4924  2.1968  1.2066
   18DOPE   H3Y 2278   3.590   1.034   9.756 -0.4183 -0.0224 -0.3776
   18DOPE   C34 2279   3.787   1.127   9.711 -0.2915  0.5101  0.2452
   18DOPE   H4X 2280   3.865   1.190   9.759 -0.6808 -0.5374  2.3888
   18DOPE   H4Y 2281   3.817   1.022   9.690 -0.0008  1.0714 -2.4607
   18DOPE   C35 2282   3.743   1.191   9.584  0.2892 -0.0528  1.0515
   18DOPE   H5X 2283   3.722   1.300   9.596 -0.4147 -0.0160 -0.2731
   18DOPE   H5Y 2284   3.651   1.146   9.541  0.1803  1.3386 -0.2622
   18DOPE   C36 2285   3.844   1.191   9.472 -0.3298 -0.8572 -0.6342
   18DOPE   H6X 2286   3.775   1.215   9.389 -0.9894  0.1804  0.2021
   18DOPE   H6Y 2287   3.882   1.087   9.461  0.6562 -0.5102 -0.6404
   18DOPE   C37 2288   3.978   1.282   9.471  0.6589  1.1572 -0.2536
   18DOPE   H7X 2289   3.946   1.382   9.508  0.0289  0.7536  0.3263
   18DOPE   H7Y 2290   4.044   1.238   9.549 -1.6018 -0.4347  0.8848
   18DOPE   C38 2291   4.046   1.275   9.332  0.1316 -0.3744 -0.5694
   18DOPE   H8X 2292   3.982   1.320   9.254  0.0665 -0.7377 -0.7286
   18DOPE   H8Y 2293   4.055   1.173   9.288 -2.4549 -0.1115 -1.9035
   18DOPE   C39 2294   4.181   1.345   9.331  0.1070  0.5273  1.0135
   18DOPE   H9X 2295   4.269   1.289   9.366  1.8658  2.2760 -0.3983
   18DOPE  C310 2296   4.197   1.480   9.321 -0.2575  1.0684 -0.8945
   18DOPE  H10X 2297   4.300   1.517   9.334 -0.3302  0.5029  1.8019
   18DOPE  C311 2298   4.086   1.580   9.306 -0.3498 -0.3272  0.4456
   18DOPE  H11X 2299   3.987   1.539   9.335  0.2907 -1.5551  1.0209
   18DOPE  H11Y 2300   4.090   1.675   9.364  0.0042  1.2919 -2.0975
   18DOPE  C312 2301   4.074   1.641   9.161  0.7928  0.4531 -0.0015
   18DOPE  H12X 2302   4.014   1.734   9.169  0.8632  0.4904  0.1044
   18DOPE  H12Y 2303   4.023   1.580   9.084  2.7078  1.5701 -2.2965
   18DOPE  C313 2304   4.200   1.676   9.085 -0.9379 -1.1027  0.1366
   18DOPE  H13X 2305   4.276   1.702   9.162 -1.0113  1.1272 -0.4951
   18DOPE  H13Y 2306   4.234   1.585   9.032 -1.5464 -2.0176  1.2497
   18DOPE  C314 2307   4.186   1.788   8.982  0.8165 -0.4905  0.2798
   18DOPE  H14X 2308   4.288   1.834   8.985  1.6368 -2.2412  0.2440
   18DOPE  H14Y 2309   4.119   1.872   9.011  1.5502  0.5786 -0.9901
   18DOPE  C315 2310   4.163   1.734   8.839 -0.1907 -0.9740  0.5333
   18DOPE  H15X 2311   4.146   1.625   8.855 -0.7954 -1.1913 -1.3147
   18DOPE  H15Y 2312   4.264   1.740   8.793 -0.4420 -1.0900 -0.0452
   18DOPE  C316 2313   4.054   1.799   8.752  0.8504  0.7931 -0.8453
   18DOPE  H16X 2314   3.954   1.791   8.801  1.1849 -1.7972 -0.4606
   18DOPE  H16Y 2315   4.048   1.755   8.650 -1.7042  1.2773 -0.9782
   18DOPE  C317 2316   4.083   1.952   8.730 -0.0054  0.1446  0.5040
   18DOPE  H17X 2317   4.075   2.024   8.815 -0.5175 -1.2858  1.7123
   18DOPE  H17Y 2318   4.186   1.954   8.690 -0.7086  0.5242 -1.4043
   18DOPE  C318 2319   4.000   2.022   8.617  0.1922  0.0838  0.0335
   18DOPE  H18X 2320   4.048   2.122   8.605  0.4779  0.0363  0.7096
   18DOPE  H18Y 2321   3.995   1.973   8.518 -2.8534  1.0927 -0.4191
   18DOPE  H18Z 2322   3.892   2.029   8.644 -0.0073  0.9309 -0.9007
   19DOPE     N 2323   5.559   1.909  10.031  0.5479  0.1882  0.1707
   19DOPE   HN1 2324   5.614   1.873   9.951  3.7573 -1.8120  2.9877
   19DOPE   HN2 2325   5.582   2.007  10.054 -1.7490  1.5264 -2.6225
   19DOPE   HN3 2326   5.594   1.846  10.107  0.3166 -2.2799 -1.6433
   19DOPE   C12 2327   5.412   1.906  10.001  0.1153  0.3952 -0.6480
   19DOPE  H12A 2328   5.395   1.967   9.910  0.1563 -0.2696 -1.1149
   19DOPE  H12B 2329   5.359   1.935  10.094  2.0386 -1.8391  1.2908
   19DOPE   C11 2330   5.374   1.764   9.960 -0.3653 -0.5890 -0.1711
   19DOPE  H11A 2331   5.420   1.740   9.861  1.9527 -0.6523  0.8673
   19DOPE  H11B 2332   5.264   1.761   9.944 -0.5094  0.2554  0.6093
   19DOPE     P 2333   5.324   1.641  10.187 -0.1343 -0.0043 -0.0767
   19DOPE   O13 2334   5.362   1.731  10.295  0.3019 -0.2759  0.4703
   19DOPE   O14 2335   5.329   1.495  10.212  0.1025 -0.1721 -0.2566
   19DOPE   O11 2336   5.185   1.677  10.137 -0.0504 -0.0806  0.7602
   19DOPE   O12 2337   5.412   1.665  10.060  0.0420 -0.2683  0.4379
   19DOPE    C1 2338   5.095   1.586  10.075 -0.2916  0.0421  0.1274
   19DOPE    HA 2339   5.088   1.494  10.137 -2.1730  1.9986  3.0108
   19DOPE    HB 2340   5.150   1.571   9.979  1.5946  0.5564  1.0826
   19DOPE    C2 2341   4.955   1.641  10.047 -0.2528 -0.7688 -0.1873
   19DOPE    HS 2342   4.903   1.561   9.991  1.2679 -1.9231 -0.0163
   19DOPE   O21 2343   4.960   1.762   9.964  0.3831  0.1860 -0.8492
   19DOPE   C21 2344   4.996   1.744   9.842 -0.3965 -0.3643  0.1506
   19DOPE   O22 2345   4.992   1.638   9.778 -0.0449 -0.2109  0.1630
   19DOPE   C22 2346   5.030   1.885   9.784  0.7780  0.2283 -0.4127
   19DOPE   H2R 2347   5.075   1.945   9.866 -0.7760  1.9788 -0.7722
   19DOPE   H2S 2348   4.929   1.923   9.758 -0.0961 -0.7253  1.4337
   19DOPE    C3 2349   4.866   1.673  10.171  0.7060 -0.3124  0.5452
   19DOPE    HX 2350   4.924   1.730  10.246 -2.3759  0.2265  2.7010
   19DOPE    HY 2351   4.845   1.579  10.227  0.4761 -0.3305  0.4288
   19DOPE   O31 2352   4.753   1.747  10.133  0.4246 -0.3501 -0.2656
   19DOPE   C31 2353   4.657   1.694  10.063 -0.6092 -0.1459  0.4332
   19DOPE   O32 2354   4.640   1.575  10.040  0.2390 -0.0741  0.1166
   19DOPE   C32 2355   4.577   1.807   9.994  0.7665 -0.2150 -0.8594
   19DOPE   H2X 2356   4.484   1.763   9.952 -1.8417  2.4880  1.6488
   19DOPE   H2Y 2357   4.539   1.878  10.070  0.8078  0.6236 -1.6029
   19DOPE   C23 2358   5.122   1.881   9.661 -0.4106  0.3722  0.2516
   19DOPE   H3R 2359   5.071   1.833   9.574  0.1974 -1.1090  0.6855
   19DOPE   H3S 2360   5.212   1.821   9.682 -1.5947 -1.8746 -0.7445
   19DOPE   C24 2361   5.167   2.023   9.614  0.0705  0.5633 -0.0866
   19DOPE   H4R 2362   5.226   2.072   9.695  2.9303 -0.9073 -1.1543
   19DOPE   H4S 2363   5.076   2.080   9.586 -0.3918 -0.0660  0.1108
   19DOPE   C25 2364   5.251   2.016   9.487 -0.1598 -0.8858 -0.0339
   19DOPE   H5R 2365   5.235   1.938   9.410  1.0795 -1.7085  0.5236
   19DOPE   H5S 2366   5.358   2.009   9.515  0.3390  0.1246 -1.5654
   19DOPE   C26 2367   5.244   2.153   9.408  0.0865 -0.2469  1.1628
   19DOPE   H6R 2368   5.329   2.163   9.336 -1.1000  6.4676  0.0346
   19DOPE   H6S 2369   5.269   2.232   9.482  1.4172  1.2116 -0.7373
   19DOPE   C27 2370   5.117   2.180   9.325  0.3495  0.1505  0.0689
   19DOPE   H7R 2371   5.123   2.278   9.273  0.3785 -0.1553 -0.5193
   19DOPE   H7S 2372   5.033   2.188   9.398  0.5189  0.7886  0.1918
   19DOPE   C28 2373   5.080   2.070   9.218  0.2322 -0.6203  0.1950
   19DOPE   H8R 2374   5.059   1.976   9.273  1.4788  0.0034  1.8375
   19DOPE   H8S 2375   5.167   2.038   9.158  1.5541 -0.6921  2.0696
   19DOPE   C29 2376   4.962   2.111   9.142 -0.2233  0.8373 -0.0323
   19DOPE   H9R 2377   4.871   2.107   9.204 -1.5614  1.1972 -1.8607
   19DOPE  C210 2378   4.962   2.153   9.007  0.3618 -0.2585 -0.2875
   19DOPE  H10R 2379   4.867   2.176   8.957  1.1684 -0.4927 -1.9745
   19DOPE  C211 2380   5.090   2.142   8.922  0.3807  0.0406  0.0278
   19DOPE  H11R 2381   5.072   2.078   8.833  1.2867  2.2923 -1.8715
   19DOPE  H11S 2382   5.175   2.115   8.988  1.2089  2.3654  0.0190
   19DOPE  C212 2383   5.119   2.279   8.865 -0.4353 -0.1446 -0.0724
   19DOPE  H12R 2384   5.137   2.354   8.944  2.7164 -0.2951 -0.5214
   19DOPE  H12S 2385   5.032   2.325   8.813 -0.2190  3.0678  2.1156
   19DOPE  C213 2386   5.251   2.274   8.774 -0.4186  0.1017 -0.2013
   19DOPE  H13R 2387   5.235   2.210   8.684  1.5998 -1.4303  0.4474
   19DOPE  H13S 2388   5.325   2.214   8.831  0.1710  0.5852 -0.4423
   19DOPE  C214 2389   5.308   2.411   8.744  0.2190 -0.5073  1.1072
   19DOPE  H14R 2390   5.407   2.409   8.694  0.2184  0.4530  1.0470
   19DOPE  H14S 2391   5.328   2.461   8.841  0.7344 -0.3238  0.9108
   19DOPE  C215 2392   5.209   2.499   8.648  0.0135  0.6198 -0.1631
   19DOPE  H15R 2393   5.234   2.605   8.669  0.8643  0.0002  2.2073
   19DOPE  H15S 2394   5.110   2.477   8.694 -0.2852  2.7168  0.2697
   19DOPE  C216 2395   5.212   2.472   8.501  0.5497  0.1276 -0.2619
   19DOPE  H16R 2396   5.109   2.476   8.462 -0.3993 -0.7030  1.9934
   19DOPE  H16S 2397   5.239   2.365   8.488 -0.7109 -0.1904 -0.3613
   19DOPE  C217 2398   5.310   2.568   8.430 -0.0007 -0.0526 -0.1474
   19DOPE  H17R 2399   5.410   2.537   8.468 -2.1255 -3.9099  3.0089
   19DOPE  H17S 2400   5.297   2.677   8.450 -1.0201 -0.0492 -0.7695
   19DOPE  C218 2401   5.324   2.532   8.283 -0.0451  0.2336 -0.3318
   19DOPE  H18R 2402   5.400   2.600   8.240 -0.5136  3.8877  3.9273
   19DOPE  H18S 2403   5.217   2.542   8.254 -0.7318 -1.2658  1.4758
   19DOPE  H18T 2404   5.342   2.423   8.268  1.3873  0.6831 -2.2536
   19DOPE   C33 2405   4.655   1.888   9.896  0.5690 -0.2862  0.2264
   19DOPE   H3X 2406   4.731   1.830   9.839 -0.4949 -1.2265 -0.2581
   19DOPE   H3Y 2407   4.715   1.960   9.956  0.7038 -1.1642  1.1846
   19DOPE   C34 2408   4.566   1.968   9.791  0.1991 -0.3099 -0.3048
   19DOPE   H4X 2409   4.487   1.901   9.749  1.3279 -1.5055 -0.6046
   19DOPE   H4Y 2410   4.521   2.058   9.838  1.6385  0.2129  0.0943
   19DOPE   C35 2411   4.652   2.003   9.668 -0.2715  0.5257 -0.0785
   19DOPE   H5X 2412   4.751   2.029   9.712  0.7845 -2.7378 -0.2447
   19DOPE   H5Y 2413   4.614   2.088   9.607  0.9314  0.2983 -1.2021
   19DOPE   C36 2414   4.652   1.886   9.570  0.2222 -0.0878 -0.5242
   19DOPE   H6X 2415   4.544   1.879   9.544 -0.1788  0.8033  0.7636
   19DOPE   H6Y 2416   4.679   1.789   9.616 -0.2554  0.5451  1.2111
   19DOPE   C37 2417   4.742   1.916   9.449 -0.6878  0.0023 -0.3261
   19DOPE   H7X 2418   4.730   2.018   9.406 -0.1390  0.6719  1.0365
   19DOPE   H7Y 2419   4.845   1.917   9.490  0.4288 -0.3667 -2.9109
   19DOPE   C38 2420   4.717   1.813   9.338 -0.4950  0.3201 -0.1439
   19DOPE   H8X 2421   4.776   1.840   9.247 -0.2973 -1.2047 -0.4882
   19DOPE   H8Y 2422   4.617   1.852   9.311  1.3122  2.7892 -4.3063
   19DOPE   C39 2423   4.732   1.673   9.375  0.7395  0.1841  0.5721
   19DOPE   H9X 2424   4.806   1.652   9.454 -0.6343  0.7761  2.0854
   19DOPE  C310 2425   4.670   1.568   9.312  0.2710 -0.4247  0.6364
   19DOPE  H10X 2426   4.686   1.465   9.348 -2.5096 -1.1973 -0.0768
   19DOPE  C311 2427   4.563   1.579   9.202 -0.9824  0.4334 -0.2187
   19DOPE  H11X 2428   4.484   1.507   9.231  0.5619 -1.0245  0.6228
   19DOPE  H11Y 2429   4.520   1.681   9.193  0.8392  1.2569 -0.1159
   19DOPE  C312 2430   4.626   1.530   9.066  0.5629 -1.0086 -0.1733
   19DOPE  H12X 2431   4.669   1.430   9.089  3.7864  0.3734  0.3503
   19DOPE  H12Y 2432   4.700   1.598   9.020 -2.2221  1.7940 -0.8957
   19DOPE  C313 2433   4.507   1.512   8.961 -0.0344 -0.7834 -0.5943
   19DOPE  H13X 2434   4.414   1.462   8.996 -1.0563  2.0006  1.0282
   19DOPE  H13Y 2435   4.463   1.613   8.941  0.1815 -0.9424 -1.9221
   19DOPE  C314 2436   4.554   1.466   8.823 -0.1985 -0.7315  0.7146
   19DOPE  H14X 2437   4.614   1.373   8.832  0.8780  0.1479  3.4515
   19DOPE  H14Y 2438   4.624   1.544   8.786 -0.0822 -0.1073  2.1983
   19DOPE  C315 2439   4.443   1.442   8.717 -0.0739 -0.2673 -0.7810
   19DOPE  H15X 2440   4.494   1.436   8.618 -0.0366  2.3639 -0.9963
   19DOPE  H15Y 2441   4.378   1.531   8.703 -0.0811 -0.3223 -1.1180
   19DOPE  C316 2442   4.354   1.314   8.737  0.7096  0.0774  0.4741
   19DOPE  H16X 2443   4.260   1.330   8.681 -0.5397 -0.2267  2.3949
   19DOPE  H16Y 2444   4.321   1.303   8.843 -0.5599 -2.4338 -0.1029
   19DOPE  C317 2445   4.420   1.184   8.685 -0.5421  1.0930  0.2198
   19DOPE  H17X 2446   4.526   1.187   8.717 -0.0955 -0.3472 -1.0253
   19DOPE  H17Y 2447   4.388   1.094   8.742 -0.3843  0.1668 -1.1044
   19DOPE  C318 2448   4.405   1.159   8.540  0.7050 -0.4275 -0.6071
   19DOPE  H18X 2449   4.470   1.076   8.504 -0.5114 -0.9302 -1.7035
   19DOPE  H18Y 2450   4.305   1.144   8.495  0.9892 -0.7355 -1.1402
   19DOPE  H18Z 2451   4.446   1.248   8.486  0.5478 -0.6441 -1.0865
   20DOPE     N 2452   5.441   6.021  10.144 -0.1420  0.0571 -0.0741
   20DOPE   HN1 2453   5.509   6.067  10.207  0.6214  0.0150 -0.8581
   20DOPE   HN2 2454   5.344   6.058  10.154 -0.2810  0.5805 -2.5793
   20DOPE   HN3 2455   5.426   5.921  10.170  1.9362 -0.3246 -0.1961
   20DOPE   C12 2456   5.468   6.033   9.996 -0.1530 -0.3263 -0.4974
   20DOPE  H12A 2457   5.428   5.948   9.937  0.5669 -0.7653 -0.3668
   20DOPE  H12B 2458   5.577   6.046   9.981 -0.3395  1.4868 -0.4617
   20DOPE   C11 2459   5.408   6.165   9.943 -0.4033  0.4286  0.1958
   20DOPE  H11A 2460   5.415   6.167   9.832  2.8903 -1.1777  0.2522
   20DOPE  H11B 2461   5.481   6.244   9.971  0.2699  0.9982 -2.8160
   20DOPE     P 2462   5.162   6.220   9.906  0.1521 -0.1473 -0.0552
   20DOPE   O13 2463   5.150   6.362   9.869  0.0345  0.0622  0.1590
   20DOPE   O14 2464   5.042   6.157   9.958  0.2467  0.1342  0.0525
   20DOPE   O11 2465   5.202   6.144   9.763 -0.3706 -0.1123 -0.0871
   20DOPE   O12 2466   5.280   6.198  10.000 -0.1757 -0.4160 -0.7568
   20DOPE    C1 2467   5.180   6.004   9.743 -0.4882  0.4958  0.6954
   20DOPE    HA 2468   5.070   5.989   9.746 -0.6600  1.7100  0.7073
   20DOPE    HB 2469   5.239   5.946   9.817  1.8411 -0.0824 -1.4709
   20DOPE    C2 2470   5.214   5.962   9.592 -0.0975 -0.2682  0.7143
   20DOPE    HS 2471   5.127   5.910   9.548 -0.8767  1.0775  0.6042
   20DOPE   O21 2472   5.324   5.884   9.574 -0.2688 -0.0249  0.0277
   20DOPE   C21 2473   5.345   5.776   9.644  0.4437  0.6370 -0.3655
   20DOPE   O22 2474   5.258   5.716   9.709 -0.2986  0.5385 -0.1062
   20DOPE   C22 2475   5.491   5.731   9.612 -0.1977  0.3773 -0.2467
   20DOPE   H2R 2476   5.533   5.679   9.701 -1.9997  1.0480  1.0676
   20DOPE   H2S 2477   5.542   5.823   9.579 -3.0342  1.5062 -1.8872
   20DOPE    C3 2478   5.220   6.079   9.489  0.7580  0.0164 -0.3146
   20DOPE    HX 2479   5.282   6.166   9.518  1.9764  1.3498 -5.7377
   20DOPE    HY 2480   5.117   6.122   9.488 -0.0082 -1.6988  0.0689
   20DOPE   O31 2481   5.256   6.030   9.352  1.4712 -0.9909 -0.3666
   20DOPE   C31 2482   5.372   6.078   9.307 -0.0844  0.1133 -0.5359
   20DOPE   O32 2483   5.449   6.148   9.367  0.7430  0.5162  0.4318
   20DOPE   C32 2484   5.390   6.024   9.166  0.1902  0.3451  0.5656
   20DOPE   H2X 2485   5.393   5.913   9.169 -0.9737  0.2926  0.1895
   20DOPE   H2Y 2486   5.304   6.069   9.112 -0.4841  0.7279  1.9044
   20DOPE   C23 2487   5.489   5.632   9.497  0.4434  0.0096 -0.2186
   20DOPE   H3R 2488   5.424   5.545   9.520 -0.1807  0.2078 -1.1491
   20DOPE   H3S 2489   5.591   5.594   9.475 -0.1834 -1.6328 -0.4004
   20DOPE   C24 2490   5.446   5.690   9.362 -0.8156 -0.0939  0.3177
   20DOPE   H4R 2491   5.509   5.781   9.348  1.7678 -2.0584 -1.8253
   20DOPE   H4S 2492   5.337   5.710   9.359 -1.0159 -1.2644 -1.5831
   20DOPE   C25 2493   5.470   5.584   9.253  0.1768  0.6964  0.6192
   20DOPE   H5R 2494   5.417   5.488   9.270  3.9462 -1.8991 -1.0787
   20DOPE   H5S 2495   5.571   5.539   9.244 -0.0175  0.4611 -0.6080
   20DOPE   C26 2496   5.421   5.633   9.108  0.3089  0.1732  0.4515
   20DOPE   H6R 2497   5.446   5.741   9.102 -3.1198  1.1096  0.6006
   20DOPE   H6S 2498   5.310   5.626   9.105  0.0614  2.9055  0.5476
   20DOPE   C27 2499   5.497   5.569   8.985  0.5579 -0.8247 -0.0492
   20DOPE   H7R 2500   5.603   5.598   9.000 -0.3994  1.3321  4.1608
   20DOPE   H7S 2501   5.447   5.615   8.898  0.7537  0.4187  0.4798
   20DOPE   C28 2502   5.476   5.423   8.995 -0.0328  0.5071  0.0509
   20DOPE   H8R 2503   5.367   5.412   8.975  0.0841 -1.0279  0.1818
   20DOPE   H8S 2504   5.502   5.384   9.096 -0.7622  0.2335  0.1396
   20DOPE   C29 2505   5.567   5.360   8.889  0.2998 -0.5519 -0.3925
   20DOPE   H9R 2506   5.672   5.346   8.917  0.4603 -1.0254 -1.2140
   20DOPE  C210 2507   5.531   5.322   8.769 -0.2432  0.2948 -1.1368
   20DOPE  H10R 2508   5.605   5.278   8.701 -1.3366 -0.4666 -1.8811
   20DOPE  C211 2509   5.390   5.327   8.715 -0.0101 -0.1352 -0.1649
   20DOPE  H11R 2510   5.323   5.283   8.792  1.2744 -0.8620  0.5693
   20DOPE  H11S 2511   5.386   5.261   8.626 -0.8165  0.2156 -0.3996
   20DOPE  C212 2512   5.333   5.459   8.653 -0.2600 -0.5810  0.2775
   20DOPE  H12R 2513   5.405   5.494   8.576 -2.2751 -1.3324 -2.0473
   20DOPE  H12S 2514   5.339   5.532   8.737  0.4019  1.0354 -1.1333
   20DOPE  C213 2515   5.197   5.454   8.589  0.4562 -0.3338 -0.0468
   20DOPE  H13R 2516   5.186   5.555   8.543  0.0565 -0.7892 -0.9936
   20DOPE  H13S 2517   5.125   5.446   8.673  0.0882  0.6511 -0.2532
   20DOPE  C214 2518   5.179   5.340   8.492  0.1867  0.8034 -0.0146
   20DOPE  H14R 2519   5.183   5.243   8.546  0.0961 -1.4903 -3.7651
   20DOPE  H14S 2520   5.258   5.334   8.413  0.6755  4.7756  0.0151
   20DOPE  C215 2521   5.048   5.336   8.412  0.6497  0.1071 -0.0986
   20DOPE  H15R 2522   5.052   5.424   8.343 -1.0439  1.1302  1.0390
   20DOPE  H15S 2523   4.965   5.368   8.478 -0.0393  0.7594 -1.2346
   20DOPE  C216 2524   5.001   5.200   8.353  0.2501  0.4472 -0.0835
   20DOPE  H16R 2525   4.893   5.212   8.330  0.2226  0.2451 -0.0610
   20DOPE  H16S 2526   5.019   5.125   8.433  3.3484  2.9168  1.7887
   20DOPE  C217 2527   5.071   5.151   8.221 -0.3964 -0.0555 -0.8143
   20DOPE  H17R 2528   5.182   5.157   8.221 -0.3619  0.4063  1.6278
   20DOPE  H17S 2529   5.027   5.224   8.149  0.7442  0.9397 -0.5348
   20DOPE  C218 2530   5.021   5.015   8.176 -1.1049  0.1461 -0.4650
   20DOPE  H18R 2531   4.911   5.012   8.190 -1.2058  2.0636 -0.5596
   20DOPE  H18S 2532   5.085   4.933   8.216  0.3349  0.6015 -1.7448
   20DOPE  H18T 2533   5.026   5.003   8.066  1.4476 -0.1664 -0.3913
   20DOPE   C33 2534   5.509   6.077   9.092 -0.1706  0.6411  0.1349
   20DOPE   H3X 2535   5.512   6.187   9.108  1.1102  0.5825  0.4500
   20DOPE   H3Y 2536   5.493   6.061   8.983  0.8776  3.4285 -0.5349
   20DOPE   C34 2537   5.636   6.001   9.124 -0.2809 -0.6408  0.1365
   20DOPE   H4X 2538   5.657   6.010   9.232 -0.4163  0.3776  0.0803
   20DOPE   H4Y 2539   5.621   5.894   9.097 -1.7244 -0.1252 -1.3030
   20DOPE   C35 2540   5.769   6.038   9.046  0.5245 -0.4426 -0.2969
   20DOPE   H5X 2541   5.741   6.035   8.939 -1.0869 -1.0937  0.1120
   20DOPE   H5Y 2542   5.844   5.959   9.070 -0.5232 -1.5455 -0.5359
   20DOPE   C36 2543   5.810   6.180   9.087 -0.3893 -0.8006  0.2555
   20DOPE   H6X 2544   5.822   6.191   9.197 -0.6146  0.5083  0.1700
   20DOPE   H6Y 2545   5.733   6.250   9.048  0.6136  0.1302 -0.0943
   20DOPE   C37 2546   5.948   6.219   9.019 -0.1573 -0.3336 -0.0314
   20DOPE   H7X 2547   5.976   6.319   9.057 -2.9755  1.3654 -2.0101
   20DOPE   H7Y 2548   6.024   6.149   9.059 -1.4932 -1.0817  1.2948
   20DOPE   C38 2549   5.943   6.221   8.863  0.0919 -0.3182 -0.6029
   20DOPE   H8X 2550   5.840   6.258   8.843 -1.1567 -3.5246 -0.6251
   20DOPE   H8Y 2551   5.942   6.116   8.827  0.1721 -0.6760  0.4019
   20DOPE   C39 2552   6.062   6.300   8.810 -0.5197 -0.1634  0.1944
   20DOPE   H9X 2553   6.066   6.404   8.846  1.0281  0.3552 -1.3258
   20DOPE  C310 2554   6.160   6.253   8.730 -0.2201  0.2420  0.2342
   20DOPE  H10X 2555   6.235   6.329   8.703 -0.9931  0.9380 -0.0186
   20DOPE  C311 2556   6.170   6.118   8.659 -0.0004 -0.9150  0.0659
   20DOPE  H11X 2557   6.084   6.049   8.676  1.1820 -2.5567 -0.3251
   20DOPE  H11Y 2558   6.176   6.129   8.549  1.6003 -1.2196  0.1029
   20DOPE  C312 2559   6.286   6.028   8.678  0.2049 -0.4900  0.2441
   20DOPE  H12X 2560   6.380   6.068   8.634  0.2275 -0.6253  0.1678
   20DOPE  H12Y 2561   6.262   5.934   8.623  0.0372 -1.1230  1.3643
   20DOPE  C313 2562   6.314   5.991   8.825 -0.3297 -0.3206  0.5162
   20DOPE  H13X 2563   6.414   5.943   8.830 -0.8401 -1.3388  1.3533
   20DOPE  H13Y 2564   6.306   6.088   8.879 -1.1192 -0.4897  0.7107
   20DOPE  C314 2565   6.219   5.880   8.879 -1.0807  0.2421 -0.7075
   20DOPE  H14X 2566   6.245   5.784   8.831 -2.0420 -0.5272  0.2577
   20DOPE  H14Y 2567   6.114   5.902   8.851 -2.1995 -0.2261  2.6947
   20DOPE  C315 2568   6.235   5.857   9.030 -0.1333  0.7194  0.2135
   20DOPE  H15X 2569   6.142   5.802   9.056 -0.4577  0.7016 -0.9351
   20DOPE  H15Y 2570   6.232   5.945   9.097  1.6714  0.2962  0.9281
   20DOPE  C316 2571   6.347   5.762   9.061 -0.4604 -0.3565 -1.0947
   20DOPE  H16X 2572   6.369   5.680   8.988 -0.5116 -0.8645 -0.5440
   20DOPE  H16Y 2573   6.316   5.701   9.148 -1.7684  0.2452 -1.1260
   20DOPE  C317 2574   6.476   5.835   9.099 -0.4538  0.4934 -0.4446
   20DOPE  H17X 2575   6.511   5.886   9.007  2.0163  0.6719  0.5338
   20DOPE  H17Y 2576   6.452   5.924   9.160 -0.2991  0.5895 -0.5225
   20DOPE  C318 2577   6.579   5.735   9.148 -0.5878  0.3015 -0.7247
   20DOPE  H18X 2578   6.571   5.651   9.076 -1.3141 -1.1174  0.9374
   20DOPE  H18Y 2579   6.686   5.768   9.149 -0.3499 -0.4598 -0.7792
   20DOPE  H18Z 2580   6.571   5.701   9.254  0.1782 -0.1640 -0.8061
   21DOPE     N 2581   2.917   5.454  10.365  0.5880  0.6073  0.6202
   21DOPE   HN1 2582   2.930   5.549  10.325 -4.3552  1.6468  0.8163
   21DOPE   HN2 2583   3.009   5.406  10.367 -0.0461 -0.6427  0.9810
   21DOPE   HN3 2584   2.860   5.405  10.293  1.1946 -1.0573  1.2230
   21DOPE   C12 2585   2.859   5.471  10.497  0.1238  0.2598  0.3189
   21DOPE  H12A 2586   2.901   5.564  10.541 -1.5345  0.9675  0.4823
   21DOPE  H12B 2587   2.871   5.376  10.554 -0.6373 -0.7484 -1.1285
   21DOPE   C11 2588   2.707   5.482  10.497 -0.0868 -0.2800  1.2401
   21DOPE  H11A 2589   2.667   5.485  10.600 -1.3890  0.0959  0.7521
   21DOPE  H11B 2590   2.662   5.387  10.460 -1.5515  0.2112  1.6737
   21DOPE     P 2591   2.516   5.641  10.409  0.1389 -0.4592  0.0034
   21DOPE   O13 2592   2.522   5.794  10.394  0.1014 -0.2210  0.5492
   21DOPE   O14 2593   2.438   5.593  10.527 -0.3358 -0.2652  0.1713
   21DOPE   O11 2594   2.446   5.579  10.285  0.3024 -0.0140  0.1993
   21DOPE   O12 2595   2.666   5.589  10.413 -0.1193 -0.9940  0.1499
   21DOPE    C1 2596   2.462   5.445  10.240 -0.1395  0.0820  0.1787
   21DOPE    HA 2597   2.465   5.369  10.321 -0.5064 -0.8897 -0.7055
   21DOPE    HB 2598   2.562   5.448  10.191 -0.4390  0.7242 -0.4050
   21DOPE    C2 2599   2.347   5.407  10.134 -0.0917  0.0058  0.0196
   21DOPE    HS 2600   2.273   5.337  10.178  0.7981  0.3676  2.2259
   21DOPE   O21 2601   2.399   5.367  10.008 -0.1259  0.1305  0.1578
   21DOPE   C21 2602   2.439   5.238   9.999  0.1563  0.4915 -0.7643
   21DOPE   O22 2603   2.429   5.157  10.088  0.5284  0.1552 -0.6386
   21DOPE   C22 2604   2.498   5.209   9.861 -0.6418  0.2978 -0.0737
   21DOPE   H2R 2605   2.601   5.251   9.854 -1.2287  1.9142  0.5422
   21DOPE   H2S 2606   2.450   5.283   9.795 -1.4321 -1.1341 -1.1642
   21DOPE    C3 2607   2.264   5.540  10.101  0.7650  0.3193 -0.1692
   21DOPE    HX 2608   2.341   5.604  10.053  2.1952 -1.2568 -0.0498
   21DOPE    HY 2609   2.223   5.584  10.194 -2.1573  0.0583 -1.2213
   21DOPE   O31 2610   2.161   5.515  10.001 -0.2759 -0.4511 -0.1610
   21DOPE   C31 2611   2.051   5.463  10.049  0.2477 -0.2918 -0.0767
   21DOPE   O32 2612   2.021   5.452  10.164  0.0238 -0.4832 -0.0787
   21DOPE   C32 2613   1.965   5.422   9.919  0.0607  0.4951  0.0554
   21DOPE   H2X 2614   1.894   5.346   9.956  0.4394 -1.1934 -2.3885
   21DOPE   H2Y 2615   1.912   5.515   9.891 -0.2877  0.1977 -0.2830
   21DOPE   C23 2616   2.500   5.065   9.799 -0.1597 -0.1145  0.1907
   21DOPE   H3R 2617   2.401   5.015   9.802 -1.3155  1.7827 -2.3395
   21DOPE   H3S 2618   2.576   5.004   9.852  1.3842  3.0740  1.9422
   21DOPE   C24 2619   2.552   5.065   9.654  0.6499  0.2953 -0.1110
   21DOPE   H4R 2620   2.658   5.100   9.661  0.5047  2.2061 -4.2182
   21DOPE   H4S 2621   2.492   5.127   9.584  0.6244 -0.6593 -0.9584
   21DOPE   C25 2622   2.566   4.925   9.600 -0.1042 -0.2496 -0.2349
   21DOPE   H5R 2623   2.470   4.869   9.606  0.1681 -0.7028 -0.0808
   21DOPE   H5S 2624   2.621   4.872   9.680 -1.5939 -1.2822  0.1577
   21DOPE   C26 2625   2.633   4.905   9.464  0.2428  0.6116 -0.1330
   21DOPE   H6R 2626   2.726   4.961   9.441  0.5160 -0.1244 -0.8545
   21DOPE   H6S 2627   2.565   4.946   9.386 -2.2858  0.2302  1.7552
   21DOPE   C27 2628   2.666   4.760   9.428 -0.1101 -0.0166  0.0975
   21DOPE   H7R 2629   2.573   4.700   9.423  0.3179 -0.7886  1.1253
   21DOPE   H7S 2630   2.722   4.721   9.515 -0.8238 -0.2009  0.4765
   21DOPE   C28 2631   2.750   4.751   9.297  0.0352  0.2660 -0.1766
   21DOPE   H8R 2632   2.834   4.824   9.299  0.6175 -0.3963  1.2680
   21DOPE   H8S 2633   2.683   4.771   9.212 -0.2704 -0.7408 -0.1856
   21DOPE   C29 2634   2.809   4.615   9.277  0.3339  0.0114  0.2813
   21DOPE   H9R 2635   2.906   4.604   9.328  0.1068 -0.5797  0.5962
   21DOPE  C210 2636   2.765   4.518   9.198 -0.0020  0.5893  0.3701
   21DOPE  H10R 2637   2.833   4.431   9.192  2.2608  2.3164 -0.4493
   21DOPE  C211 2638   2.637   4.518   9.111 -0.3397  0.1626 -0.0774
   21DOPE  H11R 2639   2.572   4.608   9.121  0.5571  0.8613 -0.3689
   21DOPE  H11S 2640   2.585   4.424   9.140  0.4201 -1.0194 -2.3217
   21DOPE  C212 2641   2.663   4.487   8.953  0.3122  0.4375  0.0556
   21DOPE  H12R 2642   2.703   4.583   8.915  2.2561 -0.5227 -0.4343
   21DOPE  H12S 2643   2.561   4.465   8.914 -0.9008  2.0230  2.1300
   21DOPE  C213 2644   2.763   4.375   8.926 -0.0710  0.5338 -0.3490
   21DOPE  H13R 2645   2.718   4.291   8.983 -2.4666  1.9778  0.0230
   21DOPE  H13S 2646   2.858   4.422   8.960 -0.4796  2.4845 -1.7413
   21DOPE  C214 2647   2.778   4.327   8.780 -0.5666 -0.0299  0.3270
   21DOPE  H14R 2648   2.710   4.243   8.758 -0.1151 -0.8108  1.7763
   21DOPE  H14S 2649   2.882   4.289   8.773 -0.1188  0.9475  1.3110
   21DOPE  C215 2650   2.771   4.443   8.683  0.2666 -0.5534  0.8296
   21DOPE  H15R 2651   2.828   4.526   8.729  0.5083 -0.5965  0.6097
   21DOPE  H15S 2652   2.665   4.478   8.675  1.1481  2.3499  0.6904
   21DOPE  C216 2653   2.816   4.427   8.540 -0.6429  0.0254 -0.3876
   21DOPE  H16R 2654   2.763   4.357   8.473 -0.2570 -0.2297 -0.4283
   21DOPE  H16S 2655   2.923   4.397   8.547 -1.0585 -1.4855 -0.2418
   21DOPE  C217 2656   2.821   4.558   8.457 -0.4029  0.2380  0.5650
   21DOPE  H17R 2657   2.885   4.540   8.369 -1.3401  0.2413 -0.1346
   21DOPE  H17S 2658   2.869   4.635   8.521  0.4266  2.0665 -2.0956
   21DOPE  C218 2659   2.682   4.595   8.414 -0.2678 -0.9790  0.2186
   21DOPE  H18R 2660   2.680   4.690   8.355 -0.2498 -0.9614  0.2460
   21DOPE  H18S 2661   2.618   4.613   8.503 -0.8855  0.6388 -0.5013
   21DOPE  H18T 2662   2.617   4.515   8.373 -2.2817  0.3944  0.5840
   21DOPE   C33 2663   2.044   5.340   9.799 -1.0237 -0.0901  0.3403
   21DOPE   H3X 2664   1.983   5.273   9.735  1.0889 -2.3514  0.5873
   21DOPE   H3Y 2665   2.128   5.285   9.845 -0.6167 -0.2310 -0.5639
   21DOPE   C34 2666   2.103   5.447   9.707 -0.5923 -0.7691  0.4131
   21DOPE   H4X 2667   2.016   5.493   9.655 -0.7614 -0.3195  1.0816
   21DOPE   H4Y 2668   2.154   5.521   9.772 -0.4791 -1.9329  1.6846
   21DOPE   C35 2669   2.209   5.398   9.614 -0.0039 -0.4191  0.4484
   21DOPE   H5X 2670   2.178   5.318   9.542  1.0689 -2.0879  1.7548
   21DOPE   H5Y 2671   2.285   5.354   9.683 -0.1706  0.4670  1.2055
   21DOPE   C36 2672   2.266   5.509   9.523 -0.3660 -0.4159  0.2927
   21DOPE   H6X 2673   2.292   5.597   9.585  0.3952 -0.2423 -0.2548
   21DOPE   H6Y 2674   2.201   5.540   9.438 -1.5621 -0.2657  1.2474
   21DOPE   C37 2675   2.398   5.445   9.469 -0.6336 -0.5067  0.2594
   21DOPE   H7X 2676   2.463   5.404   9.549  0.1726  0.5317  0.1578
   21DOPE   H7Y 2677   2.378   5.367   9.393  0.8329  0.7621 -1.5134
   21DOPE   C38 2678   2.480   5.547   9.386  0.7690 -0.0801 -0.6255
   21DOPE   H8X 2679   2.588   5.520   9.387  1.1404  1.2441 -2.0773
   21DOPE   H8Y 2680   2.462   5.645   9.435  1.1431  0.9925 -2.5266
   21DOPE   C39 2681   2.447   5.563   9.243 -0.2543 -0.4759  0.6003
   21DOPE   H9X 2682   2.375   5.646   9.230 -0.8319 -0.5144  3.0120
   21DOPE  C310 2683   2.507   5.518   9.139 -0.6473 -0.5169 -0.8509
   21DOPE  H10X 2684   2.463   5.549   9.043  0.8106  0.2367 -1.3170
   21DOPE  C311 2685   2.622   5.420   9.133 -0.1176 -0.0778 -0.4349
   21DOPE  H11X 2686   2.695   5.444   9.052  0.7472 -0.2270  0.2837
   21DOPE  H11Y 2687   2.679   5.419   9.228 -1.9816 -1.2792  0.7318
   21DOPE  C312 2688   2.563   5.282   9.107  0.2151  1.0279  0.1664
   21DOPE  H12X 2689   2.494   5.274   9.021  0.8898 -0.0270 -0.2961
   21DOPE  H12Y 2690   2.498   5.246   9.190  0.6161 -1.3676 -0.4894
   21DOPE  C313 2691   2.670   5.178   9.082  0.3873  0.2572  1.0282
   21DOPE  H13X 2692   2.752   5.215   9.146  1.5932  1.1687 -0.9464
   21DOPE  H13Y 2693   2.641   5.077   9.120  3.8678 -1.2750 -0.0008
   21DOPE  C314 2694   2.719   5.170   8.935  0.4230 -0.4920 -0.3870
   21DOPE  H14X 2695   2.751   5.268   8.893  0.0738 -0.5726 -0.8510
   21DOPE  H14Y 2696   2.635   5.137   8.870  0.6994  1.5900 -1.9205
   21DOPE  C315 2697   2.829   5.068   8.931 -0.0031  0.3594  0.4549
   21DOPE  H15X 2698   2.784   4.970   8.959 -1.1515  0.9318  0.6816
   21DOPE  H15Y 2699   2.911   5.089   9.003 -0.0849 -3.4225  1.8443
   21DOPE  C316 2700   2.887   5.045   8.794 -0.2336 -0.0162  0.4424
   21DOPE  H16X 2701   2.814   5.058   8.712  0.0419  2.2994  0.5081
   21DOPE  H16Y 2702   2.926   4.943   8.771  0.4809  0.4214 -0.3360
   21DOPE  C317 2703   2.996   5.140   8.750 -0.0344 -0.0284  0.3318
   21DOPE  H17X 2704   2.957   5.239   8.780 -0.5712 -0.3907  0.8617
   21DOPE  H17Y 2705   3.090   5.120   8.806 -1.4333  0.6771  3.1058
   21DOPE  C318 2706   3.021   5.146   8.597 -0.4676  0.1080  0.3041
   21DOPE  H18X 2707   2.940   5.197   8.540 -0.8656 -0.4146  0.3991
   21DOPE  H18Y 2708   3.117   5.198   8.575 -1.3562  0.6785 -2.7462
   21DOPE  H18Z 2709   3.025   5.051   8.540 -1.5588  1.1714 -1.6587
   22DOPE     N 2710   7.270   3.493  10.195  0.3341  0.2019 -0.2149
   22DOPE   HN1 2711   7.325   3.487  10.283  1.4201  0.8044 -0.8376
   22DOPE   HN2 2712   7.277   3.404  10.141 -2.3045  0.7222 -1.5638
   22DOPE   HN3 2713   7.319   3.571  10.148  0.2000  0.7588  0.5527
   22DOPE   C12 2714   7.133   3.543  10.225  0.5318 -0.0096 -0.0840
   22DOPE  H12A 2715   7.137   3.635  10.288 -1.2521  0.3488 -0.4140
   22DOPE  H12B 2716   7.078   3.462  10.278 -0.1047  0.3636 -0.1621
   22DOPE   C11 2717   7.051   3.576  10.094 -0.1150  0.0448  0.0315
   22DOPE  H11A 2718   6.944   3.598  10.115  0.1217  1.1353  0.1493
   22DOPE  H11B 2719   7.049   3.484  10.031 -0.2797  1.4557 -2.1150
   22DOPE     P 2720   7.092   3.834  10.090 -0.0832  0.0372 -0.0961
   22DOPE   O13 2721   7.211   3.871  10.173  0.4198  0.4305 -0.0906
   22DOPE   O14 2722   6.963   3.836  10.163  0.2434 -0.2833 -0.1853
   22DOPE   O11 2723   7.081   3.931   9.971  0.1442 -0.3531  1.1582
   22DOPE   O12 2724   7.110   3.690  10.030 -0.1244 -0.2437 -0.2315
   22DOPE    C1 2725   6.996   3.888   9.864  0.9476 -0.1406  0.3893
   22DOPE    HA 2726   6.941   3.977   9.827 -0.2755 -1.3975 -0.9502
   22DOPE    HB 2727   6.930   3.804   9.894  1.7449 -0.8444  0.2290
   22DOPE    C2 2728   7.078   3.833   9.743  0.2175 -0.2357  0.3264
   22DOPE    HS 2729   7.110   3.736   9.787 -0.7228 -0.8121 -0.2214
   22DOPE   O21 2730   7.181   3.925   9.703  0.4757  0.0880  0.0117
   22DOPE   C21 2731   7.307   3.897   9.739 -0.4398  0.8277 -0.3990
   22DOPE   O22 2732   7.334   3.792   9.801 -0.3268  0.7404 -0.5644
   22DOPE   C22 2733   7.408   4.008   9.693  0.4299  0.7518 -0.7164
   22DOPE   H2R 2734   7.428   4.072   9.781 -0.6092  0.3342 -0.1551
   22DOPE   H2S 2735   7.364   4.069   9.611  0.3909  1.8303  0.0896
   22DOPE    C3 2736   6.986   3.801   9.619 -0.5758 -0.1836  0.4238
   22DOPE    HX 2737   7.026   3.722   9.553  0.6829 -1.0052  2.0742
   22DOPE    HY 2738   6.975   3.887   9.549  2.0885  2.1099  2.5420
   22DOPE   O31 2739   6.862   3.750   9.669  0.2050 -0.1088  0.1138
   22DOPE   C31 2740   6.867   3.621   9.705  0.7469 -0.1315  0.6217
   22DOPE   O32 2741   6.964   3.546   9.700 -0.6050  0.0764 -0.2826
   22DOPE   C32 2742   6.723   3.577   9.712  0.2776 -0.2875 -0.1818
   22DOPE   H2X 2743   6.723   3.486   9.775  2.0258  0.0645  0.3833
   22DOPE   H2Y 2744   6.659   3.652   9.762 -2.0385 -1.7555 -0.7748
   22DOPE   C23 2745   7.529   3.940   9.630  0.1365  0.4217 -0.1741
   22DOPE   H3R 2746   7.565   3.857   9.694 -0.8789 -1.9030 -2.4469
   22DOPE   H3S 2747   7.605   4.019   9.614 -0.2192  0.3470 -2.5842
   22DOPE   C24 2748   7.504   3.890   9.488  0.2876 -0.1841  0.6405
   22DOPE   H4R 2749   7.408   3.834   9.490  0.8534 -1.3873 -1.8222
   22DOPE   H4S 2750   7.589   3.821   9.469  0.3624 -0.7210  2.6724
   22DOPE   C25 2751   7.500   3.996   9.373  0.4792 -0.5452 -0.0916
   22DOPE   H5R 2752   7.578   4.072   9.390  0.2619 -0.6624  1.6148
   22DOPE   H5S 2753   7.403   4.050   9.381  1.8082  1.6812  2.2921
   22DOPE   C26 2754   7.527   3.946   9.234  0.6565 -0.3947  0.3410
   22DOPE   H6R 2755   7.624   3.892   9.238  0.3370 -0.8980  2.4555
   22DOPE   H6S 2756   7.550   4.027   9.162  3.3266 -0.5293  0.9333
   22DOPE   C27 2757   7.409   3.863   9.177 -0.3700 -0.3875  0.1714
   22DOPE   H7R 2758   7.317   3.926   9.177 -0.3266 -0.3175  0.9574
   22DOPE   H7S 2759   7.405   3.779   9.249 -1.5831 -0.1345  0.4265
   22DOPE   C28 2760   7.443   3.794   9.049  0.6225 -0.0091  0.9094
   22DOPE   H8R 2761   7.508   3.705   9.062 -2.2270 -2.2121  0.9421
   22DOPE   H8S 2762   7.503   3.869   8.993  1.1196 -0.3388  0.9961
   22DOPE   C29 2763   7.322   3.743   8.967  0.7677  0.0578 -0.4249
   22DOPE   H9R 2764   7.254   3.672   9.017  0.2635  1.4742  0.9631
   22DOPE  C210 2765   7.280   3.800   8.858  0.4405 -0.2076  0.5465
   22DOPE  H10R 2766   7.182   3.765   8.821  0.0371 -0.8366  2.1122
   22DOPE  C211 2767   7.350   3.919   8.786 -0.3718  0.1377 -1.1721
   22DOPE  H11R 2768   7.422   3.882   8.709  0.8234 -0.7212  0.3175
   22DOPE  H11S 2769   7.413   3.976   8.857 -2.9854  2.2775 -0.3920
   22DOPE  C212 2770   7.253   4.019   8.724 -0.0959 -0.5658  0.2381
   22DOPE  H12R 2771   7.302   4.117   8.705 -1.8087  0.4072  0.6060
   22DOPE  H12S 2772   7.178   4.048   8.800  1.2809  1.3769  0.9449
   22DOPE  C213 2773   7.178   3.974   8.598 -0.6077  0.3654  0.0112
   22DOPE  H13R 2774   7.087   4.037   8.598 -0.0069  1.2518  0.5413
   22DOPE  H13S 2775   7.142   3.869   8.593  0.4216 -0.0006  0.1820
   22DOPE  C214 2776   7.272   4.007   8.481 -0.7368 -0.1378 -0.3994
   22DOPE  H14R 2777   7.373   3.981   8.520 -0.4423  2.9590  1.3007
   22DOPE  H14S 2778   7.297   4.115   8.477  3.1830 -0.6885  3.0437
   22DOPE  C215 2779   7.235   3.963   8.342  0.3588 -0.1616 -0.5542
   22DOPE  H15R 2780   7.294   4.038   8.284  0.9901  1.4875  2.0262
   22DOPE  H15S 2781   7.128   3.990   8.332  0.1389 -1.1429 -0.8931
   22DOPE  C216 2782   7.280   3.822   8.311  0.1561  0.0168 -0.1808
   22DOPE  H16R 2783   7.199   3.762   8.358  0.9550 -1.9916 -1.2289
   22DOPE  H16S 2784   7.377   3.786   8.352 -0.3426 -0.4267  0.6520
   22DOPE  C217 2785   7.279   3.785   8.161 -0.7504  0.3464 -0.5977
   22DOPE  H17R 2786   7.354   3.853   8.116 -1.2638  0.5510 -1.1673
   22DOPE  H17S 2787   7.177   3.807   8.122 -0.6401  1.5044 -0.2662
   22DOPE  C218 2788   7.300   3.631   8.136  0.1414 -0.6199 -0.1553
   22DOPE  H18R 2789   7.325   3.606   8.031  1.1895  0.9553 -0.3114
   22DOPE  H18S 2790   7.202   3.584   8.157 -0.2106  0.0200 -0.3533
   22DOPE  H18T 2791   7.375   3.603   8.214  0.2899 -0.1017 -0.1092
   22DOPE   C33 2792   6.662   3.547   9.572 -0.1109 -1.1703  0.0245
   22DOPE   H3X 2793   6.735   3.477   9.525  0.9280  0.3437 -0.7129
   22DOPE   H3Y 2794   6.652   3.638   9.510 -1.0977 -0.5403  1.0962
   22DOPE   C34 2795   6.531   3.471   9.579  0.3191  0.4473  0.1005
   22DOPE   H4X 2796   6.536   3.398   9.663 -1.7076  0.5808  0.3867
   22DOPE   H4Y 2797   6.455   3.546   9.611 -0.4725  0.0677 -0.8426
   22DOPE   C35 2798   6.480   3.413   9.448 -0.0873  0.2874 -0.5695
   22DOPE   H5X 2799   6.404   3.333   9.464  0.2497 -0.1070 -0.9211
   22DOPE   H5Y 2800   6.565   3.369   9.391 -0.2269 -0.1969 -0.4157
   22DOPE   C36 2801   6.424   3.530   9.364 -0.0587  1.0134  0.9986
   22DOPE   H6X 2802   6.429   3.627   9.417 -2.4634  1.2904  0.7958
   22DOPE   H6Y 2803   6.318   3.507   9.341 -0.1890  0.9436  1.6476
   22DOPE   C37 2804   6.499   3.545   9.231  0.6892 -0.2615  0.5543
   22DOPE   H7X 2805   6.488   3.650   9.198  0.1320 -0.9971 -1.7596
   22DOPE   H7Y 2806   6.607   3.521   9.245  0.7625 -0.2338  0.0615
   22DOPE   C38 2807   6.437   3.452   9.119 -0.8542  0.0812 -0.5426
   22DOPE   H8X 2808   6.429   3.350   9.162 -0.6969  1.2578  2.4852
   22DOPE   H8Y 2809   6.517   3.441   9.043 -0.9173 -1.6339 -0.4059
   22DOPE   C39 2810   6.310   3.495   9.056  0.3039 -0.2699 -0.6941
   22DOPE   H9X 2811   6.222   3.459   9.112  1.0333 -0.0289  0.6431
   22DOPE  C310 2812   6.290   3.546   8.934 -0.0809  0.1742  0.5360
   22DOPE  H10X 2813   6.186   3.566   8.905 -0.6861  0.4775  2.7226
   22DOPE  C311 2814   6.386   3.612   8.843 -0.2263 -0.1972 -0.2739
   22DOPE  H11X 2815   6.354   3.709   8.800  2.4966  0.8251 -0.2046
   22DOPE  H11Y 2816   6.478   3.639   8.899 -0.9999  0.0924  0.9002
   22DOPE  C312 2817   6.435   3.521   8.728 -0.7128  0.0893 -0.3448
   22DOPE  H12X 2818   6.500   3.445   8.776  1.0399  1.7419  0.0367
   22DOPE  H12Y 2819   6.503   3.583   8.665 -0.3002  0.0895  0.0928
   22DOPE  C313 2820   6.334   3.470   8.625  0.1366 -0.2253  0.2635
   22DOPE  H13X 2821   6.244   3.423   8.669 -0.1672 -0.8692 -0.9985
   22DOPE  H13Y 2822   6.298   3.558   8.567 -0.3779  0.9370  2.2743
   22DOPE  C314 2823   6.396   3.353   8.554  0.1094 -0.3205 -0.3274
   22DOPE  H14X 2824   6.394   3.272   8.630  0.6938  0.5774  0.6638
   22DOPE  H14Y 2825   6.500   3.367   8.519 -0.1204 -0.2917 -1.0143
   22DOPE  C315 2826   6.319   3.302   8.437  0.5993 -0.2464  0.5357
   22DOPE  H15X 2827   6.216   3.345   8.442  1.1561  1.8293 -2.7296
   22DOPE  H15Y 2828   6.322   3.192   8.452 -0.7610 -0.7711 -2.3595
   22DOPE  C316 2829   6.384   3.341   8.306  0.1519  0.0398 -0.2053
   22DOPE  H16X 2830   6.485   3.295   8.312  0.2746  0.2672 -0.5231
   22DOPE  H16Y 2831   6.381   3.451   8.297 -1.4272  0.1581  1.1977
   22DOPE  C317 2832   6.301   3.292   8.185  0.5283  0.3394  0.4160
   22DOPE  H17X 2833   6.200   3.335   8.169  1.3716  1.4815 -2.4282
   22DOPE  H17Y 2834   6.351   3.328   8.093  0.3468  0.4907  0.3759
   22DOPE  C318 2835   6.311   3.135   8.168 -0.1895  0.1319 -0.4684
   22DOPE  H18X 2836   6.369   3.121   8.075  0.1636 -0.0241 -0.2276
   22DOPE  H18Y 2837   6.363   3.094   8.258  0.4480  0.2381 -0.7864
   22DOPE  H18Z 2838   6.207   3.100   8.152 -0.5430  2.1492 -3.5242
   23DOPE     N 2839   3.940   6.849  10.394  0.1873  0.8061  0.0998
   23DOPE   HN1 2840   3.908   6.770  10.454  0.0905  1.5485  1.0572
   23DOPE   HN2 2841   4.035   6.875  10.426  0.3590  1.9509 -1.2624
   23DOPE   HN3 2842   3.880   6.928  10.426 -2.9183 -1.5538  0.6555
   23DOPE   C12 2843   3.938   6.810  10.246 -0.7605 -0.0093 -0.4231
   23DOPE  H12A 2844   4.024   6.744  10.222 -1.2018  0.0869 -2.4891
   23DOPE  H12B 2845   3.948   6.902  10.185 -0.8516 -0.0145 -0.4448
   23DOPE   C11 2846   3.812   6.736  10.214  0.2827 -0.8449  0.0967
   23DOPE  H11A 2847   3.786   6.651  10.280 -0.0551 -0.6523  0.2121
   23DOPE  H11B 2848   3.832   6.693  10.113 -0.3892 -0.7041 -0.1040
   23DOPE     P 2849   3.589   6.859  10.281  0.0619  0.3482  0.1088
   23DOPE   O13 2850   3.534   6.995  10.271  0.2373 -0.3122  0.8836
   23DOPE   O14 2851   3.632   6.828  10.421  0.2642 -0.1733 -0.1187
   23DOPE   O11 2852   3.480   6.746  10.258 -0.0521 -0.1968  0.3081
   23DOPE   O12 2853   3.706   6.828  10.191 -0.0082 -0.3950  0.2335
   23DOPE    C1 2854   3.356   6.779  10.199 -0.4706  0.4845  0.0146
   23DOPE    HA 2855   3.311   6.877  10.224 -1.6900 -0.2132  0.6037
   23DOPE    HB 2856   3.280   6.707  10.234 -2.5888  2.9413  0.7840
   23DOPE    C2 2857   3.367   6.781  10.038 -0.3414 -0.3255  0.1368
   23DOPE    HS 2858   3.281   6.727   9.993 -0.0345 -0.5007 -0.2413
   23DOPE   O21 2859   3.489   6.727   9.990  0.2585  0.4358 -0.1508
   23DOPE   C21 2860   3.490   6.594   9.993 -0.0348 -0.0069 -0.5232
   23DOPE   O22 2861   3.395   6.521  10.001  0.5752  0.7706 -0.3022
   23DOPE   C22 2862   3.634   6.546   9.975 -0.3959  0.5986 -0.1546
   23DOPE   H2R 2863   3.664   6.491  10.066  1.1602  0.5212 -0.6875
   23DOPE   H2S 2864   3.691   6.642   9.969  0.7119 -0.0807 -0.9551
   23DOPE    C3 2865   3.363   6.930   9.980 -0.7487  0.6053 -0.2024
   23DOPE    HX 2866   3.433   7.000  10.030 -0.2633 -0.2826  0.3887
   23DOPE    HY 2867   3.260   6.970   9.993 -0.4254  0.7634  2.1951
   23DOPE   O31 2868   3.400   6.937   9.836  0.2302  0.2838 -0.2941
   23DOPE   C31 2869   3.306   6.892   9.761 -0.4111 -0.5167  0.0554
   23DOPE   O32 2870   3.196   6.847   9.792 -0.0047  0.0616 -0.1243
   23DOPE   C32 2871   3.364   6.898   9.620 -0.2023 -0.2783 -0.8404
   23DOPE   H2X 2872   3.381   7.003   9.588  1.8636  0.2987  1.7575
   23DOPE   H2Y 2873   3.467   6.857   9.611  1.5598  3.0314  1.6760
   23DOPE   C23 2874   3.641   6.455   9.850  0.0536 -0.0692 -0.5566
   23DOPE   H3R 2875   3.540   6.414   9.831 -0.3760 -0.2664  1.8085
   23DOPE   H3S 2876   3.707   6.368   9.872 -1.2166 -0.5660  1.5079
   23DOPE   C24 2877   3.704   6.536   9.737 -0.1001 -0.1734 -0.5216
   23DOPE   H4R 2878   3.799   6.573   9.779 -0.1992 -1.4072  0.8939
   23DOPE   H4S 2879   3.644   6.628   9.723 -0.5716  0.2161  3.0326
   23DOPE   C25 2880   3.718   6.456   9.607  0.9482  0.2706 -0.4301
   23DOPE   H5R 2881   3.629   6.396   9.578  0.0817  0.5130  1.5961
   23DOPE   H5S 2882   3.803   6.387   9.627  0.6643  0.1165  0.2468
   23DOPE   C26 2883   3.738   6.558   9.493  0.6611  0.3694 -0.0809
   23DOPE   H6R 2884   3.847   6.577   9.489  1.2019 -1.9722  1.7024
   23DOPE   H6S 2885   3.691   6.655   9.520 -1.1876 -0.9249  1.6737
   23DOPE   C27 2886   3.688   6.514   9.349 -0.0526  0.0794 -0.0549
   23DOPE   H7R 2887   3.587   6.467   9.354 -0.0255  0.1170  1.5861
   23DOPE   H7S 2888   3.756   6.443   9.297 -0.3479 -0.6521  0.5342
   23DOPE   C28 2889   3.677   6.625   9.242 -0.2792  0.7237 -0.1496
   23DOPE   H8R 2890   3.602   6.696   9.283 -0.5291 -0.3460  1.3347
   23DOPE   H8S 2891   3.642   6.575   9.149 -1.2387 -0.3707  0.7645
   23DOPE   C29 2892   3.808   6.694   9.213 -0.4609  0.2895 -0.0781
   23DOPE   H9R 2893   3.897   6.632   9.191 -1.7876 -1.2058 -1.4910
   23DOPE  C210 2894   3.822   6.832   9.221 -0.2019 -0.8634  0.4695
   23DOPE  H10R 2895   3.918   6.881   9.197 -0.9649 -0.5432 -2.2563
   23DOPE  C211 2896   3.705   6.936   9.234  0.0808 -0.0097 -0.5277
   23DOPE  H11R 2897   3.609   6.889   9.266 -1.4520  2.6653 -0.8514
   23DOPE  H11S 2898   3.683   6.978   9.134  3.7235 -0.5379 -1.7028
   23DOPE  C212 2899   3.730   7.048   9.334 -0.0541  0.4246  0.3447
   23DOPE  H12R 2900   3.665   7.138   9.325  0.2821  0.8290  1.6545
   23DOPE  H12S 2901   3.829   7.094   9.312  1.0889 -0.1419  3.7160
   23DOPE  C213 2902   3.728   6.984   9.469  0.0601 -0.3085  0.5060
   23DOPE  H13R 2903   3.783   6.889   9.485 -0.0033 -0.4436 -0.0506
   23DOPE  H13S 2904   3.626   6.949   9.495  0.3325 -0.3908  1.4887
   23DOPE  C214 2905   3.754   7.083   9.579  0.3720  0.7760  0.0438
   23DOPE  H14R 2906   3.745   7.031   9.677 -1.1402  1.4069  0.2646
   23DOPE  H14S 2907   3.676   7.161   9.593  0.9430  1.4672 -0.5160
   23DOPE  C215 2908   3.883   7.154   9.580  0.2320  0.3421  0.2173
   23DOPE  H15R 2909   3.891   7.233   9.659  0.9646 -0.8414  1.3660
   23DOPE  H15S 2910   3.889   7.200   9.479 -1.2574  0.0618 -0.0154
   23DOPE  C216 2911   4.005   7.061   9.588  0.3448 -0.8939  0.1008
   23DOPE  H16R 2912   3.992   6.989   9.505 -0.6546  0.7543 -1.2253
   23DOPE  H16S 2913   4.011   7.012   9.688  0.7553 -0.0870  0.4842
   23DOPE  C217 2914   4.137   7.135   9.570 -0.6937  0.1732  0.2951
   23DOPE  H17R 2915   4.148   7.230   9.626  0.7597  0.1221  0.1092
   23DOPE  H17S 2916   4.149   7.154   9.462 -1.6939  0.3380  0.2053
   23DOPE  C218 2917   4.251   7.043   9.607  0.3322 -0.4243  0.6261
   23DOPE  H18R 2918   4.346   7.088   9.570 -0.2137 -1.0040 -1.6395
   23DOPE  H18S 2919   4.240   6.942   9.561 -1.6224  0.2766 -0.5412
   23DOPE  H18T 2920   4.259   7.020   9.715 -2.3858 -1.3689  0.7023
   23DOPE   C33 2921   3.269   6.829   9.516  0.0866  0.0979  0.3049
   23DOPE   H3X 2922   3.173   6.885   9.512 -1.5861 -2.6376  0.0978
   23DOPE   H3Y 2923   3.243   6.728   9.553 -1.6532 -0.1638 -1.4416
   23DOPE   C34 2924   3.328   6.819   9.380 -0.2820  0.0513 -0.5084
   23DOPE   H4X 2925   3.344   6.922   9.342  1.1932  0.6521  1.5403
   23DOPE   H4Y 2926   3.435   6.789   9.392 -0.5838 -1.0362 -0.4154
   23DOPE   C35 2927   3.243   6.735   9.280  0.0495 -0.6887 -0.0709
   23DOPE   H5X 2928   3.146   6.786   9.263  0.0100 -0.9667 -0.7002
   23DOPE   H5Y 2929   3.213   6.635   9.318  1.3507 -0.9520  0.3205
   23DOPE   C36 2930   3.302   6.710   9.137 -0.0661  0.2090  0.6811
   23DOPE   H6X 2931   3.219   6.656   9.088 -0.0900 -0.5723  1.5496
   23DOPE   H6Y 2932   3.388   6.639   9.136  0.8138  1.2264 -0.6695
   23DOPE   C37 2933   3.350   6.826   9.048  0.2735 -0.1048 -0.9368
   23DOPE   H7X 2934   3.262   6.892   9.034  0.8301  0.8941  0.0366
   23DOPE   H7Y 2935   3.432   6.873   9.107 -0.1302 -0.4857 -0.0573
   23DOPE   C38 2936   3.410   6.779   8.914  0.4969 -0.6394 -0.5242
   23DOPE   H8X 2937   3.405   6.869   8.849  2.0611  1.8956  2.5351
   23DOPE   H8Y 2938   3.334   6.705   8.879  0.4560 -0.2079 -1.3617
   23DOPE   C39 2939   3.554   6.725   8.909  0.1248  0.2646 -0.5938
   23DOPE   H9X 2940   3.624   6.786   8.967 -0.9234  2.3925 -1.4763
   23DOPE  C310 2941   3.599   6.624   8.840  0.3026 -0.2795 -0.3134
   23DOPE  H10X 2942   3.708   6.612   8.845  0.3901  1.0052  2.1822
   23DOPE  C311 2943   3.529   6.533   8.745  0.7566 -0.1051  0.2819
   23DOPE  H11X 2944   3.465   6.593   8.676 -1.8869 -0.5001  2.2387
   23DOPE  H11Y 2945   3.596   6.500   8.663 -1.8284  0.8491 -2.3878
   23DOPE  C312 2946   3.464   6.408   8.800  0.5289 -0.1372 -0.7758
   23DOPE  H12X 2947   3.388   6.437   8.875  3.7295  0.6425  2.4454
   23DOPE  H12Y 2948   3.546   6.359   8.856 -0.7223 -0.9380  0.4120
   23DOPE  C313 2949   3.404   6.334   8.688 -0.5617  0.6825  0.6407
   23DOPE  H13X 2950   3.486   6.324   8.615 -0.8679 -2.0207  0.5603
   23DOPE  H13Y 2951   3.382   6.230   8.720 -0.3465  0.2988 -0.4408
   23DOPE  C314 2952   3.280   6.387   8.619 -0.0509 -0.3158 -0.0175
   23DOPE  H14X 2953   3.284   6.394   8.508 -0.7163 -0.6991 -0.0698
   23DOPE  H14Y 2954   3.274   6.495   8.646 -0.8279 -0.3512 -0.0327
   23DOPE  C315 2955   3.144   6.318   8.668 -0.1491  0.0987 -0.7312
   23DOPE  H15X 2956   3.156   6.207   8.661  0.8154 -0.0084  1.6067
   23DOPE  H15Y 2957   3.064   6.344   8.596 -1.3795  0.9631  0.8820
   23DOPE  C316 2958   3.120   6.342   8.820  0.0377 -0.2287 -0.7878
   23DOPE  H16X 2959   3.209   6.357   8.886  0.0697 -2.3197 -0.2995
   23DOPE  H16Y 2960   3.075   6.254   8.870  1.1759 -0.8959 -0.9082
   23DOPE  C317 2961   3.020   6.463   8.833 -0.3900  0.1243  0.0387
   23DOPE  H17X 2962   3.069   6.558   8.802 -0.7590  0.3832  0.2401
   23DOPE  H17Y 2963   2.925   6.446   8.779 -1.0293  2.5447  0.2564
   23DOPE  C318 2964   2.971   6.484   8.980  0.3813 -0.0948 -0.3949
   23DOPE  H18X 2965   2.882   6.551   8.982 -0.0461 -0.6416 -0.7103
   23DOPE  H18Y 2966   2.949   6.381   9.015 -1.5452  0.0998 -0.9007
   23DOPE  H18Z 2967   3.050   6.532   9.041  0.1591 -0.5952  0.3022
   24DOPE     N 2968   6.209   3.155  10.552  0.3280  0.4820 -0.4090
   24DOPE   HN1 2969   6.159   3.163  10.643  0.0272  1.7305 -0.6517
   24DOPE   HN2 2970   6.302   3.116  10.578  0.5088  2.1019  1.6810
   24DOPE   HN3 2971   6.249   3.246  10.521  0.6757  0.9535  1.3255
   24DOPE   C12 2972   6.124   3.086  10.450  0.1172 -0.2907  0.4623
   24DOPE  H12A 2973   6.086   2.986  10.482  1.0310 -1.0070 -0.6090
   24DOPE  H12B 2974   6.194   3.072  10.365 -2.4377 -0.1619 -1.8086
   24DOPE   C11 2975   6.005   3.175  10.413  0.3226  0.3454  0.4306
   24DOPE  H11A 2976   5.952   3.178  10.511  1.0864 -0.6104  0.8976
   24DOPE  H11B 2977   5.933   3.129  10.342  1.2773 -1.3032  0.4814
   24DOPE     P 2978   5.972   3.405  10.284 -0.1078 -0.5098 -0.1038
   24DOPE   O13 2979   6.057   3.520  10.251 -0.0982 -0.1046  0.1543
   24DOPE   O14 2980   5.842   3.427  10.356 -0.2844  0.0650 -0.3895
   24DOPE   O11 2981   5.948   3.323  10.154 -0.6208  0.1659 -0.2970
   24DOPE   O12 2982   6.050   3.306  10.378  0.6871 -0.6034  0.3264
   24DOPE    C1 2983   6.047   3.245  10.088  0.3529  0.0434 -0.6379
   24DOPE    HA 2984   6.094   3.166  10.150  1.2136  0.5269 -0.6665
   24DOPE    HB 2985   6.131   3.315  10.068  0.3634  1.2220  2.8698
   24DOPE    C2 2986   5.991   3.197   9.944 -0.2458  0.1965 -0.4980
   24DOPE    HS 2987   6.084   3.179   9.886 -0.3463 -1.4739 -0.1949
   24DOPE   O21 2988   5.899   3.294   9.887  0.0500  0.4129  0.2298
   24DOPE   C21 2989   5.959   3.403   9.838 -0.0125 -0.4301 -0.1327
   24DOPE   O22 2990   6.078   3.421   9.824  0.6072  0.3021 -0.2980
   24DOPE   C22 2991   5.851   3.497   9.794  0.1265 -0.8115 -0.0967
   24DOPE   H2R 2992   5.889   3.600   9.808 -1.5105 -0.0062 -1.1861
   24DOPE   H2S 2993   5.761   3.493   9.860 -0.8252  1.8587 -1.1116
   24DOPE    C3 2994   5.919   3.066   9.959 -0.1387 -0.2951  0.1052
   24DOPE    HX 2995   5.841   3.077  10.038 -2.1133 -0.7087 -1.6904
   24DOPE    HY 2996   5.989   2.988   9.998 -0.3799 -0.2187  0.7080
   24DOPE   O31 2997   5.861   3.012   9.838 -0.2035 -0.1795 -0.7008
   24DOPE   C31 2998   5.737   3.043   9.815  0.4335 -0.0050  0.3188
   24DOPE   O32 2999   5.665   3.111   9.886 -0.0183 -0.1353 -0.0527
   24DOPE   C32 3000   5.703   2.996   9.667 -0.0131 -0.1076  1.0861
   24DOPE   H2X 3001   5.798   3.009   9.611 -0.5320  0.4369  0.3145
   24DOPE   H2Y 3002   5.676   2.889   9.676  0.9396 -0.3720  0.9587
   24DOPE   C23 3003   5.800   3.469   9.654  0.3933  0.2365  0.2076
   24DOPE   H3R 3004   5.709   3.531   9.638 -0.4386 -0.8854  0.3912
   24DOPE   H3S 3005   5.780   3.365   9.620 -1.1441  1.1655 -2.0044
   24DOPE   C24 3006   5.903   3.536   9.561  0.9340  0.0918 -0.0441
   24DOPE   H4R 3007   6.006   3.500   9.583  0.6709  0.0645  1.2265
   24DOPE   H4S 3008   5.914   3.643   9.592 -0.3538  0.3004 -0.2548
   24DOPE   C25 3009   5.866   3.528   9.410  0.5784  0.4977 -0.3080
   24DOPE   H5R 3010   5.910   3.619   9.364  0.8942  0.5065  0.0049
   24DOPE   H5S 3011   5.758   3.521   9.385  0.8940  0.0957 -1.6486
   24DOPE   C26 3012   5.912   3.403   9.335  0.3562  1.1186  0.0421
   24DOPE   H6R 3013   5.870   3.324   9.401 -0.3865 -0.2544 -1.9822
   24DOPE   H6S 3014   6.022   3.392   9.327  0.3799  2.1171 -1.3039
   24DOPE   C27 3015   5.849   3.380   9.198 -0.6751 -0.6440  0.6044
   24DOPE   H7R 3016   5.881   3.457   9.124  0.8252 -0.3049  1.5548
   24DOPE   H7S 3017   5.739   3.384   9.206 -0.7175 -0.5656  0.0371
   24DOPE   C28 3018   5.885   3.245   9.132 -0.0363  0.4411 -0.0274
   24DOPE   H8R 3019   5.806   3.217   9.058 -1.0536  2.2975  0.3034
   24DOPE   H8S 3020   5.884   3.175   9.218  1.5064 -0.5374 -0.7706
   24DOPE   C29 3021   6.026   3.236   9.077  0.4913  0.5347 -0.1049
   24DOPE   H9R 3022   6.107   3.221   9.150  0.8738  0.4623 -0.5366
   24DOPE  C210 3023   6.068   3.250   8.946 -0.0198 -0.3918  0.2618
   24DOPE  H10R 3024   6.172   3.222   8.922  1.1872  3.1698  0.7525
   24DOPE  C211 3025   5.984   3.308   8.830  0.3106  0.3199  1.2625
   24DOPE  H11R 3026   6.038   3.371   8.756 -1.4769  0.2059 -0.1918
   24DOPE  H11S 3027   5.896   3.368   8.860 -0.4849 -0.5742  0.7665
   24DOPE  C212 3028   5.929   3.187   8.751 -0.0760  0.1078  0.0198
   24DOPE  H12R 3029   5.870   3.121   8.819  0.9963 -1.2605 -0.3276
   24DOPE  H12S 3030   6.010   3.123   8.708 -1.1892 -0.6299 -1.0398
   24DOPE  C213 3031   5.839   3.245   8.635 -1.0066 -0.2919  0.5742
   24DOPE  H13R 3032   5.889   3.328   8.581 -2.1028  0.0103  0.0088
   24DOPE  H13S 3033   5.747   3.285   8.682 -1.0399  2.5256 -1.6453
   24DOPE  C214 3034   5.806   3.134   8.533  0.6092 -0.2926  0.6292
   24DOPE  H14R 3035   5.726   3.072   8.579 -1.0323  0.0304 -1.6431
   24DOPE  H14S 3036   5.893   3.073   8.500  2.1065  1.7886  0.5088
   24DOPE  C215 3037   5.761   3.205   8.395 -0.7208 -0.3002  0.2524
   24DOPE  H15R 3038   5.747   3.124   8.320  0.8944 -1.1546  0.8100
   24DOPE  H15S 3039   5.853   3.259   8.365 -1.8376  0.7874 -1.3377
   24DOPE  C216 3040   5.634   3.290   8.416  0.3429 -0.1424  0.7003
   24DOPE  H16R 3041   5.627   3.330   8.519 -1.3940 -0.2876  0.6649
   24DOPE  H16S 3042   5.545   3.224   8.417  0.3255 -0.1289  0.2716
   24DOPE  C217 3043   5.607   3.383   8.296  0.2606 -0.3030 -0.7932
   24DOPE  H17R 3044   5.646   3.335   8.204 -0.6994  0.0864 -1.4166
   24DOPE  H17S 3045   5.674   3.469   8.318  0.7304 -0.7115 -0.5806
   24DOPE  C218 3046   5.465   3.438   8.293 -0.7478  0.4284  0.7928
   24DOPE  H18R 3047   5.426   3.420   8.395  0.1443  0.6678  1.1864
   24DOPE  H18S 3048   5.405   3.387   8.214  2.4055  0.0399 -1.5460
   24DOPE  H18T 3049   5.458   3.546   8.266  0.8395  0.5446  0.7637
   24DOPE   C33 3050   5.595   3.090   9.603 -0.8183  0.0920  0.6024
   24DOPE   H3X 3051   5.626   3.197   9.591  0.7242 -0.3179  0.6815
   24DOPE   H3Y 3052   5.507   3.100   9.669 -1.5074  0.6131 -0.3645
   24DOPE   C34 3053   5.551   3.028   9.462 -0.2935 -0.3373  0.2312
   24DOPE   H4X 3054   5.507   2.927   9.468 -4.4311  1.3127  2.7662
   24DOPE   H4Y 3055   5.464   3.094   9.441  0.6727  0.8782 -0.0559
   24DOPE   C35 3056   5.652   3.049   9.348  0.3039  0.6684  0.2735
   24DOPE   H5X 3057   5.743   2.984   9.354  1.2601  1.7617 -1.3819
   24DOPE   H5Y 3058   5.703   3.146   9.369  0.3448  0.6677  0.1815
   24DOPE   C36 3059   5.591   3.033   9.207 -0.9301 -0.6987  0.2703
   24DOPE   H6X 3060   5.666   3.061   9.131 -0.4121  0.0499  1.0364
   24DOPE   H6Y 3061   5.506   3.102   9.189 -1.9195 -0.3738  4.8078
   24DOPE   C37 3062   5.571   2.881   9.177  0.0076 -0.0967  0.0629
   24DOPE   H7X 3063   5.674   2.841   9.186  0.8962  1.7055 -1.3124
   24DOPE   H7Y 3064   5.496   2.838   9.246 -2.6207  1.3860 -1.7188
   24DOPE   C38 3065   5.520   2.851   9.035 -0.2636 -0.7953  0.7989
   24DOPE   H8X 3066   5.545   2.746   9.008 -0.1906  0.2599 -4.0231
   24DOPE   H8Y 3067   5.572   2.919   8.965 -2.1763 -0.8294 -0.7147
   24DOPE   C39 3068   5.375   2.867   9.017 -0.6358 -0.0570 -0.0256
   24DOPE   H9X 3069   5.348   2.972   9.005 -0.9750  0.0288  1.3975
   24DOPE  C310 3070   5.274   2.782   9.010 -0.0497 -0.3858 -0.8515
   24DOPE  H10X 3071   5.171   2.819   9.000  0.7839  2.0976 -0.9420
   24DOPE  C311 3072   5.275   2.629   9.031  0.7650 -0.3031  0.0184
   24DOPE  H11X 3073   5.230   2.581   8.941  0.2128  0.9076 -0.3802
   24DOPE  H11Y 3074   5.381   2.601   9.049  0.7353  0.1005  0.8836
   24DOPE  C312 3075   5.192   2.578   9.152 -0.6167 -0.5183  1.0837
   24DOPE  H12X 3076   5.190   2.469   9.171 -0.3850 -0.1903  3.1723
   24DOPE  H12Y 3077   5.085   2.600   9.128 -0.0802  0.0920 -1.0208
   24DOPE  C313 3078   5.228   2.648   9.289  0.9861 -0.0106 -0.0928
   24DOPE  H13X 3079   5.265   2.750   9.265 -0.3754  0.2720 -1.1081
   24DOPE  H13Y 3080   5.131   2.652   9.343  0.1941 -1.5717 -1.3338
   24DOPE  C314 3081   5.347   2.582   9.359 -0.2878 -0.4373  0.1847
   24DOPE  H14X 3082   5.435   2.589   9.291  1.8079 -2.0972  2.5418
   24DOPE  H14Y 3083   5.327   2.473   9.364 -2.1462 -0.0825  1.3187
   24DOPE  C315 3084   5.382   2.641   9.497  0.9407 -0.6452 -0.6281
   24DOPE  H15X 3085   5.335   2.742   9.502 -0.4301 -1.3363  1.4775
   24DOPE  H15Y 3086   5.486   2.662   9.528  0.0566  0.4587  1.8582
   24DOPE  C316 3087   5.311   2.568   9.613 -0.0917  0.1529 -0.1423
   24DOPE  H16X 3088   5.230   2.518   9.556  1.4174 -0.7138 -1.6285
   24DOPE  H16Y 3089   5.284   2.637   9.696  2.9858 -0.2006  1.3078
   24DOPE  C317 3090   5.397   2.453   9.672 -0.0327 -0.0643 -0.3822
   24DOPE  H17X 3091   5.435   2.393   9.587 -0.1762  1.6369 -1.7159
   24DOPE  H17Y 3092   5.486   2.496   9.723 -1.0152 -0.8637  2.1660
   24DOPE  C318 3093   5.338   2.374   9.790 -0.6150  0.4686  0.0120
   24DOPE  H18X 3094   5.247   2.317   9.762  0.6196 -0.8532 -1.5309
   24DOPE  H18Y 3095   5.404   2.288   9.816  0.2245 -0.1853 -3.6974
   24DOPE  H18Z 3096   5.313   2.438   9.877  1.5501  1.5047 -0.0400
   25DOPE     N 3097   5.480   4.564  10.799 -0.1313  0.5087  0.6204
   25DOPE   HN1 3098   5.459   4.519  10.707  0.9470  0.3749  0.4250
   25DOPE   HN2 3099   5.555   4.501  10.836  0.5976  0.0590 -1.4797
   25DOPE   HN3 3100   5.392   4.559  10.854  0.8301 -1.6374  2.1285
   25DOPE   C12 3101   5.515   4.705  10.768 -0.3190 -0.2542 -0.2632
   25DOPE  H12A 3102   5.592   4.704  10.688  0.2658  1.8888  0.2244
   25DOPE  H12B 3103   5.569   4.756  10.850  0.2048  1.7240 -1.7641
   25DOPE   C11 3104   5.397   4.783  10.694  0.0455 -0.0419  0.1432
   25DOPE  H11A 3105   5.430   4.888  10.678  0.3610  0.0546  1.3412
   25DOPE  H11B 3106   5.311   4.789  10.764 -0.2957  0.9061 -0.3328
   25DOPE     P 3107   5.444   4.741  10.440  0.0043  0.1132 -0.0090
   25DOPE   O13 3108   5.494   4.612  10.389 -0.2029 -0.0851 -0.0632
   25DOPE   O14 3109   5.539   4.851  10.447  0.7586 -0.0390 -0.7116
   25DOPE   O11 3110   5.330   4.798  10.348 -0.2177  0.0500 -0.1068
   25DOPE   O12 3111   5.369   4.709  10.573 -0.2048 -0.4002 -0.4504
   25DOPE    C1 3112   5.211   4.715  10.338  0.1427 -0.1530 -0.1640
   25DOPE    HA 3113   5.124   4.771  10.378 -0.3559  0.4839 -2.0408
   25DOPE    HB 3114   5.215   4.625  10.403 -1.7051  0.6667  1.1593
   25DOPE    C2 3115   5.181   4.682  10.190 -0.3825  0.0186  0.3120
   25DOPE    HS 3116   5.083   4.632  10.183 -0.8754  0.3777  3.3153
   25DOPE   O21 3117   5.285   4.590  10.135  0.1690  0.5116  0.3283
   25DOPE   C21 3118   5.303   4.480  10.190  0.5967  0.7903  0.4891
   25DOPE   O22 3119   5.242   4.426  10.281  0.4556 -0.0840  0.0400
   25DOPE   C22 3120   5.424   4.415  10.119 -0.6355  0.1437 -0.7402
   25DOPE   H2R 3121   5.457   4.325  10.176  0.4922 -0.4859 -2.2862
   25DOPE   H2S 3122   5.514   4.479  10.115  0.2975 -0.8359  1.9231
   25DOPE    C3 3123   5.173   4.816  10.114  0.3597 -0.8872  0.2697
   25DOPE    HX 3124   5.274   4.861  10.117  0.1472 -0.3068 -0.6462
   25DOPE    HY 3125   5.105   4.889  10.164 -2.6267 -3.3927  0.1864
   25DOPE   O31 3126   5.125   4.805   9.981 -0.8633  0.1920 -0.1803
   25DOPE   C31 3127   4.993   4.787   9.964  0.1760 -0.3248  0.2600
   25DOPE   O32 3128   4.912   4.785  10.056 -0.3621  0.5813  0.2418
   25DOPE   C32 3129   4.962   4.788   9.808 -0.1860  0.0205 -0.1496
   25DOPE   H2X 3130   4.871   4.851   9.794 -0.4911 -0.8132 -2.1277
   25DOPE   H2Y 3131   5.053   4.831   9.763  1.2790 -1.2622  1.4477
   25DOPE   C23 3132   5.400   4.374   9.974  0.0499  0.2733  1.3614
   25DOPE   H3R 3133   5.410   4.458   9.901  1.5404 -1.6555 -0.8148
   25DOPE   H3S 3134   5.299   4.331   9.960 -0.0330  0.8433  0.0821
   25DOPE   C24 3135   5.499   4.261   9.928  0.4446 -0.0862  0.0084
   25DOPE   H4R 3136   5.477   4.178   9.998 -1.3744 -0.2590 -0.7207
   25DOPE   H4S 3137   5.600   4.302   9.951  1.7558 -2.1300 -1.7250
   25DOPE   C25 3138   5.482   4.218   9.788  0.1740  0.3530 -0.3645
   25DOPE   H5R 3139   5.384   4.166   9.789 -2.5246  4.8080  2.6816
   25DOPE   H5S 3140   5.568   4.149   9.774  0.0595  0.0184  0.5272
   25DOPE   C26 3141   5.485   4.328   9.686 -0.3335 -0.6343  0.4459
   25DOPE   H6R 3142   5.574   4.394   9.698 -0.4013 -0.5477  0.4741
   25DOPE   H6S 3143   5.394   4.391   9.673  0.1575 -0.2404 -1.4297
   25DOPE   C27 3144   5.485   4.254   9.541 -0.2161 -0.3869  0.2531
   25DOPE   H7R 3145   5.391   4.196   9.546 -0.4856  0.1724  2.8847
   25DOPE   H7S 3146   5.577   4.192   9.541 -0.9045 -1.4592  1.2884
   25DOPE   C28 3147   5.490   4.358   9.426 -0.0280  0.1836  0.7456
   25DOPE   H8R 3148   5.580   4.423   9.424  0.6968 -0.7318 -2.9810
   25DOPE   H8S 3149   5.403   4.427   9.433  0.3381  0.7053  0.1744
   25DOPE   C29 3150   5.476   4.278   9.295 -0.2345  0.3067 -0.2912
   25DOPE   H9R 3151   5.527   4.181   9.301 -0.4804  0.0748 -1.6035
   25DOPE  C210 3152   5.402   4.304   9.181  0.6681 -0.1387  0.5734
   25DOPE  H10R 3153   5.427   4.234   9.100  3.3799 -0.9878  2.0315
   25DOPE  C211 3154   5.315   4.430   9.151  0.2175 -0.4289 -0.2236
   25DOPE  H11R 3155   5.379   4.501   9.094 -1.6678  1.0871 -0.5718
   25DOPE  H11S 3156   5.275   4.485   9.238  1.6718 -0.0249  0.2118
   25DOPE  C212 3157   5.199   4.404   9.053  0.4059  0.3904 -0.3405
   25DOPE  H12R 3158   5.233   4.366   8.955 -0.0568 -0.7569 -0.0775
   25DOPE  H12S 3159   5.157   4.504   9.032 -0.8424  0.3497  1.6815
   25DOPE  C213 3160   5.092   4.311   9.111  0.4261  0.4557 -0.0233
   25DOPE  H13R 3161   5.060   4.357   9.207 -0.0418 -1.8508  0.9853
   25DOPE  H13S 3162   5.129   4.213   9.146 -0.7748  0.6251  1.8329
   25DOPE  C214 3163   4.971   4.302   9.017  0.2376 -0.2911 -0.5818
   25DOPE  H14R 3164   4.938   4.407   9.000  2.6362  0.8135  1.0016
   25DOPE  H14S 3165   4.894   4.237   9.064 -1.5014  0.7006 -1.9505
   25DOPE  C215 3166   5.002   4.243   8.873 -0.3099  0.2591 -0.1355
   25DOPE  H15R 3167   5.047   4.142   8.872 -0.5289  0.1476  0.5178
   25DOPE  H15S 3168   5.073   4.314   8.826 -0.2753  0.9180  0.8691
   25DOPE  C216 3169   4.878   4.243   8.783  0.0674  0.6479  0.0051
   25DOPE  H16R 3170   4.827   4.340   8.799  0.2182  0.9287 -1.1371
   25DOPE  H16S 3171   4.817   4.162   8.830  1.6972  0.9458  2.8263
   25DOPE  C217 3172   4.900   4.212   8.633 -0.2113 -0.0300  0.1566
   25DOPE  H17R 3173   4.948   4.296   8.579  0.7969  0.1759  1.3270
   25DOPE  H17S 3174   4.797   4.201   8.594  0.5340 -1.2630 -1.5630
   25DOPE  C218 3175   4.972   4.086   8.594 -0.2547  0.2303 -1.1959
   25DOPE  H18R 3176   5.082   4.085   8.611 -0.0145 -0.6132 -2.5935
   25DOPE  H18S 3177   4.964   4.076   8.484  0.0439 -1.7710 -1.0727
   25DOPE  H18T 3178   4.931   3.991   8.635 -1.2693  0.9853 -0.4112
   25DOPE   C33 3179   4.915   4.651   9.761 -0.7825  0.7505  0.1079
   25DOPE   H3X 3180   4.861   4.667   9.666 -0.0007 -0.7247 -0.6199
   25DOPE   H3Y 3181   4.834   4.606   9.822  0.7119 -1.4150  0.6321
   25DOPE   C34 3182   5.033   4.552   9.737 -0.5703  0.0080  0.2222
   25DOPE   H4X 3183   5.101   4.622   9.683 -0.6557  2.4365  3.0109
   25DOPE   H4Y 3184   5.087   4.523   9.831 -0.3060 -2.6561 -0.6697
   25DOPE   C35 3185   4.992   4.425   9.656 -0.5091  0.1466 -0.3756
   25DOPE   H5X 3186   4.912   4.456   9.585  0.3570 -0.3899 -1.6143
   25DOPE   H5Y 3187   4.951   4.353   9.729 -1.7827  0.6327 -0.5884
   25DOPE   C36 3188   5.111   4.364   9.580  0.4900 -0.3038 -0.4910
   25DOPE   H6X 3189   5.181   4.339   9.662  1.0010  2.8535  0.1458
   25DOPE   H6Y 3190   5.146   4.444   9.511  0.2645 -1.2249 -1.7198
   25DOPE   C37 3191   5.071   4.243   9.492  0.3206  0.7000 -1.2306
   25DOPE   H7X 3192   4.969   4.250   9.450 -0.3596 -1.7067 -0.1393
   25DOPE   H7Y 3193   5.131   4.252   9.398 -1.0662 -0.1404 -2.2326
   25DOPE   C38 3194   5.102   4.117   9.560  0.4494  1.0033  0.5235
   25DOPE   H8X 3195   5.028   4.118   9.643  0.5070  1.3763  0.5710
   25DOPE   H8Y 3196   5.196   4.117   9.618  0.6098 -0.9978  0.3518
   25DOPE   C39 3197   5.079   3.986   9.478 -0.6498 -0.0881 -0.3942
   25DOPE   H9X 3198   4.977   3.947   9.492  0.0759 -2.0871 -0.3317
   25DOPE  C310 3199   5.173   3.920   9.414 -0.0576  0.3408 -0.3600
   25DOPE  H10X 3200   5.143   3.828   9.363 -1.5415 -0.0579  1.1356
   25DOPE  C311 3201   5.317   3.948   9.390  0.6428 -0.2873  0.3852
   25DOPE  H11X 3202   5.354   4.050   9.414  1.2988 -0.5681  0.5605
   25DOPE  H11Y 3203   5.375   3.880   9.455  1.1698 -2.0114 -1.7748
   25DOPE  C312 3204   5.369   3.915   9.254  0.2233  0.0008  0.1239
   25DOPE  H12X 3205   5.347   4.000   9.186 -3.0501 -1.3099 -0.6288
   25DOPE  H12Y 3206   5.308   3.830   9.218 -2.1995  1.1771  1.2399
   25DOPE  C313 3207   5.517   3.880   9.259 -0.5522  0.7288 -0.3357
   25DOPE  H13X 3208   5.574   3.964   9.305  0.2880  0.6024 -1.1118
   25DOPE  H13Y 3209   5.526   3.805   9.341  2.4162  0.1687 -1.0607
   25DOPE  C314 3210   5.579   3.831   9.134 -0.3950  0.8850  0.3230
   25DOPE  H14X 3211   5.574   3.914   9.060  1.7050  0.9792  0.2396
   25DOPE  H14Y 3212   5.541   3.735   9.093  1.3774  0.1132  0.4207
   25DOPE  C315 3213   5.732   3.811   9.144 -0.3505 -0.2871  0.0489
   25DOPE  H15X 3214   5.754   3.713   9.191  0.5988  0.9608  2.3786
   25DOPE  H15Y 3215   5.773   3.885   9.215 -2.3844 -0.4381  1.4636
   25DOPE  C316 3216   5.797   3.802   9.007 -0.8618  0.2240  0.0035
   25DOPE  H16X 3217   5.784   3.890   8.941  1.0419 -0.3413 -1.2273
   25DOPE  H16Y 3218   5.764   3.711   8.952  0.9875  0.4153 -1.5201
   25DOPE  C317 3219   5.946   3.774   8.999  0.0468  0.6720  0.1744
   25DOPE  H17X 3220   5.985   3.848   9.073  0.3826  1.3947 -0.7036
   25DOPE  H17Y 3221   5.978   3.673   9.032  1.1007  1.5640  2.0268
   25DOPE  C318 3222   6.012   3.813   8.866  0.1750  0.3844 -0.1839
   25DOPE  H18X 3223   6.001   3.922   8.847 -1.7617  0.0395 -1.3219
   25DOPE  H18Y 3224   6.120   3.787   8.867 -0.1070 -0.9729  2.5494
   25DOPE  H18Z 3225   5.962   3.769   8.777  0.4024  0.2218 -0.2311
   26DOPE     N 3226   5.886   5.151  10.403  0.4625  0.4680 -0.8445
   26DOPE   HN1 3227   5.884   5.174  10.504  0.2614  0.9595 -0.9558
   26DOPE   HN2 3228   5.830   5.064  10.399 -0.3958  1.0065 -0.8899
   26DOPE   HN3 3229   5.984   5.130  10.375  1.5450  2.2167  1.3666
   26DOPE   C12 3230   5.826   5.264  10.316 -0.7875 -0.5260 -0.0842
   26DOPE  H12A 3231   5.901   5.345  10.311  1.2568 -2.2532  1.0650
   26DOPE  H12B 3232   5.728   5.292  10.361  0.1712  1.8217  0.6760
   26DOPE   C11 3233   5.807   5.202  10.173  0.6970 -0.2581 -0.2887
   26DOPE  H11A 3234   5.907   5.206  10.125  0.2294  0.8670 -1.2182
   26DOPE  H11B 3235   5.736   5.265  10.114  1.5717  0.4368 -0.6128
   26DOPE     P 3236   5.814   4.936  10.163  0.6893  0.5235  0.3925
   26DOPE   O13 3237   5.875   4.886  10.289  0.0941  0.3616  0.2572
   26DOPE   O14 3238   5.903   4.948  10.048 -0.0832 -0.0422 -0.5355
   26DOPE   O11 3239   5.704   4.833  10.124  0.4797 -0.1757  0.4882
   26DOPE   O12 3240   5.736   5.075  10.179  0.1096  0.4523 -0.1341
   26DOPE    C1 3241   5.604   4.876  10.039  0.4189  0.0009  0.4479
   26DOPE    HA 3242   5.613   4.980  10.000  0.0980 -0.4962 -1.0007
   26DOPE    HB 3243   5.506   4.875  10.091  0.9124 -1.2562  1.3908
   26DOPE    C2 3244   5.592   4.780   9.919  0.2650  0.2105  0.5021
   26DOPE    HS 3245   5.563   4.677   9.950 -2.3029  0.2445 -1.5005
   26DOPE   O21 3246   5.712   4.795   9.854 -0.1779  0.6862  0.2677
   26DOPE   C21 3247   5.798   4.692   9.848 -0.2511  0.2856 -0.4838
   26DOPE   O22 3248   5.778   4.577   9.882  0.7446  0.3429 -0.5096
   26DOPE   C22 3249   5.928   4.747   9.801 -0.3847 -0.0851  0.7560
   26DOPE   H2R 3250   6.009   4.728   9.875 -0.0176 -0.4780  0.2590
   26DOPE   H2S 3251   5.919   4.857   9.785  0.4583  0.4649  3.4978
   26DOPE    C3 3252   5.472   4.827   9.827 -0.3595 -0.2587  0.6102
   26DOPE    HX 3253   5.475   4.937   9.812 -0.6828 -0.2209  0.8044
   26DOPE    HY 3254   5.377   4.812   9.883  0.0656 -0.9812  1.1514
   26DOPE   O31 3255   5.456   4.757   9.700 -0.4136 -0.2852 -0.3564
   26DOPE   C31 3256   5.537   4.810   9.601  0.7402 -0.6649  0.3208
   26DOPE   O32 3257   5.612   4.904   9.618 -0.1762  1.3038 -0.7940
   26DOPE   C32 3258   5.512   4.738   9.462 -0.6362 -0.3246 -0.2553
   26DOPE   H2X 3259   5.498   4.631   9.486 -0.9059  0.4403  3.5940
   26DOPE   H2Y 3260   5.418   4.779   9.420 -0.3017  0.4969 -0.2389
   26DOPE   C23 3261   5.965   4.688   9.655  0.3966 -0.1364  0.0131
   26DOPE   H3R 3262   5.866   4.687   9.603  0.2251  0.6737  0.3069
   26DOPE   H3S 3263   6.003   4.584   9.657  0.4346 -0.2428 -2.5915
   26DOPE   C24 3264   6.038   4.774   9.553  0.4787  0.0139  0.1302
   26DOPE   H4R 3265   6.144   4.773   9.586  0.7024 -0.8854 -0.5747
   26DOPE   H4S 3266   6.000   4.878   9.560 -1.2296 -0.6492  1.3661
   26DOPE   C25 3267   6.038   4.727   9.409  0.2964 -0.2091  0.2383
   26DOPE   H5R 3268   5.947   4.751   9.351  0.4756 -1.4957 -0.6060
   26DOPE   H5S 3269   6.032   4.616   9.419  0.7935 -0.3125 -0.5283
   26DOPE   C26 3270   6.148   4.787   9.321 -0.0982 -0.0959 -0.2385
   26DOPE   H6R 3271   6.237   4.726   9.346 -1.1942 -1.8508 -0.4732
   26DOPE   H6S 3272   6.164   4.893   9.353 -1.9655  0.1155  0.1040
   26DOPE   C27 3273   6.106   4.794   9.173 -0.0061 -0.7881  0.3827
   26DOPE   H7R 3274   6.181   4.836   9.103 -0.8581 -0.7209 -0.5082
   26DOPE   H7S 3275   6.017   4.861   9.164 -0.5838 -1.6358 -0.3505
   26DOPE   C28 3276   6.071   4.656   9.115 -0.1602 -0.1067 -0.0006
   26DOPE   H8R 3277   6.002   4.590   9.174 -0.3077 -0.6749 -0.7890
   26DOPE   H8S 3278   6.165   4.596   9.119 -0.4817 -0.5633  1.5982
   26DOPE   C29 3279   6.026   4.673   8.970 -0.3226  0.1630 -0.4163
   26DOPE   H9R 3280   5.918   4.691   8.969 -0.6331 -1.3350  1.3454
   26DOPE  C210 3281   6.097   4.667   8.857 -0.3251 -0.3094  0.1618
   26DOPE  H10R 3282   6.055   4.690   8.758  4.3690  1.5915 -1.6916
   26DOPE  C211 3283   6.247   4.654   8.832 -0.2455  1.1320  0.4873
   26DOPE  H11R 3284   6.308   4.688   8.918  1.4337 -2.3403  0.8335
   26DOPE  H11S 3285   6.268   4.732   8.756 -0.3035  1.2127  0.5540
   26DOPE  C212 3286   6.293   4.505   8.800 -0.4143 -0.7719 -0.2810
   26DOPE  H12R 3287   6.219   4.452   8.736 -1.0049  0.2592 -0.4632
   26DOPE  H12S 3288   6.284   4.438   8.888  0.9782 -1.9941 -1.0208
   26DOPE  C213 3289   6.437   4.495   8.756 -0.1680  0.2860 -0.7194
   26DOPE  H13R 3290   6.454   4.385   8.755  2.7462  0.6833 -2.1742
   26DOPE  H13S 3291   6.505   4.545   8.828 -0.8694  0.6790 -0.3175
   26DOPE  C214 3292   6.457   4.541   8.612 -0.1877 -0.6640 -0.4716
   26DOPE  H14R 3293   6.557   4.564   8.571  0.5710 -2.8005  0.0811
   26DOPE  H14S 3294   6.402   4.637   8.598  1.2012  0.0949 -0.8668
   26DOPE  C215 3295   6.398   4.446   8.509  0.1722  0.7012  0.1803
   26DOPE  H15R 3296   6.291   4.422   8.530 -0.0821  1.3008 -0.3759
   26DOPE  H15S 3297   6.461   4.355   8.513 -1.6372 -0.7549 -1.8952
   26DOPE  C216 3298   6.406   4.494   8.365 -0.2931  0.6001  0.2456
   26DOPE  H16R 3299   6.513   4.486   8.333  0.4272  0.2412  2.5985
   26DOPE  H16S 3300   6.370   4.599   8.358 -1.5764  0.1573  0.0628
   26DOPE  C217 3301   6.314   4.410   8.267 -0.0887  0.7848 -0.2290
   26DOPE  H17R 3302   6.217   4.379   8.310  0.5070 -0.6165  0.1544
   26DOPE  H17S 3303   6.373   4.315   8.271 -0.6975  0.3570 -1.1287
   26DOPE  C218 3304   6.322   4.444   8.118 -0.0757 -0.2930  0.0696
   26DOPE  H18R 3305   6.316   4.345   8.068 -1.8489 -0.4714  0.5424
   26DOPE  H18S 3306   6.417   4.491   8.086  0.1985 -0.6224  0.3918
   26DOPE  H18T 3307   6.241   4.509   8.079  0.4927  0.4129  0.0495
   26DOPE   C33 3308   5.630   4.748   9.361  0.8315  0.0464 -0.0843
   26DOPE   H3X 3309   5.726   4.701   9.390  0.1433  0.5120  3.4746
   26DOPE   H3Y 3310   5.656   4.850   9.325 -2.9109  0.7741 -1.2261
   26DOPE   C34 3311   5.587   4.678   9.227 -0.1407 -0.0220  0.0103
   26DOPE   H4X 3312   5.582   4.569   9.247  0.2598  0.0332  0.4278
   26DOPE   H4Y 3313   5.483   4.708   9.203 -0.8469 -0.6529  2.1005
   26DOPE   C35 3314   5.671   4.700   9.099  0.6222  0.0161  0.6661
   26DOPE   H5X 3315   5.781   4.691   9.115  0.7165 -0.9343 -0.3585
   26DOPE   H5Y 3316   5.645   4.800   9.060 -1.1304 -0.1875  1.2333
   26DOPE   C36 3317   5.630   4.606   8.983 -0.7174  0.1200 -0.0573
   26DOPE   H6X 3318   5.624   4.500   9.016 -0.9510 -0.1927 -1.0726
   26DOPE   H6Y 3319   5.720   4.610   8.917 -0.1949 -0.0652  0.6344
   26DOPE   C37 3320   5.504   4.652   8.905  0.2381  0.9175 -0.5633
   26DOPE   H7X 3321   5.416   4.683   8.965 -1.1806 -2.1724 -0.8803
   26DOPE   H7Y 3322   5.534   4.745   8.852  0.2375  1.1367 -0.1813
   26DOPE   C38 3323   5.471   4.547   8.803 -0.2653 -0.7303  0.3164
   26DOPE   H8X 3324   5.455   4.445   8.843  0.0788 -1.9847 -2.4704
   26DOPE   H8Y 3325   5.560   4.554   8.736 -1.0699  0.7887 -0.6500
   26DOPE   C39 3326   5.355   4.587   8.717  0.6795 -0.3529 -0.0144
   26DOPE   H9X 3327   5.303   4.679   8.747  1.2467  0.3729 -1.1949
   26DOPE  C310 3328   5.322   4.537   8.595  0.4680  0.1623 -0.4420
   26DOPE  H10X 3329   5.237   4.588   8.546 -0.9398  0.1143  1.7737
   26DOPE  C311 3330   5.399   4.427   8.531 -1.2768 -0.0981  0.1234
   26DOPE  H11X 3331   5.379   4.421   8.422 -0.4151  4.3328 -0.4326
   26DOPE  H11Y 3332   5.504   4.460   8.546 -1.4968  0.4289  0.5264
   26DOPE  C312 3333   5.376   4.287   8.586 -0.3912 -0.0134  0.3705
   26DOPE  H12X 3334   5.269   4.259   8.581 -0.1478 -0.9917  0.2487
   26DOPE  H12Y 3335   5.407   4.276   8.692  0.2778  1.2552  0.3181
   26DOPE  C313 3336   5.447   4.171   8.502 -0.6950  0.1078 -0.0113
   26DOPE  H13X 3337   5.388   4.160   8.409 -2.4295  1.4237  0.8925
   26DOPE  H13Y 3338   5.552   4.201   8.479  0.1527 -1.6360  1.2844
   26DOPE  C314 3339   5.464   4.035   8.584  0.1598 -0.7118 -1.1144
   26DOPE  H14X 3340   5.371   3.979   8.561 -1.5001  1.3577  0.2108
   26DOPE  H14Y 3341   5.465   4.068   8.690  1.2217 -0.2772 -1.2451
   26DOPE  C315 3342   5.592   3.960   8.553  0.8982  0.2812  0.1451
   26DOPE  H15X 3343   5.684   4.023   8.559 -0.1623  1.9350 -0.2632
   26DOPE  H15Y 3344   5.579   3.919   8.450 -1.0193 -1.5763  1.0641
   26DOPE  C316 3345   5.596   3.836   8.639  0.1868  0.7249 -0.5530
   26DOPE  H16X 3346   5.500   3.782   8.626 -0.1375  0.8550  1.0690
   26DOPE  H16Y 3347   5.602   3.866   8.746 -1.1177  2.9666 -1.0136
   26DOPE  C317 3348   5.708   3.732   8.603 -0.7930 -0.1571  0.4235
   26DOPE  H17X 3349   5.701   3.717   8.494 -2.1798  1.9112  0.1704
   26DOPE  H17Y 3350   5.807   3.774   8.632 -1.5129  0.3875  2.3047
   26DOPE  C318 3351   5.676   3.594   8.668 -0.3780 -0.2427  0.1800
   26DOPE  H18X 3352   5.769   3.541   8.698  0.7143  1.8004  0.5747
   26DOPE  H18Y 3353   5.611   3.617   8.755 -0.1483  1.4224 -0.0539
   26DOPE  H18Z 3354   5.610   3.533   8.602  0.7769 -2.0254  0.5876
   27DOPE     N 3355   3.897   0.050  10.623  0.0074 -0.5118  0.0127
   27DOPE   HN1 3356   3.810   0.065  10.678  0.8775  1.3655  0.9953
   27DOPE   HN2 3357   3.948  -0.032  10.661 -0.8367 -0.8960  0.3293
   27DOPE   HN3 3358   3.955   0.136  10.635 -0.1579 -0.4080  0.0581
   27DOPE   C12 3359   3.867   0.048  10.476 -0.6923 -0.4044 -0.5337
   27DOPE  H12A 3360   3.956   0.082  10.419 -1.3307  0.0724 -1.2568
   27DOPE  H12B 3361   3.799   0.134  10.457 -0.9048 -0.6924 -1.0837
   27DOPE   C11 3362   3.804  -0.084  10.440 -0.0885  0.4671  0.4097
   27DOPE  H11A 3363   3.797  -0.079  10.330  0.1244  2.5380  0.4533
   27DOPE  H11B 3364   3.704  -0.117  10.476  0.2414 -1.6102 -0.4422
   27DOPE     P 3365   3.989  -0.270  10.384 -0.2072  0.2774  0.1004
   27DOPE   O13 3366   4.040  -0.376  10.474  0.4333  0.6055 -0.2131
   27DOPE   O14 3367   4.075  -0.170  10.321 -0.3024 -0.0579  0.0770
   27DOPE   O11 3368   3.888  -0.333  10.273 -0.3733 -0.7461 -0.0345
   27DOPE   O12 3369   3.883  -0.198  10.476  0.3796  0.1137 -0.0054
   27DOPE    C1 3370   3.923  -0.453  10.202  0.1324  0.3614 -0.0740
   27DOPE    HA 3371   3.830  -0.515  10.199 -1.1412  2.1586  0.3406
   27DOPE    HB 3372   4.006  -0.510  10.247 -0.7486 -0.1829  0.9026
   27DOPE    C2 3373   3.949  -0.419  10.055 -0.6448 -0.0600 -0.4917
   27DOPE    HS 3374   3.951  -0.517  10.002 -0.6327 -0.1274 -0.3668
   27DOPE   O21 3375   4.081  -0.351  10.046  0.6568  0.0173  0.4272
   27DOPE   C21 3376   4.186  -0.425  10.039  0.3497 -0.8276  0.2238
   27DOPE   O22 3377   4.184  -0.548  10.046  0.3729 -0.1841  0.0588
   27DOPE   C22 3378   4.305  -0.338  10.034 -0.4153 -0.0049 -0.7747
   27DOPE   H2R 3379   4.375  -0.386  10.106 -1.3125 -0.8356 -0.4420
   27DOPE   H2S 3380   4.270  -0.240  10.072  1.3799  0.4099 -0.0622
   27DOPE    C3 3381   3.833  -0.339   9.980 -0.4204  0.1982  0.1143
   27DOPE    HX 3382   3.804  -0.263  10.055 -0.9296  0.4690 -0.3481
   27DOPE    HY 3383   3.747  -0.409   9.971  0.6768 -1.0165 -1.8160
   27DOPE   O31 3384   3.871  -0.303   9.848 -0.1920  0.4525 -0.2439
   27DOPE   C31 3385   3.925  -0.181   9.838 -0.6554  0.5524  0.1516
   27DOPE   O32 3386   3.933  -0.102   9.930  0.1680 -0.0967  0.0356
   27DOPE   C32 3387   3.968  -0.144   9.696  0.0203  0.0376  0.2342
   27DOPE   H2X 3388   4.025  -0.231   9.657  1.2141  1.5174 -1.5045
   27DOPE   H2Y 3389   3.881  -0.125   9.630  1.4687  0.0312 -1.7737
   27DOPE   C23 3390   4.369  -0.335   9.889  0.1703 -0.8904 -0.4738
   27DOPE   H3R 3391   4.292  -0.339   9.809  0.7460 -2.0318 -0.9886
   27DOPE   H3S 3392   4.418  -0.432   9.866 -0.7105 -1.0858 -1.6126
   27DOPE   C24 3393   4.481  -0.234   9.861 -0.1508  0.7929  0.6553
   27DOPE   H4R 3394   4.548  -0.281   9.786 -1.3709 -1.6916  0.9907
   27DOPE   H4S 3395   4.539  -0.218   9.954  2.0675  1.3087 -0.7515
   27DOPE   C25 3396   4.429  -0.099   9.805  0.2639  0.5358  0.4306
   27DOPE   H5R 3397   4.354  -0.053   9.873 -2.5244  0.8782 -2.6212
   27DOPE   H5S 3398   4.367  -0.120   9.715 -2.1195 -0.6066  2.2329
   27DOPE   C26 3399   4.536   0.003   9.773  0.0629  0.0797  0.1056
   27DOPE   H6R 3400   4.610   0.019   9.854  0.0528  2.4223 -0.2843
   27DOPE   H6S 3401   4.491   0.104   9.762 -0.1854 -0.1655 -1.3959
   27DOPE   C27 3402   4.629  -0.024   9.653  0.5324 -0.4631  0.7995
   27DOPE   H7R 3403   4.681  -0.121   9.668  0.5196 -0.6052 -0.0533
   27DOPE   H7S 3404   4.703   0.058   9.640  1.1002 -1.4062 -3.1795
   27DOPE   C28 3405   4.552  -0.027   9.518  1.0678  0.8016 -0.2293
   27DOPE   H8R 3406   4.504   0.073   9.514 -1.8834 -0.5220  0.1406
   27DOPE   H8S 3407   4.463  -0.092   9.521  1.4637  0.1994 -1.0250
   27DOPE   C29 3408   4.624  -0.054   9.393 -0.7334 -0.1278  0.8646
   27DOPE   H9R 3409   4.677  -0.151   9.393 -2.2569 -1.0156  1.4261
   27DOPE  C210 3410   4.643   0.025   9.281  0.0011  0.0013  0.2417
   27DOPE  H10R 3411   4.705  -0.008   9.196 -0.2855  3.1788 -1.3385
   27DOPE  C211 3412   4.586   0.161   9.258 -1.2801 -0.5801 -0.1708
   27DOPE  H11R 3413   4.670   0.228   9.231 -1.8969 -0.0377 -0.7569
   27DOPE  H11S 3414   4.542   0.201   9.352 -1.3282  1.1341 -0.8943
   27DOPE  C212 3415   4.482   0.177   9.146 -0.3818  0.3443 -0.2635
   27DOPE  H12R 3416   4.484   0.286   9.125  0.2441  0.3233 -0.3349
   27DOPE  H12S 3417   4.384   0.133   9.174 -0.4749  0.6115 -0.1723
   27DOPE  C213 3418   4.513   0.111   9.013 -0.7141  0.0674 -0.3055
   27DOPE  H13R 3419   4.432   0.135   8.942  0.8123  0.5514 -1.9505
   27DOPE  H13S 3420   4.517   0.000   9.026 -1.3115  0.2160  1.4495
   27DOPE  C214 3421   4.635   0.170   8.946  0.0433 -0.3547 -0.0116
   27DOPE  H14R 3422   4.719   0.164   9.018 -0.1030  1.0351  0.3086
   27DOPE  H14S 3423   4.611   0.277   8.929 -1.6457 -0.3037  2.1929
   27DOPE  C215 3424   4.673   0.124   8.803 -0.3451  0.1372  0.5433
   27DOPE  H15R 3425   4.723   0.024   8.803  0.4371  0.4963 -0.8760
   27DOPE  H15S 3426   4.738   0.194   8.746  0.6197 -1.7303 -0.7528
   27DOPE  C216 3427   4.546   0.120   8.709  0.0896 -0.0227  0.4470
   27DOPE  H16R 3428   4.469   0.048   8.745 -2.4540  2.5777  0.6097
   27DOPE  H16S 3429   4.576   0.087   8.607  1.3054  2.2370 -0.0119
   27DOPE  C217 3430   4.472   0.261   8.689 -0.5809  0.3335  0.2439
   27DOPE  H17R 3431   4.541   0.340   8.650  0.5803 -1.3288 -1.2649
   27DOPE  H17S 3432   4.443   0.298   8.789 -0.1650 -0.3207  0.6095
   27DOPE  C218 3433   4.340   0.246   8.603  0.1642  0.2161 -0.4437
   27DOPE  H18R 3434   4.277   0.337   8.611  0.4355  0.2406  2.4184
   27DOPE  H18S 3435   4.282   0.155   8.633  0.0092  1.0017  1.8688
   27DOPE  H18T 3436   4.364   0.230   8.496  1.9379  1.8892 -0.3318
   27DOPE   C33 3437   4.066  -0.020   9.702 -0.6257  0.3116  0.1622
   27DOPE   H3X 3438   4.152  -0.041   9.768 -1.1478 -1.6286  0.2937
   27DOPE   H3Y 3439   4.021   0.067   9.755  3.4979  0.5950  3.7722
   27DOPE   C34 3440   4.107   0.029   9.558 -0.1833 -0.1731  0.2918
   27DOPE   H4X 3441   4.155  -0.057   9.505 -1.6504 -0.6339 -0.3269
   27DOPE   H4Y 3442   4.016   0.058   9.502 -0.3596  0.9186  1.1049
   27DOPE   C35 3443   4.199   0.144   9.568 -0.1487 -0.9789  0.6563
   27DOPE   H5X 3444   4.218   0.168   9.462 -1.5485 -1.4900  0.2675
   27DOPE   H5Y 3445   4.298   0.126   9.615  1.1118  1.4129 -0.8609
   27DOPE   C36 3446   4.147   0.267   9.650 -0.7585 -0.4628 -0.0168
   27DOPE   H6X 3447   4.138   0.246   9.759  1.7661  1.2796  0.6166
   27DOPE   H6Y 3448   4.046   0.274   9.604 -0.2363 -0.7155 -1.2536
   27DOPE   C37 3449   4.220   0.399   9.633 -0.3303  0.1838  0.3980
   27DOPE   H7X 3450   4.321   0.386   9.678 -0.7039  0.5230  1.3532
   27DOPE   H7Y 3451   4.227   0.419   9.524  0.3744  1.1591  0.6069
   27DOPE   C38 3452   4.158   0.522   9.703  0.7737 -1.0735  0.8074
   27DOPE   H8X 3453   4.214   0.615   9.679  0.1142 -0.7829  0.3636
   27DOPE   H8Y 3454   4.167   0.502   9.812  0.4292 -1.8703  0.6967
   27DOPE   C39 3455   4.011   0.544   9.672 -0.4650 -0.2012  0.7814
   27DOPE   H9X 3456   3.945   0.548   9.760  1.2334 -1.0602  2.1605
   27DOPE  C310 3457   3.962   0.571   9.552 -0.3592  0.3941  0.4123
   27DOPE  H10X 3458   3.857   0.600   9.544  0.2526  3.0170  0.8211
   27DOPE  C311 3459   4.046   0.588   9.425 -0.4567  0.4865  0.4664
   27DOPE  H11X 3460   4.147   0.632   9.440  0.6460 -2.0221  0.7516
   27DOPE  H11Y 3461   4.059   0.493   9.370  1.6125  0.9588  0.0625
   27DOPE  C312 3462   3.971   0.683   9.334 -0.0722  0.0849 -1.0205
   27DOPE  H12X 3463   4.047   0.709   9.257  2.2248 -3.1245 -0.0710
   27DOPE  H12Y 3464   3.962   0.775   9.395  0.0201 -2.2450  2.8113
   27DOPE  C313 3465   3.831   0.630   9.284 -0.0769 -0.1690 -0.5412
   27DOPE  H13X 3466   3.831   0.531   9.232 -2.8234  0.4863 -2.0494
   27DOPE  H13Y 3467   3.765   0.610   9.372  0.5754  0.4626  0.0925
   27DOPE  C314 3468   3.759   0.716   9.175  0.0088  0.1236 -0.7450
   27DOPE  H14X 3469   3.684   0.668   9.108 -0.7710  0.4172 -0.0991
   27DOPE  H14Y 3470   3.818   0.763   9.094  0.2434 -1.9768 -1.8806
   27DOPE  C315 3471   3.679   0.825   9.245 -0.8892 -0.1566 -0.5676
   27DOPE  H15X 3472   3.758   0.897   9.276  1.1056 -2.4118 -0.1422
   27DOPE  H15Y 3473   3.628   0.790   9.338  1.6605  1.6314  1.6839
   27DOPE  C316 3474   3.581   0.899   9.158  0.4381 -0.3932 -0.1880
   27DOPE  H16X 3475   3.497   0.833   9.129  0.9695 -1.3258  0.3500
   27DOPE  H16Y 3476   3.635   0.929   9.065  1.2926  0.1138  0.4579
   27DOPE  C317 3477   3.522   1.024   9.231  0.4352  0.1036  0.1926
   27DOPE  H17X 3478   3.476   0.998   9.329 -0.8294 -1.4943 -0.7815
   27DOPE  H17Y 3479   3.608   1.093   9.247 -0.0493  0.7179  0.1846
   27DOPE  C318 3480   3.421   1.091   9.139  0.7522 -0.2758  0.4656
   27DOPE  H18X 3481   3.479   1.116   9.048 -1.2205  3.0934  0.0128
   27DOPE  H18Y 3482   3.340   1.015   9.127 -0.1071  0.1998  2.7790
   27DOPE  H18Z 3483   3.380   1.177   9.195  2.0697  0.4103  0.4167
   28DOPE     N 3484   5.757   4.631  10.336 -0.3318  0.7651 -0.5441
   28DOPE   HN1 3485   5.804   4.722  10.319  2.6685 -0.4172  0.7104
   28DOPE   HN2 3486   5.654   4.638  10.339 -0.6646 -2.3936 -0.8100
   28DOPE   HN3 3487   5.787   4.608  10.433 -2.1971  1.3173  0.2033
   28DOPE   C12 3488   5.810   4.524  10.245  0.0176  0.0463 -0.2695
   28DOPE  H12A 3489   5.755   4.543  10.150  0.6229  0.9291 -0.4534
   28DOPE  H12B 3490   5.775   4.426  10.283 -0.0734  0.0233 -0.4082
   28DOPE   C11 3491   5.962   4.518  10.222  0.0803 -0.2131 -0.3044
   28DOPE  H11A 3492   6.002   4.608  10.172  0.3643  0.8027  1.6446
   28DOPE  H11B 3493   5.984   4.431  10.156 -1.5653 -0.1001 -1.0349
   28DOPE     P 3494   6.042   4.353  10.417 -0.4577 -0.3058 -0.1711
   28DOPE   O13 3495   5.977   4.367  10.545  0.1336  0.0765 -0.2408
   28DOPE   O14 3496   6.189   4.322  10.426 -0.0599  0.4082  0.1347
   28DOPE   O11 3497   5.958   4.250  10.322  0.1811  0.2815 -0.1079
   28DOPE   O12 3498   6.024   4.500  10.351  0.2462  0.5822  0.3159
   28DOPE    C1 3499   6.010   4.132  10.274 -0.2888 -0.2971  0.7811
   28DOPE    HA 3500   5.956   4.048  10.322 -0.1134 -0.8459  0.0492
   28DOPE    HB 3501   6.121   4.124  10.284  0.1685  0.0788 -2.5480
   28DOPE    C2 3502   5.990   4.109  10.117 -0.2611 -0.5461 -0.0791
   28DOPE    HS 3503   6.054   4.027  10.079 -0.8535 -0.9863 -0.1534
   28DOPE   O21 3504   6.016   4.226  10.039  0.1961 -0.2275 -0.1674
   28DOPE   C21 3505   6.139   4.268  10.025  0.5943 -0.5152 -0.4013
   28DOPE   O22 3506   6.233   4.211  10.082  0.0641 -0.0901  0.1317
   28DOPE   C22 3507   6.146   4.394   9.942 -0.5691 -0.5356  0.2653
   28DOPE   H2R 3508   6.201   4.463  10.010 -1.3383  0.3269  0.0427
   28DOPE   H2S 3509   6.044   4.437   9.929 -0.4828  0.1345  1.6275
   28DOPE    C3 3510   5.845   4.061  10.085  0.1198 -0.3531 -0.6362
   28DOPE    HX 3511   5.794   4.152  10.124  1.4882  0.3814 -0.4756
   28DOPE    HY 3512   5.814   3.978  10.152  0.3134 -0.3347 -0.5222
   28DOPE   O31 3513   5.815   4.035   9.949 -0.5702  0.1056  0.1459
   28DOPE   C31 3514   5.879   3.932   9.892 -0.6323  0.1467 -0.0133
   28DOPE   O32 3515   5.959   3.857   9.950 -0.3603 -0.3555 -0.0280
   28DOPE   C32 3516   5.835   3.920   9.747  0.6392 -0.2832 -0.1839
   28DOPE   H2X 3517   5.899   3.839   9.706 -0.3299 -1.4519  0.5729
   28DOPE   H2Y 3518   5.727   3.896   9.755 -0.0098  2.5986  0.8872
   28DOPE   C23 3519   6.221   4.366   9.814 -0.2410  0.3867  0.4444
   28DOPE   H3R 3520   6.308   4.297   9.824  0.0777  0.5282 -1.1166
   28DOPE   H3S 3521   6.257   4.462   9.774 -0.4777 -0.1510 -1.1265
   28DOPE   C24 3522   6.141   4.311   9.695  0.3888  0.7260 -0.7478
   28DOPE   H4R 3523   6.043   4.362   9.700  0.9387  1.6676  2.1146
   28DOPE   H4S 3524   6.137   4.202   9.712  1.4421  0.3508 -2.5782
   28DOPE   C25 3525   6.196   4.345   9.555  0.1185 -0.8202 -0.2860
   28DOPE   H5R 3526   6.192   4.454   9.533  0.9401 -1.0994 -2.0100
   28DOPE   H5S 3527   6.148   4.282   9.477 -0.4620  0.2180 -0.7873
   28DOPE   C26 3528   6.340   4.288   9.536 -0.3512 -0.1873  0.1680
   28DOPE   H6R 3529   6.347   4.180   9.558  1.2549 -0.3120 -0.7548
   28DOPE   H6S 3530   6.403   4.350   9.604  0.5542  0.4589 -1.2075
   28DOPE   C27 3531   6.405   4.290   9.397  0.1810 -0.4244 -0.9358
   28DOPE   H7R 3532   6.337   4.239   9.326  0.2855 -1.9862  0.0258
   28DOPE   H7S 3533   6.505   4.241   9.399  0.4069 -0.0539  2.2036
   28DOPE   C28 3534   6.433   4.439   9.358 -0.0942 -0.1393 -0.4319
   28DOPE   H8R 3535   6.519   4.476   9.419  0.0251 -2.2579  0.7852
   28DOPE   H8S 3536   6.340   4.494   9.383 -0.8422 -0.0512 -3.0715
   28DOPE   C29 3537   6.455   4.440   9.203  0.0427  0.3866 -0.4022
   28DOPE   H9R 3538   6.366   4.413   9.145 -0.2696  0.9733 -0.2004
   28DOPE  C210 3539   6.570   4.473   9.151  0.4460 -0.0261 -0.0457
   28DOPE  H10R 3540   6.577   4.474   9.041  1.0187 -0.0881 -0.0113
   28DOPE  C211 3541   6.697   4.505   9.230 -0.4781  0.8206 -0.1539
   28DOPE  H11R 3542   6.782   4.482   9.162 -0.9025  0.7312 -0.6655
   28DOPE  H11S 3543   6.707   4.432   9.312  1.5223 -1.1206 -1.9931
   28DOPE  C212 3544   6.700   4.650   9.282 -0.2724 -0.2152  0.1693
   28DOPE  H12R 3545   6.800   4.673   9.325  0.2968 -0.6006 -0.8992
   28DOPE  H12S 3546   6.614   4.664   9.351 -1.5996 -1.2793 -1.1947
   28DOPE  C213 3547   6.686   4.755   9.170 -0.1929 -0.8228  0.0392
   28DOPE  H13R 3548   6.607   4.730   9.096 -1.7997  1.0218  1.0405
   28DOPE  H13S 3549   6.778   4.766   9.109 -0.1896 -0.8233  0.0437
   28DOPE  C214 3550   6.666   4.899   9.235  0.0600  0.1407  0.4178
   28DOPE  H14R 3551   6.701   4.964   9.152 -0.8884 -0.3238 -0.3666
   28DOPE  H14S 3552   6.730   4.902   9.325 -0.6898  0.4383  0.9483
   28DOPE  C215 3553   6.512   4.918   9.253 -0.5950  0.6253  0.1196
   28DOPE  H15R 3554   6.477   4.817   9.284 -0.9874  0.3547 -1.1139
   28DOPE  H15S 3555   6.461   4.941   9.157 -2.5768 -0.1454  0.9465
   28DOPE  C216 3556   6.470   5.023   9.361  0.5170 -0.0219 -0.1785
   28DOPE  H16R 3557   6.360   5.036   9.350  0.5429  1.3057  0.9546
   28DOPE  H16S 3558   6.506   5.120   9.322 -1.1551  0.8756  0.4262
   28DOPE  C217 3559   6.515   4.985   9.496 -0.0534 -0.4488  0.0866
   28DOPE  H17R 3560   6.500   5.068   9.567 -5.6575  0.2681 -1.4942
   28DOPE  H17S 3561   6.622   4.955   9.487  0.3575 -0.2812  3.3006
   28DOPE  C218 3562   6.432   4.869   9.558 -0.2374  0.1697 -0.3854
   28DOPE  H18R 3563   6.324   4.893   9.561 -0.0403  0.9775  0.7365
   28DOPE  H18S 3564   6.460   4.850   9.664  0.6539  1.2848 -0.4032
   28DOPE  H18T 3565   6.450   4.774   9.504  0.2253 -0.2636  0.5026
   28DOPE   C33 3566   5.858   4.060   9.672  0.2545  0.3981  0.1279
   28DOPE   H3X 3567   5.957   4.103   9.701  1.1097 -1.9274  0.9235
   28DOPE   H3Y 3568   5.783   4.136   9.701  0.4414  0.3212  0.8378
   28DOPE   C34 3569   5.860   4.047   9.522  0.0248  0.1104 -0.3855
   28DOPE   H4X 3570   5.940   3.983   9.479  0.8957  1.5382 -0.9572
   28DOPE   H4Y 3571   5.768   3.992   9.492  1.2643 -3.0868  1.2364
   28DOPE   C35 3572   5.862   4.180   9.450 -0.0997  0.5916 -0.0547
   28DOPE   H5X 3573   5.932   4.244   9.507 -0.2368 -0.3022  1.1634
   28DOPE   H5Y 3574   5.768   4.239   9.444  0.3283  1.3486  0.5037
   28DOPE   C36 3575   5.918   4.169   9.305 -0.6436  0.8433  0.1005
   28DOPE   H6X 3576   5.845   4.106   9.249 -0.2329  0.7681 -0.3553
   28DOPE   H6Y 3577   6.004   4.101   9.318 -1.7187 -0.7627 -0.8440
   28DOPE   C37 3578   5.938   4.297   9.230 -0.3732  0.0990  0.6162
   28DOPE   H7X 3579   5.841   4.353   9.224 -1.6034 -1.7441  2.1568
   28DOPE   H7Y 3580   6.014   4.353   9.288  1.1907  1.7058 -2.7127
   28DOPE   C38 3581   5.992   4.275   9.080 -0.0545  0.1579  0.9571
   28DOPE   H8X 3582   6.097   4.240   9.088  0.3988  1.5232  1.2497
   28DOPE   H8Y 3583   6.007   4.370   9.025  1.1103 -1.3405 -1.4867
   28DOPE   C39 3584   5.915   4.174   8.990  0.4498  0.0262 -0.7866
   28DOPE   H9X 3585   5.917   4.072   9.032 -1.2626  1.0079  2.0218
   28DOPE  C310 3586   5.846   4.204   8.881  0.6724  0.0737 -0.1229
   28DOPE  H10X 3587   5.806   4.120   8.821  0.3664 -0.1787  0.4196
   28DOPE  C311 3588   5.812   4.336   8.817  0.6109  0.1004  0.0573
   28DOPE  H11X 3589   5.702   4.335   8.808  0.5368  0.9247  0.7507
   28DOPE  H11Y 3590   5.829   4.412   8.896 -0.3138 -0.5624  0.9162
   28DOPE  C312 3591   5.882   4.381   8.685 -0.2888 -0.6238 -0.4713
   28DOPE  H12X 3592   5.992   4.374   8.696 -0.4127  0.4336  2.1357
   28DOPE  H12Y 3593   5.858   4.488   8.664  1.9370  0.3150  1.3468
   28DOPE  C313 3594   5.837   4.314   8.564 -0.2699  0.2505 -0.1698
   28DOPE  H13X 3595   5.873   4.210   8.581 -1.0550  0.1903  1.2595
   28DOPE  H13Y 3596   5.726   4.308   8.565 -0.5041  1.5131  4.5304
   28DOPE  C314 3597   5.902   4.354   8.429  0.2445  0.4470 -0.0687
   28DOPE  H14X 3598   5.864   4.283   8.353 -0.0816  0.0504  0.4539
   28DOPE  H14Y 3599   6.012   4.355   8.447  0.1994 -1.3455  0.4735
   28DOPE  C315 3600   5.868   4.498   8.382 -0.4148  0.1188  0.4380
   28DOPE  H15X 3601   5.898   4.561   8.468  1.5379 -0.4417  0.2061
   28DOPE  H15Y 3602   5.761   4.524   8.366 -0.3359 -1.1374 -2.9835
   28DOPE  C316 3603   5.949   4.548   8.266  0.5713 -0.2457  0.1328
   28DOPE  H16X 3604   6.057   4.550   8.294  0.6991 -0.9413 -0.2795
   28DOPE  H16Y 3605   5.907   4.646   8.235 -0.3442 -0.9947 -1.1064
   28DOPE  C317 3606   5.931   4.459   8.136  0.0804 -0.2475 -0.6851
   28DOPE  H17X 3607   6.001   4.375   8.117 -0.0847 -0.5389 -0.0312
   28DOPE  H17Y 3608   5.830   4.416   8.154  0.8749 -2.8279 -1.8308
   28DOPE  C318 3609   5.912   4.556   8.017  0.0246  0.0609  0.1176
   28DOPE  H18X 3610   5.867   4.494   7.936 -1.2910  1.1975 -0.0631
   28DOPE  H18Y 3611   5.847   4.641   8.046  0.3634  0.9799 -1.6777
   28DOPE  H18Z 3612   6.011   4.589   7.980 -1.5605  1.9739 -2.8263
   29DOPE     N 3613   6.821   6.492  10.049  0.0962 -0.3357  0.0942
   29DOPE   HN1 3614   6.794   6.434  10.131 -0.1042 -0.5985 -0.1588
   29DOPE   HN2 3615   6.754   6.571  10.052 -0.8193 -1.1090  2.1774
   29DOPE   HN3 3616   6.825   6.441   9.959  0.7580 -0.0146 -0.0695
   29DOPE   C12 3617   6.955   6.564  10.064 -0.0149  0.0556  0.2982
   29DOPE  H12A 3618   7.027   6.495  10.014 -0.0509  1.2596 -1.5155
   29DOPE  H12B 3619   6.969   6.584  10.172  0.4713  1.2822  0.0301
   29DOPE   C11 3620   6.958   6.701   9.991  0.2477  0.1914 -0.4050
   29DOPE  H11A 3621   6.944   6.689   9.881 -0.9208 -3.6816 -0.0019
   29DOPE  H11B 3622   7.057   6.747  10.012  0.1207 -0.2786  1.4105
   29DOPE     P 3623   6.867   6.933  10.043 -0.1598  0.1418 -0.6234
   29DOPE   O13 3624   7.004   6.955  10.087 -0.0798  0.7717 -0.1062
   29DOPE   O14 3625   6.748   6.978  10.120 -0.0958  0.3607 -0.3558
   29DOPE   O11 3626   6.856   6.980   9.895  0.5069 -0.0249  0.1062
   29DOPE   O12 3627   6.845   6.781  10.022 -0.0711 -0.1579 -0.4604
   29DOPE    C1 3628   6.740   6.967   9.806  0.1849 -0.1777 -0.3768
   29DOPE    HA 3629   6.723   7.065   9.756 -1.5606  0.1385  0.7499
   29DOPE    HB 3630   6.655   6.938   9.871  0.2189 -0.5582 -0.4990
   29DOPE    C2 3631   6.766   6.851   9.710 -0.0020 -0.3564  0.6379
   29DOPE    HS 3632   6.836   6.778   9.756  1.3247  0.0171 -0.7240
   29DOPE   O21 3633   6.813   6.895   9.575  0.9053  0.4343  0.0903
   29DOPE   C21 3634   6.929   6.943   9.580 -0.2876 -0.1103  0.2070
   29DOPE   O22 3635   7.008   6.952   9.674  0.2128  0.2465 -0.6838
   29DOPE   C22 3636   6.972   6.999   9.441 -0.2687  0.2069 -0.2600
   29DOPE   H2R 3637   6.930   6.925   9.369  2.6191 -0.8172 -1.0185
   29DOPE   H2S 3638   7.082   7.006   9.430 -0.3877  0.4541 -1.4977
   29DOPE    C3 3639   6.634   6.767   9.689  0.6933 -0.5340 -0.0992
   29DOPE    HX 3640   6.554   6.834   9.650  1.5354  1.8556  2.0611
   29DOPE    HY 3641   6.591   6.722   9.781 -1.3001 -0.0678 -0.7547
   29DOPE   O31 3642   6.652   6.662   9.595 -0.6529  0.3080 -0.3566
   29DOPE   C31 3643   6.715   6.552   9.650 -0.9385 -0.3204  0.1250
   29DOPE   O32 3644   6.780   6.549   9.752 -0.0318  0.2561 -0.7535
   29DOPE   C32 3645   6.704   6.434   9.548 -0.4378 -0.3254 -0.4186
   29DOPE   H2X 3646   6.804   6.386   9.555 -0.7796 -1.1665 -1.1060
   29DOPE   H2Y 3647   6.633   6.354   9.578 -1.3062  0.3867 -0.5369
   29DOPE   C23 3648   6.904   7.137   9.422  0.7413  0.1259  0.5553
   29DOPE   H3R 3649   6.944   7.200   9.504  2.5480 -0.3832  0.1151
   29DOPE   H3S 3650   6.801   7.122   9.459  1.5621 -1.6682  2.2658
   29DOPE   C24 3651   6.920   7.202   9.276 -0.4123  0.2408  0.3741
   29DOPE   H4R 3652   6.849   7.288   9.274 -0.1358  0.4644  0.1465
   29DOPE   H4S 3653   6.884   7.137   9.194  0.4890  1.5327 -1.0935
   29DOPE   C25 3654   7.060   7.247   9.240 -0.1759  0.0656 -0.2094
   29DOPE   H5R 3655   7.120   7.155   9.228  2.1218  1.4886 -0.2978
   29DOPE   H5S 3656   7.098   7.317   9.318 -0.7096  0.8259 -0.6092
   29DOPE   C26 3657   7.058   7.325   9.104  0.0424  0.7065 -0.1321
   29DOPE   H6R 3658   6.987   7.293   9.024 -0.6475 -0.3931  0.8887
   29DOPE   H6S 3659   7.152   7.311   9.046  0.1926 -1.4669  0.5649
   29DOPE   C27 3660   7.040   7.478   9.124  0.4037 -0.3279  0.5365
   29DOPE   H7R 3661   7.121   7.516   9.189 -1.2333  0.5153  2.1485
   29DOPE   H7S 3662   6.947   7.499   9.180  0.1938 -0.2780  0.1738
   29DOPE   C28 3663   7.024   7.556   8.998  0.1296 -0.3288  0.7833
   29DOPE   H8R 3664   6.956   7.501   8.929 -1.9733  0.2613  2.2686
   29DOPE   H8S 3665   7.121   7.567   8.946  0.3568 -0.9374  1.0710
   29DOPE   C29 3666   6.955   7.690   9.034 -0.3624  0.5105  0.3857
   29DOPE   H9R 3667   6.886   7.680   9.119 -2.9343  0.0974 -1.6336
   29DOPE  C210 3668   6.967   7.802   8.965  0.1911 -0.3548 -0.2136
   29DOPE  H10R 3669   6.936   7.899   9.006  1.2091 -0.5528  1.1071
   29DOPE  C211 3670   7.041   7.805   8.830 -0.7520 -0.7994  0.5694
   29DOPE  H11R 3671   7.084   7.708   8.797  0.1839 -0.3758  0.5084
   29DOPE  H11S 3672   7.138   7.858   8.838 -0.7245 -1.0330  2.0098
   29DOPE  C212 3673   6.953   7.861   8.710 -0.3982 -0.4577  0.0597
   29DOPE  H12R 3674   6.940   7.968   8.734  0.4017 -0.6998  1.7492
   29DOPE  H12S 3675   6.853   7.811   8.713 -0.7463  0.0971 -1.4329
   29DOPE  C213 3676   7.027   7.843   8.576 -0.0106 -0.5087 -0.1087
   29DOPE  H13R 3677   7.042   7.735   8.554 -1.3148 -0.6673 -0.2879
   29DOPE  H13S 3678   7.130   7.884   8.575  0.2658 -1.1878 -0.6392
   29DOPE  C214 3679   6.938   7.890   8.459 -0.3296  0.1611 -0.2175
   29DOPE  H14R 3680   6.932   8.001   8.459 -0.3317  0.1609 -0.1642
   29DOPE  H14S 3681   6.841   7.843   8.484  1.1235 -1.8750  2.0322
   29DOPE  C215 3682   6.986   7.837   8.322  0.0647 -0.8115  0.1636
   29DOPE  H15R 3683   6.975   7.727   8.322  0.5748 -0.8650  0.5215
   29DOPE  H15S 3684   7.094   7.857   8.307  0.3603 -1.9158  0.7267
   29DOPE  C216 3685   6.909   7.894   8.198  0.2666  0.1912  0.1268
   29DOPE  H16R 3686   6.829   7.818   8.188  0.1218  0.0598  1.8867
   29DOPE  H16S 3687   6.957   7.886   8.098 -2.2901  0.2545 -1.1766
   29DOPE  C217 3688   6.854   8.038   8.205  0.4027  0.6837  0.5158
   29DOPE  H17R 3689   6.791   8.050   8.295 -1.5047  0.7890 -0.7751
   29DOPE  H17S 3690   6.789   8.060   8.117  1.3956 -1.9633 -1.0056
   29DOPE  C218 3691   6.966   8.135   8.224  0.1348  0.3822  0.1629
   29DOPE  H18R 3692   7.030   8.135   8.133 -0.7290 -1.2310 -0.4795
   29DOPE  H18S 3693   7.040   8.117   8.305  1.0976 -0.9935 -0.9736
   29DOPE  H18T 3694   6.927   8.239   8.229 -0.3409  0.1451  2.0275
   29DOPE   C33 3695   6.691   6.469   9.392  0.4184  0.2737 -0.6120
   29DOPE   H3X 3696   6.598   6.530   9.383  0.2019 -0.3489 -3.3676
   29DOPE   H3Y 3697   6.673   6.380   9.329 -2.0504  0.3380 -0.1189
   29DOPE   C34 3698   6.810   6.548   9.334  0.2522 -0.4878  0.1473
   29DOPE   H4X 3699   6.834   6.635   9.399  0.1152 -1.0406  0.9583
   29DOPE   H4Y 3700   6.901   6.484   9.335 -0.1695 -1.1089  1.0934
   29DOPE   C35 3701   6.767   6.600   9.193  0.1321  0.0413  0.0071
   29DOPE   H5X 3702   6.678   6.666   9.197 -0.8378 -1.2864  1.4653
   29DOPE   H5Y 3703   6.746   6.511   9.129 -1.2448 -0.0107  0.4891
   29DOPE   C36 3704   6.866   6.689   9.123 -0.3244  0.1295 -0.2977
   29DOPE   H6X 3705   6.956   6.624   9.124 -1.0342 -0.9254 -1.4105
   29DOPE   H6Y 3706   6.881   6.770   9.197 -1.1432 -2.2095  2.6541
   29DOPE   C37 3707   6.816   6.732   8.986  0.2039  0.4014  0.2884
   29DOPE   H7X 3708   6.817   6.641   8.922 -2.7715  0.9201 -0.6520
   29DOPE   H7Y 3709   6.709   6.761   8.990 -1.2815 -4.1471 -0.9378
   29DOPE   C38 3710   6.903   6.845   8.927  0.1196  0.7681  0.0303
   29DOPE   H8X 3711   6.996   6.801   8.884 -0.5943 -0.2009 -0.5513
   29DOPE   H8Y 3712   6.934   6.921   9.002  0.3025  0.5776  0.1458
   29DOPE   C39 3713   6.828   6.909   8.815 -0.1719 -0.8306 -0.0248
   29DOPE   H9X 3714   6.720   6.897   8.832 -0.3402 -2.4046 -1.8325
   29DOPE  C310 3715   6.875   6.954   8.698  0.1455  0.3225 -0.4038
   29DOPE  H10X 3716   6.805   7.009   8.633  1.4330 -0.2843 -2.3960
   29DOPE  C311 3717   7.014   6.963   8.644  0.2655  0.1892 -0.2726
   29DOPE  H11X 3718   7.086   6.924   8.719  1.3608  2.2185 -0.1912
   29DOPE  H11Y 3719   7.010   6.905   8.549 -2.0992 -0.7157  0.3159
   29DOPE  C312 3720   7.054   7.110   8.610 -0.5110  0.6333 -0.5310
   29DOPE  H12X 3721   6.994   7.150   8.525 -0.9157  1.4470  0.1246
   29DOPE  H12Y 3722   7.158   7.094   8.573 -0.1806  0.9677  0.2475
   29DOPE  C313 3723   7.063   7.208   8.731  0.4095  0.2650 -0.9637
   29DOPE  H13X 3724   6.963   7.256   8.732 -0.8360 -2.2080 -0.2529
   29DOPE  H13Y 3725   7.059   7.145   8.823 -3.1448  0.4117 -0.8788
   29DOPE  C314 3726   7.185   7.299   8.733  0.3231 -0.7096 -0.0541
   29DOPE  H14X 3727   7.282   7.246   8.723 -0.1028 -1.8018  1.3585
   29DOPE  H14Y 3728   7.199   7.338   8.836  2.4364  0.8699 -0.8533
   29DOPE  C315 3729   7.183   7.417   8.645  0.2933  0.5593  0.1131
   29DOPE  H15X 3730   7.095   7.483   8.663 -1.0646 -1.3472  0.8022
   29DOPE  H15Y 3731   7.173   7.378   8.541  0.1414 -0.1624  0.3925
   29DOPE  C316 3732   7.307   7.500   8.658 -0.3184 -0.3307 -0.1510
   29DOPE  H16X 3733   7.399   7.439   8.645  2.0120  2.7812  0.4888
   29DOPE  H16Y 3734   7.314   7.549   8.758 -0.2167 -2.0399  0.7263
   29DOPE  C317 3735   7.333   7.596   8.540  0.5924  0.0374 -0.2492
   29DOPE  H17X 3736   7.279   7.569   8.447  0.9915 -0.4107 -0.3530
   29DOPE  H17Y 3737   7.294   7.695   8.572  0.8216  0.3180 -0.8305
   29DOPE  C318 3738   7.480   7.632   8.514 -0.0311  0.0452 -0.3103
   29DOPE  H18X 3739   7.547   7.553   8.474  0.4757  0.9036 -1.1923
   29DOPE  H18Y 3740   7.476   7.712   8.437 -0.9697  0.4731  0.1555
   29DOPE  H18Z 3741   7.522   7.677   8.606 -0.6061 -0.1273  0.0417
   30DOPE     N 3742   5.942   6.752   9.764 -0.1318  0.2165  0.5010
   30DOPE   HN1 3743   5.892   6.810   9.694 -0.1997  0.3634  0.6704
   30DOPE   HN2 3744   6.008   6.697   9.705 -0.7015  1.4750 -1.4065
   30DOPE   HN3 3745   5.863   6.693   9.799 -0.3268 -0.8180 -1.5345
   30DOPE   C12 3746   5.985   6.844   9.879  0.2073  0.3001 -1.0809
   30DOPE  H12A 3747   5.896   6.900   9.916  1.2491  0.8638  0.6846
   30DOPE  H12B 3748   6.068   6.906   9.839  0.7454 -0.1098 -0.6038
   30DOPE   C11 3749   6.041   6.765   9.996 -0.7853 -0.5363 -0.1454
   30DOPE  H11A 3750   5.961   6.714  10.054  0.9829 -1.4586  1.5904
   30DOPE  H11B 3751   6.102   6.824  10.068  0.4234 -2.0378  0.1047
   30DOPE     P 3752   6.200   6.569  10.058 -0.4770  0.2148 -0.6150
   30DOPE   O13 3753   6.203   6.628  10.191  0.2178 -0.1607 -0.1564
   30DOPE   O14 3754   6.338   6.527  10.011  0.0790  0.3544  0.8601
   30DOPE   O11 3755   6.107   6.444  10.057 -0.1680  0.1607 -0.2203
   30DOPE   O12 3756   6.137   6.673   9.950 -0.5605 -0.2513  0.2090
   30DOPE    C1 3757   6.041   6.393   9.941  0.9042 -0.3474 -0.7224
   30DOPE    HA 3758   5.982   6.476   9.897 -0.7106 -0.9587  0.1987
   30DOPE    HB 3759   5.971   6.315   9.979  1.3523 -0.3320  0.1415
   30DOPE    C2 3760   6.139   6.328   9.847  0.2738 -0.2872 -0.1125
   30DOPE    HS 3761   6.229   6.392   9.833 -0.2157 -0.2349 -4.0939
   30DOPE   O21 3762   6.074   6.298   9.719 -0.8149 -0.5435  0.4237
   30DOPE   C21 3763   6.087   6.392   9.623  0.3887 -0.3028  0.3519
   30DOPE   O22 3764   6.104   6.512   9.652 -0.4135 -0.5413  0.1476
   30DOPE   C22 3765   6.081   6.329   9.481 -0.4752  0.0010  0.6047
   30DOPE   H2R 3766   5.980   6.337   9.435 -0.3844 -2.2007 -0.0919
   30DOPE   H2S 3767   6.075   6.218   9.485 -2.5040 -0.0494 -1.4601
   30DOPE    C3 3768   6.203   6.197   9.905  0.6737  0.3387 -0.3321
   30DOPE    HX 3769   6.123   6.123   9.922  1.4215 -0.2404  0.7814
   30DOPE    HY 3770   6.247   6.208  10.007  1.1344 -1.2979 -0.3320
   30DOPE   O31 3771   6.312   6.154   9.823 -0.2607  0.5908  0.4368
   30DOPE   C31 3772   6.331   6.021   9.821  0.3237 -0.4798 -0.4869
   30DOPE   O32 3773   6.268   5.936   9.880  0.5604 -0.4679  0.5436
   30DOPE   C32 3774   6.433   6.002   9.713  0.1783 -0.2220 -0.0199
   30DOPE   H2X 3775   6.520   6.067   9.737 -0.1643 -0.1155  0.9595
   30DOPE   H2Y 3776   6.477   5.900   9.719 -2.4453 -1.6088 -2.2117
   30DOPE   C23 3777   6.188   6.381   9.388 -0.4048  0.3044  0.0365
   30DOPE   H3R 3778   6.278   6.424   9.437  1.7492 -2.5828 -1.0788
   30DOPE   H3S 3779   6.153   6.465   9.324 -0.7765 -0.4536 -0.7769
   30DOPE   C24 3780   6.243   6.281   9.287 -0.4405 -0.7061  0.5175
   30DOPE   H4R 3781   6.157   6.247   9.226 -0.2551 -0.5432  0.1663
   30DOPE   H4S 3782   6.275   6.188   9.339 -0.5286 -1.0868 -0.1045
   30DOPE   C25 3783   6.355   6.341   9.212 -0.4258  0.3366 -0.4939
   30DOPE   H5R 3784   6.434   6.388   9.273  1.2548 -3.4148  0.4975
   30DOPE   H5S 3785   6.316   6.421   9.146  1.7885 -0.3830 -2.8499
   30DOPE   C26 3786   6.427   6.240   9.120 -0.0774 -0.5599 -0.4043
   30DOPE   H6R 3787   6.357   6.188   9.050 -0.5741 -1.2108  0.5560
   30DOPE   H6S 3788   6.461   6.154   9.182 -0.0032 -0.2856 -0.0643
   30DOPE   C27 3789   6.539   6.303   9.043  0.1216 -0.2632  0.4207
   30DOPE   H7R 3790   6.619   6.341   9.109  0.6664  0.7663 -0.7823
   30DOPE   H7S 3791   6.493   6.394   9.000  1.9589  2.2428  3.3748
   30DOPE   C28 3792   6.609   6.213   8.935  0.2483  0.3589 -0.0376
   30DOPE   H8R 3793   6.535   6.178   8.860  0.2635 -1.0383  0.5657
   30DOPE   H8S 3794   6.664   6.132   8.989 -2.9214 -0.8989  1.5588
   30DOPE   C29 3795   6.712   6.298   8.864 -0.1153 -0.6047  0.1781
   30DOPE   H9R 3796   6.803   6.319   8.922 -0.0134  1.3860 -0.6283
   30DOPE  C210 3797   6.715   6.337   8.734  0.4418  0.6982  0.0231
   30DOPE  H10R 3798   6.805   6.388   8.697 -0.4587  1.6755 -0.8961
   30DOPE  C211 3799   6.627   6.294   8.620  0.0530 -0.2823 -0.5008
   30DOPE  H11R 3800   6.579   6.195   8.635 -0.3976  0.1214  0.9293
   30DOPE  H11S 3801   6.697   6.291   8.534 -0.6230  1.2273 -1.1536
   30DOPE  C212 3802   6.512   6.391   8.587 -1.2523 -0.0674  0.2683
   30DOPE  H12R 3803   6.551   6.483   8.538 -0.7664 -1.0729 -1.3195
   30DOPE  H12S 3804   6.460   6.414   8.682 -0.0113  0.8660  0.7424
   30DOPE  C213 3805   6.412   6.330   8.484 -0.2063 -0.2633  0.0768
   30DOPE  H13R 3806   6.314   6.382   8.479 -0.7855 -1.0525  2.1059
   30DOPE  H13S 3807   6.383   6.227   8.514  0.2639 -0.0503  1.3422
   30DOPE  C214 3808   6.472   6.325   8.350 -0.7064 -0.1495  0.1247
   30DOPE  H14R 3809   6.555   6.253   8.338 -0.1204  0.2428  1.5397
   30DOPE  H14S 3810   6.508   6.428   8.329 -1.4721 -0.1130 -1.0482
   30DOPE  C215 3811   6.374   6.303   8.230 -0.6074 -0.0458  0.0506
   30DOPE  H15R 3812   6.297   6.226   8.252  0.1490 -1.3832 -1.7045
   30DOPE  H15S 3813   6.429   6.251   8.148  0.4555  0.1924  0.5973
   30DOPE  C216 3814   6.301   6.428   8.174 -0.0294  0.0207 -0.3213
   30DOPE  H16R 3815   6.375   6.508   8.155 -1.8158  1.2710 -2.4456
   30DOPE  H16S 3816   6.238   6.477   8.251  0.3188  0.1135 -0.0945
   30DOPE  C217 3817   6.219   6.424   8.045  0.1773 -0.8362 -0.8364
   30DOPE  H17R 3818   6.168   6.523   8.041  0.7601 -0.5480 -1.3374
   30DOPE  H17S 3819   6.132   6.359   8.067 -0.1164  0.1269  1.0578
   30DOPE  C218 3820   6.281   6.400   7.906 -0.0780  0.1524  0.2023
   30DOPE  H18R 3821   6.213   6.428   7.822 -1.4556 -0.3969  1.1009
   30DOPE  H18S 3822   6.302   6.291   7.902 -1.2966 -0.1592  1.4911
   30DOPE  H18T 3823   6.384   6.439   7.888 -0.4983  1.8904  1.3556
   30DOPE   C33 3824   6.396   6.049   9.566  0.2747  0.4933  0.1202
   30DOPE   H3X 3825   6.372   6.157   9.567 -0.6809  0.3175 -1.3493
   30DOPE   H3Y 3826   6.302   6.001   9.534  0.0266  0.9889  0.0978
   30DOPE   C34 3827   6.501   5.997   9.467  0.2469 -0.4029  0.0628
   30DOPE   H4X 3828   6.539   5.898   9.500  1.3734  0.7470  2.4940
   30DOPE   H4Y 3829   6.451   5.982   9.369 -0.0669  1.0338 -0.0302
   30DOPE   C35 3830   6.612   6.092   9.436  0.3028 -0.4935  0.1590
   30DOPE   H5X 3831   6.654   6.120   9.535 -1.3765  0.8192  0.5426
   30DOPE   H5Y 3832   6.564   6.173   9.376  0.0743 -0.2327  0.6937
   30DOPE   C36 3833   6.727   6.013   9.355 -0.1451 -0.6851 -0.6638
   30DOPE   H6X 3834   6.688   5.978   9.257  1.4006  0.8125 -1.8730
   30DOPE   H6Y 3835   6.751   5.916   9.404  0.9327 -1.8782 -3.3903
   30DOPE   C37 3836   6.860   6.084   9.346  0.3124  0.4544  0.3902
   30DOPE   H7X 3837   6.846   6.192   9.326  0.2276  0.1025 -1.6547
   30DOPE   H7Y 3838   6.897   6.079   9.451 -1.4757 -2.6927  1.0172
   30DOPE   C38 3839   6.962   6.012   9.259 -0.7674  0.0540 -0.3830
   30DOPE   H8X 3840   6.924   6.004   9.154  4.0391  3.0558 -2.7285
   30DOPE   H8Y 3841   6.979   5.906   9.284 -0.4019  0.4705  1.2368
   30DOPE   C39 3842   7.098   6.080   9.270 -0.3849  0.4509  0.2999
   30DOPE   H9X 3843   7.163   6.044   9.351  1.9027 -0.0429 -1.6326
   30DOPE  C310 3844   7.136   6.192   9.200  0.0322  0.2584  0.1677
   30DOPE  H10X 3845   7.237   6.237   9.201 -0.2061  0.9756 -2.0623
   30DOPE  C311 3846   7.063   6.248   9.078 -0.0790 -0.3520 -0.3326
   30DOPE  H11X 3847   6.991   6.174   9.036  0.5552 -0.7546 -0.7103
   30DOPE  H11Y 3848   7.014   6.346   9.097  3.4891  1.6380 -0.6259
   30DOPE  C312 3849   7.150   6.286   8.958 -0.0675  0.0755  0.0197
   30DOPE  H12X 3850   7.197   6.195   8.914 -0.8784 -1.2732  1.7612
   30DOPE  H12Y 3851   7.230   6.358   8.984  0.3881 -0.7900  1.1304
   30DOPE  C313 3852   7.075   6.369   8.858 -0.8040  0.8906  0.0933
   30DOPE  H13X 3853   6.995   6.306   8.813 -0.9093 -0.8169  2.4999
   30DOPE  H13Y 3854   7.014   6.452   8.901  0.1705  2.0081 -0.6070
   30DOPE  C314 3855   7.169   6.423   8.749 -0.7429 -0.0302 -0.2102
   30DOPE  H14X 3856   7.191   6.350   8.669 -0.8071 -0.0124 -0.2443
   30DOPE  H14Y 3857   7.260   6.455   8.804 -0.1926 -1.3787 -0.3069
   30DOPE  C315 3858   7.112   6.550   8.674 -0.1428  0.3055 -0.1688
   30DOPE  H15X 3859   7.092   6.635   8.743 -1.1776  0.4218 -0.5918
   30DOPE  H15Y 3860   7.025   6.512   8.615  0.1672 -1.8857  0.6923
   30DOPE  C316 3861   7.217   6.607   8.573 -0.5087 -0.0759  0.4209
   30DOPE  H16X 3862   7.304   6.538   8.583 -2.3938 -2.7914 -0.6216
   30DOPE  H16Y 3863   7.250   6.712   8.588  0.6796 -0.1240 -1.4255
   30DOPE  C317 3864   7.175   6.599   8.419 -0.0260  0.4080  0.5159
   30DOPE  H17X 3865   7.159   6.496   8.381 -2.3084  1.1362 -0.6833
   30DOPE  H17Y 3866   7.075   6.646   8.406 -0.7036 -1.2486 -0.4174
   30DOPE  C318 3867   7.264   6.669   8.322  0.0990 -0.1076  0.2430
   30DOPE  H18X 3868   7.305   6.761   8.367  1.5487 -0.1449 -0.9226
   30DOPE  H18Y 3869   7.357   6.612   8.301  2.7821  3.5215  1.2815
   30DOPE  H18Z 3870   7.223   6.691   8.220  1.8895 -1.3724 -0.7955
   31DOPE     N 3871   0.015   1.159   6.263 -0.6346  0.3134  0.4646
   31DOPE   HN1 3872  -0.049   1.160   6.345 -1.3282 -3.4996  0.1530
   31DOPE   HN2 3873   0.054   1.063   6.249 -1.9708 -0.4079  1.4447
   31DOPE   HN3 3874   0.098   1.213   6.294  0.2873 -0.2306 -1.0017
   31DOPE   C12 3875  -0.046   1.215   6.139 -0.0997 -0.0309  0.4811
   31DOPE  H12A 3876  -0.130   1.145   6.120  0.3952  0.1273 -2.8240
   31DOPE  H12B 3877   0.020   1.197   6.052  0.2159  1.2141  0.4357
   31DOPE   C11 3878  -0.081   1.363   6.149  0.7371  0.0299 -0.0886
   31DOPE  H11A 3879  -0.158   1.378   6.228  0.0592  0.2677 -0.7837
   31DOPE  H11B 3880  -0.119   1.393   6.049  2.0549  1.1242 -0.3015
   31DOPE     P 3881   0.015   1.599   6.184  0.2279 -0.2445 -0.1320
   31DOPE   O13 3882  -0.053   1.658   6.069 -0.6804 -0.2161  0.1208
   31DOPE   O14 3883   0.145   1.658   6.203  0.1213  0.5291 -0.2030
   31DOPE   O11 3884  -0.071   1.634   6.314 -0.7363 -0.7864 -0.4479
   31DOPE   O12 3885   0.032   1.446   6.174 -0.0275  0.9342  0.0441
   31DOPE    C1 3886  -0.026   1.592   6.443  0.4139  0.3009  0.3869
   31DOPE    HA 3887   0.072   1.630   6.478  0.4098 -0.5076  1.3322
   31DOPE    HB 3888  -0.013   1.481   6.446 -0.2163  0.2269  3.6040
   31DOPE    C2 3889  -0.119   1.622   6.568 -0.9543  0.6636 -0.2892
   31DOPE    HS 3890  -0.090   1.545   6.643 -0.1980  1.3423  0.1373
   31DOPE   O21 3891  -0.258   1.623   6.537 -0.2353  0.1311 -0.4420
   31DOPE   C21 3892  -0.330   1.512   6.528 -0.1814  0.1474 -0.3180
   31DOPE   O22 3893  -0.283   1.399   6.532 -0.6316 -0.0710 -0.9661
   31DOPE   C22 3894  -0.480   1.550   6.508 -0.2862  1.1197  0.1552
   31DOPE   H2R 3895  -0.551   1.470   6.479 -0.8784  1.7891 -0.2653
   31DOPE   H2S 3896  -0.484   1.614   6.418  0.9006 -0.2403 -0.9224
   31DOPE    C3 3897  -0.089   1.761   6.634 -0.4203  0.6070 -0.0069
   31DOPE    HX 3898  -0.171   1.775   6.708 -1.0087 -0.1444 -0.5032
   31DOPE    HY 3899  -0.109   1.834   6.552  2.5723  0.1332 -1.2913
   31DOPE   O31 3900   0.045   1.778   6.668 -0.1243 -0.0743  0.3040
   31DOPE   C31 3901   0.068   1.893   6.722 -0.3118  0.2076 -0.2405
   31DOPE   O32 3902  -0.014   1.979   6.738 -0.2415 -0.1567  0.1939
   31DOPE   C32 3903   0.217   1.904   6.760 -0.0542  0.1239  1.2838
   31DOPE   H2X 3904   0.258   1.801   6.773  0.5928  0.0151 -1.2082
   31DOPE   H2Y 3905   0.263   1.958   6.675 -0.6899  0.8878  1.4198
   31DOPE   C23 3906  -0.536   1.643   6.615 -0.5222 -0.7527  0.4764
   31DOPE   H3R 3907  -0.632   1.678   6.571 -1.1226  1.6174  3.3255
   31DOPE   H3S 3908  -0.475   1.735   6.626 -1.3106 -0.2390  0.5841
   31DOPE   C24 3909  -0.558   1.577   6.760  0.0170 -0.1529  0.5547
   31DOPE   H4R 3910  -0.463   1.539   6.804  0.1667  0.2876  0.6192
   31DOPE   H4S 3911  -0.623   1.491   6.734 -0.9316  0.1792  1.7390
   31DOPE   C25 3912  -0.631   1.682   6.844  0.6968 -0.1217  0.4298
   31DOPE   H5R 3913  -0.740   1.690   6.823  1.0746  0.7367 -1.4340
   31DOPE   H5S 3914  -0.605   1.787   6.816 -0.2980  1.4064  4.4220
   31DOPE   C26 3915  -0.603   1.685   6.993 -0.3620  0.5146 -0.4027
   31DOPE   H6R 3916  -0.671   1.761   7.037 -2.5594 -1.5361 -0.0258
   31DOPE   H6S 3917  -0.497   1.714   7.009  0.1522 -0.7676 -1.2671
   31DOPE   C27 3918  -0.635   1.554   7.066 -0.4280 -0.1367 -0.1667
   31DOPE   H7R 3919  -0.561   1.477   7.035 -1.0155 -0.0079 -2.0278
   31DOPE   H7S 3920  -0.737   1.517   7.042  0.2365 -1.6577 -0.7681
   31DOPE   C28 3921  -0.637   1.548   7.213 -0.3428  0.2079 -0.1410
   31DOPE   H8R 3922  -0.538   1.587   7.246  0.3343 -1.0069 -0.7038
   31DOPE   H8S 3923  -0.652   1.444   7.249  0.5360  0.5487  1.2878
   31DOPE   C29 3924  -0.741   1.640   7.272 -0.3937  0.2588 -0.9540
   31DOPE   H9R 3925  -0.722   1.747   7.260  2.9446  0.1031  1.4650
   31DOPE  C210 3926  -0.860   1.604   7.324  0.8471  0.0758 -0.4404
   31DOPE  H10R 3927  -0.919   1.685   7.369  1.1192  0.5962 -1.0130
   31DOPE  C211 3928  -0.922   1.463   7.335  0.1072  0.3598  0.1568
   31DOPE  H11R 3929  -0.873   1.390   7.267  0.9377  1.4740 -0.4819
   31DOPE  H11S 3930  -1.028   1.460   7.302  0.6388 -1.5034 -1.6176
   31DOPE  C212 3931  -0.910   1.407   7.480 -0.0133 -0.0666 -0.0019
   31DOPE  H12R 3932  -0.808   1.429   7.518  0.0739 -2.3133  1.1707
   31DOPE  H12S 3933  -0.936   1.299   7.473  2.4671 -0.6701 -1.1989
   31DOPE  C213 3934  -1.010   1.467   7.587  0.6526  0.1801  0.2305
   31DOPE  H13R 3935  -1.103   1.407   7.583  0.7988 -0.2130  1.9498
   31DOPE  H13S 3936  -1.024   1.570   7.547  0.5668 -0.6332 -2.0128
   31DOPE  C214 3937  -0.953   1.484   7.732  0.5915 -0.2531 -0.2361
   31DOPE  H14R 3938  -0.858   1.541   7.727 -0.1149  0.9557 -0.3848
   31DOPE  H14S 3939  -0.936   1.382   7.772  2.6472  0.9910  2.4039
   31DOPE  C215 3940  -1.038   1.555   7.832 -0.0453  0.3150 -0.8661
   31DOPE  H15R 3941  -1.080   1.646   7.785 -0.7751 -0.2659 -1.3498
   31DOPE  H15S 3942  -0.980   1.581   7.923 -2.0020  0.5251  0.3623
   31DOPE  C216 3943  -1.160   1.467   7.878 -0.6989 -0.0561  0.5357
   31DOPE  H16R 3944  -1.126   1.398   7.959 -0.7525 -0.4207  0.2478
   31DOPE  H16S 3945  -1.204   1.402   7.799  1.6159 -1.1274  0.0213
   31DOPE  C217 3946  -1.265   1.556   7.941 -0.2626 -0.0471 -0.9841
   31DOPE  H17R 3947  -1.319   1.617   7.865 -3.0771 -1.4041 -0.2381
   31DOPE  H17S 3948  -1.214   1.618   8.016 -2.0187 -1.1403  1.2312
   31DOPE  C218 3949  -1.366   1.460   7.999 -0.0416  0.1723  0.2065
   31DOPE  H18R 3950  -1.395   1.376   7.932 -0.3478 -0.9865  1.7492
   31DOPE  H18S 3951  -1.453   1.526   8.020 -0.3671 -0.0836 -0.3069
   31DOPE  H18T 3952  -1.331   1.411   8.092 -1.1828 -2.1461 -0.4936
   31DOPE   C33 3953   0.249   1.989   6.886  0.1528  0.2185  0.2530
   31DOPE   H3X 3954   0.186   2.080   6.895  1.6619  1.2642  0.5761
   31DOPE   H3Y 3955   0.346   2.040   6.867  0.0846  1.3809  2.6292
   31DOPE   C34 3956   0.270   1.913   7.012  0.4150  0.4077  0.0163
   31DOPE   H4X 3957   0.185   1.847   7.038  0.3818  0.3243 -0.2953
   31DOPE   H4Y 3958   0.357   1.844   7.007  0.3070  0.3727 -2.2767
   31DOPE   C35 3959   0.277   2.007   7.134 -0.3481 -0.3108  0.0711
   31DOPE   H5X 3960   0.174   2.048   7.149 -0.3394 -0.5330  0.7821
   31DOPE   H5Y 3961   0.338   2.094   7.101  0.8681 -0.7196  1.1662
   31DOPE   C36 3962   0.323   1.939   7.262  0.1949  0.5171 -0.4879
   31DOPE   H6X 3963   0.348   2.011   7.343 -2.5675 -2.4978  3.4505
   31DOPE   H6Y 3964   0.408   1.870   7.240  0.3727  0.6495 -0.2331
   31DOPE   C37 3965   0.215   1.847   7.329  0.3580 -0.4645 -0.2690
   31DOPE   H7X 3966   0.117   1.899   7.320  0.7114  0.4373  0.8277
   31DOPE   H7Y 3967   0.216   1.744   7.288  2.3411  0.0059 -1.5017
   31DOPE   C38 3968   0.246   1.835   7.479 -0.1988  0.1999 -0.2022
   31DOPE   H8X 3969   0.253   1.938   7.520  2.5743 -1.1182  3.1897
   31DOPE   H8Y 3970   0.345   1.785   7.488 -1.6566 -2.8383  0.2050
   31DOPE   C39 3971   0.134   1.757   7.546 -0.2058  0.2834 -0.0446
   31DOPE   H9X 3972   0.038   1.810   7.554 -0.8623 -0.6433 -1.3518
   31DOPE  C310 3973   0.140   1.642   7.615 -0.0386  0.6710  0.0292
   31DOPE  H10X 3974   0.047   1.598   7.653 -0.5953  0.6630 -1.3070
   31DOPE  C311 3975   0.253   1.546   7.625  0.2474 -0.3021  0.2537
   31DOPE  H11X 3976   0.256   1.490   7.529 -0.6827  2.1774 -1.3206
   31DOPE  H11Y 3977   0.344   1.606   7.643 -1.0432  2.2462 -1.1990
   31DOPE  C312 3978   0.259   1.442   7.748  0.4335 -0.2766 -0.0255
   31DOPE  H12X 3979   0.252   1.492   7.847 -0.2256  0.9519 -0.6640
   31DOPE  H12Y 3980   0.354   1.387   7.735 -0.3899 -1.4576 -1.4116
   31DOPE  C313 3981   0.151   1.347   7.745  1.1608  0.0199 -0.1123
   31DOPE  H13X 3982   0.053   1.395   7.724  0.4138 -2.0187 -1.6186
   31DOPE  H13Y 3983   0.166   1.280   7.657  1.2795  1.1670 -0.9815
   31DOPE  C314 3984   0.132   1.286   7.884  0.2995  0.4220 -0.5201
   31DOPE  H14X 3985   0.094   1.358   7.959 -1.0206 -1.4582  0.6858
   31DOPE  H14Y 3986   0.227   1.240   7.916 -0.6815 -0.9714  0.4679
   31DOPE  C315 3987   0.035   1.176   7.884  0.1286 -0.0225 -0.1282
   31DOPE  H15X 3988   0.012   1.154   7.778  0.8827  1.0888 -0.5275
   31DOPE  H15Y 3989  -0.056   1.224   7.927  1.2449  1.2781  0.8813
   31DOPE  C316 3990   0.072   1.052   7.961 -0.2497  0.1445  0.5435
   31DOPE  H16X 3991  -0.023   0.998   7.978  0.3488 -1.2186 -0.2919
   31DOPE  H16Y 3992   0.119   1.080   8.058 -0.0458  1.4954  0.0792
   31DOPE  C317 3993   0.162   0.955   7.889 -0.0909  0.1726 -0.1477
   31DOPE  H17X 3994   0.161   0.859   7.945  0.8761  0.5580  0.5504
   31DOPE  H17Y 3995   0.119   0.945   7.787 -0.4412  3.4372 -0.4258
   31DOPE  C318 3996   0.311   0.990   7.873 -0.0242  0.5446 -0.1346
   31DOPE  H18X 3997   0.365   0.899   7.836 -0.8099 -0.8784  2.0117
   31DOPE  H18Y 3998   0.324   1.080   7.811 -1.3433  0.2066 -0.9273
   31DOPE  H18Z 3999   0.351   1.021   7.972 -1.8842  0.2553  0.7387
   32DOPE     N 4000   2.646   2.370   6.329 -0.0112  0.6137  0.5415
   32DOPE   HN1 4001   2.545   2.376   6.308 -0.2293 -0.9145  1.0383
   32DOPE   HN2 4002   2.681   2.462   6.363 -1.5147  2.8803 -3.3956
   32DOPE   HN3 4003   2.701   2.349   6.243  0.9422  0.6126  1.1356
   32DOPE   C12 4004   2.683   2.255   6.429 -0.0579 -0.0544  0.0824
   32DOPE  H12A 4005   2.765   2.300   6.488  0.7587 -2.6066  1.0501
   32DOPE  H12B 4006   2.727   2.175   6.365 -1.7411 -1.2004  0.2826
   32DOPE   C11 4007   2.571   2.210   6.521  0.0157  0.3262 -0.4307
   32DOPE  H11A 4008   2.522   2.293   6.577 -1.2276 -1.9873  2.1437
   32DOPE  H11B 4009   2.611   2.133   6.591 -0.2825 -0.5395 -1.1901
   32DOPE     P 4010   2.478   2.019   6.361 -0.2548  0.2058  0.2253
   32DOPE   O13 4011   2.540   2.049   6.229 -0.4102  0.1147  0.1276
   32DOPE   O14 4012   2.339   1.974   6.357 -0.0934  0.1106  0.1774
   32DOPE   O11 4013   2.565   1.923   6.448 -0.3981 -0.8430  0.7899
   32DOPE   O12 4014   2.471   2.150   6.446 -0.7714 -0.0335 -0.0072
   32DOPE    C1 4015   2.503   1.833   6.541 -0.3330 -0.0509  0.3901
   32DOPE    HA 4016   2.512   1.728   6.505  1.3069  0.6765 -1.5118
   32DOPE    HB 4017   2.397   1.860   6.560  0.6015  2.7111  2.3031
   32DOPE    C2 4018   2.588   1.829   6.672  0.0931 -0.1537  0.0955
   32DOPE    HS 4019   2.545   1.756   6.744 -0.0552  0.0530  0.2168
   32DOPE   O21 4020   2.574   1.962   6.725 -0.0446 -0.7951  0.3216
   32DOPE   C21 4021   2.455   1.990   6.782 -0.9640 -0.4202  0.1650
   32DOPE   O22 4022   2.369   1.907   6.787  0.4106  0.2719 -0.2629
   32DOPE   C22 4023   2.447   2.126   6.847  0.9207  0.1995  0.2812
   32DOPE   H2R 4024   2.436   2.210   6.775 -1.2149  0.6613  1.0523
   32DOPE   H2S 4025   2.539   2.140   6.907  0.7773 -1.1926  0.8611
   32DOPE    C3 4026   2.740   1.807   6.645  0.4455  0.4980  0.7042
   32DOPE    HX 4027   2.763   1.892   6.578 -0.2036 -0.1111 -0.3195
   32DOPE    HY 4028   2.749   1.711   6.589  3.2610  1.0799 -0.0342
   32DOPE   O31 4029   2.822   1.809   6.766  0.1992  0.1630  0.5981
   32DOPE   C31 4030   2.849   1.689   6.808 -0.5023 -0.0745 -0.9807
   32DOPE   O32 4031   2.856   1.589   6.738  0.6260 -0.3590 -0.0738
   32DOPE   C32 4032   2.873   1.682   6.964  0.4001 -0.1562 -0.5425
   32DOPE   H2X 4033   2.862   1.578   6.999 -2.1829  0.6006  1.1986
   32DOPE   H2Y 4034   2.981   1.693   6.983  0.1324 -0.3202  1.2515
   32DOPE   C23 4035   2.318   2.159   6.930 -0.6485  0.0708  0.0126
   32DOPE   H3R 4036   2.228   2.142   6.866 -0.7561 -3.7452  0.9226
   32DOPE   H3S 4037   2.311   2.267   6.955 -1.1657  0.2867 -0.9808
   32DOPE   C24 4038   2.308   2.085   7.065 -0.1773 -0.2601  0.2778
   32DOPE   H4R 4039   2.402   2.103   7.120  0.9991 -1.9388 -1.0768
   32DOPE   H4S 4040   2.297   1.976   7.045 -1.3307 -0.0966 -0.0492
   32DOPE   C25 4041   2.189   2.132   7.146  0.3103 -0.2952 -0.2181
   32DOPE   H5R 4042   2.105   2.170   7.084  1.8625  1.7253 -1.2068
   32DOPE   H5S 4043   2.231   2.225   7.192 -0.8281  0.6238 -0.9815
   32DOPE   C26 4044   2.140   2.041   7.255 -0.2657  0.8295  0.0784
   32DOPE   H6R 4045   2.082   1.954   7.218  0.4493 -0.1217  1.1252
   32DOPE   H6S 4046   2.062   2.098   7.310  0.4528  0.8006  1.1650
   32DOPE   C27 4047   2.247   1.991   7.353  0.6290 -0.4801  0.5395
   32DOPE   H7R 4048   2.341   2.049   7.359  0.6438 -0.2065 -1.5714
   32DOPE   H7S 4049   2.286   1.893   7.317  0.3565 -0.5485  0.4315
   32DOPE   C28 4050   2.193   1.963   7.489  0.2656 -0.9484 -0.2250
   32DOPE   H8R 4051   2.266   1.906   7.550 -0.3584  1.0443  2.5620
   32DOPE   H8S 4052   2.100   1.902   7.483  0.9881 -2.2349  1.2128
   32DOPE   C29 4053   2.157   2.084   7.569 -0.3481 -0.5516 -0.3670
   32DOPE   H9R 4054   2.146   2.178   7.512  1.1276  0.8945  1.5648
   32DOPE  C210 4055   2.160   2.103   7.708  0.4942 -0.0207  0.6529
   32DOPE  H10R 4056   2.125   2.199   7.749 -2.0460 -0.3443 -0.5688
   32DOPE  C211 4057   2.185   2.010   7.822 -0.3330 -0.1383 -0.3427
   32DOPE  H11R 4058   2.215   2.076   7.906  2.1004  1.1363 -2.0674
   32DOPE  H11S 4059   2.282   1.956   7.815 -0.1544  0.2659 -1.1838
   32DOPE  C212 4060   2.070   1.912   7.855 -0.1939  0.3198 -0.9913
   32DOPE  H12R 4061   2.053   1.851   7.764 -1.2561  0.5902 -0.9897
   32DOPE  H12S 4062   1.975   1.967   7.875  1.2061  3.0135 -1.2031
   32DOPE  C213 4063   2.112   1.822   7.967  0.1087 -0.1977  0.0945
   32DOPE  H13R 4064   2.192   1.762   7.919  0.3400 -0.0221  0.2568
   32DOPE  H13S 4065   2.032   1.757   8.008 -0.3855  1.3571  1.7300
   32DOPE  C214 4066   2.171   1.897   8.094 -0.7902  0.3659 -0.5755
   32DOPE  H14R 4067   2.275   1.935   8.080 -0.1580 -1.6573 -1.8379
   32DOPE  H14S 4068   2.180   1.820   8.173 -3.6164  1.2478  0.7198
   32DOPE  C215 4069   2.073   2.002   8.151 -0.2574 -0.2883  0.0273
   32DOPE  H15R 4070   1.978   1.952   8.178  0.0272  0.2001  2.1081
   32DOPE  H15S 4071   2.056   2.078   8.072 -0.5925  0.5446  0.8858
   32DOPE  C216 4072   2.146   2.073   8.258  0.0716  0.3902  0.2952
   32DOPE  H16R 4073   2.244   2.112   8.221  1.2353 -1.8226  0.8396
   32DOPE  H16S 4074   2.165   2.004   8.342  1.0811 -1.7265 -1.5614
   32DOPE  C217 4075   2.058   2.184   8.318 -0.6234  0.8722  0.5564
   32DOPE  H17R 4076   1.959   2.149   8.353 -1.2024  1.7382 -0.1702
   32DOPE  H17S 4077   2.035   2.257   8.238 -0.7580  1.1528  0.8440
   32DOPE  C218 4078   2.125   2.255   8.438 -0.3062  0.2811  0.4330
   32DOPE  H18R 4079   2.069   2.344   8.474 -1.6299 -0.2197 -0.3051
   32DOPE  H18S 4080   2.226   2.297   8.418  0.4530 -0.9246  1.5156
   32DOPE  H18T 4081   2.129   2.182   8.522 -2.9503  0.9071  1.2018
   32DOPE   C33 4082   2.799   1.791   7.046  0.9736 -0.0421 -0.0463
   32DOPE   H3X 4083   2.798   1.889   6.994 -3.2610 -0.3170 -0.8599
   32DOPE   H3Y 4084   2.843   1.814   7.145 -1.5347  0.7012  0.9867
   32DOPE   C34 4085   2.656   1.749   7.084  0.2222 -0.0928  0.1281
   32DOPE   H4X 4086   2.604   1.701   6.998 -0.9038 -2.1248  1.8358
   32DOPE   H4Y 4087   2.650   1.673   7.165  0.4481  0.5055  0.7102
   32DOPE   C35 4088   2.582   1.872   7.127 -0.3300 -0.4228  0.5868
   32DOPE   H5X 4089   2.474   1.845   7.131 -0.1940 -1.5236 -1.5838
   32DOPE   H5Y 4090   2.596   1.954   7.054 -2.4589  0.4694  1.1038
   32DOPE   C36 4091   2.623   1.933   7.270 -0.2189  0.3542  0.5535
   32DOPE   H6X 4092   2.567   2.026   7.294  0.7532  0.4624  2.6322
   32DOPE   H6Y 4093   2.730   1.961   7.278 -0.1845  0.2941  0.3185
   32DOPE   C37 4094   2.587   1.830   7.379  0.2074  0.2886 -0.2112
   32DOPE   H7X 4095   2.487   1.784   7.363 -0.0154  0.4038  0.7842
   32DOPE   H7Y 4096   2.667   1.753   7.382 -1.5918 -1.8459 -2.4496
   32DOPE   C38 4097   2.575   1.883   7.524 -0.1999 -0.1498 -0.5335
   32DOPE   H8X 4098   2.529   1.815   7.599 -0.0467  1.9905  1.6257
   32DOPE   H8Y 4099   2.506   1.970   7.519 -1.1960 -0.8037  1.0764
   32DOPE   C39 4100   2.704   1.919   7.578  0.3163  0.3480 -0.3295
   32DOPE   H9X 4101   2.781   1.933   7.500  0.3431 -0.5859 -0.4833
   32DOPE  C310 4102   2.735   1.944   7.703  0.2700 -0.4069 -0.3404
   32DOPE  H10X 4103   2.841   1.962   7.727  0.3382  0.1708 -1.0308
   32DOPE  C311 4104   2.638   1.958   7.823 -0.2157  0.7303 -0.2596
   32DOPE  H11X 4105   2.545   2.013   7.796 -1.2820 -1.2090 -0.7297
   32DOPE  H11Y 4106   2.609   1.855   7.855  0.9095  0.2693 -0.6691
   32DOPE  C312 4107   2.701   2.023   7.949 -0.1610 -0.4792  0.7735
   32DOPE  H12X 4108   2.732   2.127   7.924 -0.5209 -0.3470  0.8588
   32DOPE  H12Y 4109   2.789   1.969   7.990  0.3546 -0.2186  0.0149
   32DOPE  C313 4110   2.594   2.031   8.066  0.3026 -0.5850 -0.0294
   32DOPE  H13X 4111   2.506   2.087   8.027  0.1007 -0.4414  0.6182
   32DOPE  H13Y 4112   2.563   1.932   8.105 -1.3454  0.5668  1.7977
   32DOPE  C314 4113   2.640   2.110   8.187  0.0999 -0.2433 -0.4327
   32DOPE  H14X 4114   2.663   2.215   8.156 -0.7560  0.1356  0.1839
   32DOPE  H14Y 4115   2.730   2.072   8.241  1.3690  1.5307 -1.1736
   32DOPE  C315 4116   2.536   2.123   8.300  0.2186 -0.0364  0.2453
   32DOPE  H15X 4117   2.437   2.155   8.261  0.5015  0.1039 -0.3742
   32DOPE  H15Y 4118   2.572   2.196   8.376  0.4049 -0.3416  0.4518
   32DOPE  C316 4119   2.506   1.990   8.373 -0.7560 -0.0062  0.6364
   32DOPE  H16X 4120   2.601   1.948   8.412  0.2853  2.0728  0.4698
   32DOPE  H16Y 4121   2.454   1.916   8.307 -2.7627  2.7869 -1.1154
   32DOPE  C317 4122   2.435   2.014   8.508  0.6623 -0.7316  0.5063
   32DOPE  H17X 4123   2.480   2.108   8.548  0.4250 -0.5539  0.3530
   32DOPE  H17Y 4124   2.326   2.025   8.495  0.6553  0.0883  1.1704
   32DOPE  C318 4125   2.452   1.898   8.600  0.3394  1.1723 -0.3531
   32DOPE  H18X 4126   2.385   1.910   8.687  0.5467  1.7835 -0.2700
   32DOPE  H18Y 4127   2.441   1.802   8.546  1.7108  1.6736 -1.5855
   32DOPE  H18Z 4128   2.555   1.887   8.640  0.7808  0.2961 -1.6665
   33DOPE     N 4129   0.480   0.975   6.214  0.2776 -0.5425  0.0584
   33DOPE   HN1 4130   0.568   0.928   6.187 -0.0361 -0.4254 -1.2616
   33DOPE   HN2 4131   0.492   1.033   6.300 -0.4796  0.2571 -0.3466
   33DOPE   HN3 4132   0.414   0.896   6.227 -1.3419  0.5601 -1.0060
   33DOPE   C12 4133   0.432   1.055   6.098  0.1168 -0.4097  0.5904
   33DOPE  H12A 4134   0.324   1.075   6.116 -0.5123 -3.6494  1.0129
   33DOPE  H12B 4135   0.431   1.004   5.999 -1.2581  0.2109  0.2533
   33DOPE   C11 4136   0.519   1.176   6.081  0.1418  0.3317  0.2650
   33DOPE  H11A 4137   0.463   1.256   6.029 -2.1337 -0.4273  1.3991
   33DOPE  H11B 4138   0.596   1.154   6.005 -2.7732 -2.5959 -2.1733
   33DOPE     P 4139   0.594   1.377   6.236  0.0519 -0.0447  0.4942
   33DOPE   O13 4140   0.629   1.443   6.110  0.0830  0.1236  0.4305
   33DOPE   O14 4141   0.689   1.387   6.348 -0.3925 -0.2026 -0.1593
   33DOPE   O11 4142   0.447   1.425   6.279 -0.4565 -0.1415 -0.3012
   33DOPE   O12 4143   0.571   1.218   6.206  0.2990 -0.1311 -0.0025
   33DOPE    C1 4144   0.444   1.551   6.342  0.7736  0.1196  0.2587
   33DOPE    HA 4145   0.345   1.598   6.324  0.0554 -1.0301  1.0978
   33DOPE    HB 4146   0.515   1.629   6.305  1.1919  0.7184  2.1916
   33DOPE    C2 4147   0.456   1.555   6.503 -0.0927  0.3248  0.2847
   33DOPE    HS 4148   0.561   1.528   6.527 -0.1666 -0.1594  0.0610
   33DOPE   O21 4149   0.361   1.467   6.553  0.3563  0.2479  0.2899
   33DOPE   C21 4150   0.398   1.412   6.663 -0.9303  0.6642  0.5195
   33DOPE   O22 4151   0.507   1.416   6.716  0.4186  0.0228  0.7425
   33DOPE   C22 4152   0.273   1.347   6.726  0.2101  0.7801 -0.3798
   33DOPE   H2R 4153   0.267   1.248   6.675  5.0651 -0.4994  1.0254
   33DOPE   H2S 4154   0.182   1.406   6.699 -0.6905 -0.9019 -1.2193
   33DOPE    C3 4155   0.420   1.705   6.548  0.0542 -0.0945  0.3850
   33DOPE    HX 4156   0.311   1.724   6.538  0.2604  1.4242  0.7907
   33DOPE    HY 4157   0.467   1.787   6.490  0.8863 -0.0396  1.1100
   33DOPE   O31 4158   0.463   1.723   6.681  0.3907  0.0127 -0.3774
   33DOPE   C31 4159   0.596   1.756   6.696 -0.1240  0.8720  0.4996
   33DOPE   O32 4160   0.670   1.783   6.608 -0.1602  0.3392  0.5162
   33DOPE   C32 4161   0.648   1.750   6.838  0.1334  0.2753 -0.4448
   33DOPE   H2X 4162   0.567   1.717   6.905 -1.1871  1.2869 -1.4918
   33DOPE   H2Y 4163   0.728   1.672   6.840  2.1379  1.8938 -4.7450
   33DOPE   C23 4164   0.282   1.337   6.879 -0.0278 -0.1529  0.3112
   33DOPE   H3R 4165   0.374   1.283   6.912 -0.1564  0.0951  1.1166
   33DOPE   H3S 4166   0.195   1.273   6.904  1.1277 -3.2766 -2.8301
   33DOPE   C24 4167   0.282   1.474   6.947 -0.2371 -0.3486  0.6651
   33DOPE   H4R 4168   0.182   1.521   6.931 -0.3771 -0.9731 -0.3803
   33DOPE   H4S 4169   0.363   1.533   6.901  0.3916 -0.6022  1.4159
   33DOPE   C25 4170   0.309   1.459   7.099  0.0071  0.3605 -0.6056
   33DOPE   H5R 4171   0.249   1.375   7.141 -0.1677  0.4241 -0.7243
   33DOPE   H5S 4172   0.274   1.557   7.139  0.3455  0.8078 -1.3753
   33DOPE   C26 4173   0.451   1.448   7.149 -0.2199  0.4886  0.4158
   33DOPE   H6R 4174   0.526   1.483   7.076  0.1565  0.1687  0.6460
   33DOPE   H6S 4175   0.473   1.339   7.153  2.1682  0.8821 -0.5140
   33DOPE   C27 4176   0.485   1.521   7.281  0.0354 -0.0079 -0.2441
   33DOPE   H7R 4177   0.410   1.475   7.349 -1.5788 -1.3893 -2.7957
   33DOPE   H7S 4178   0.481   1.632   7.280 -2.3872 -0.0257  0.2138
   33DOPE   C28 4179   0.626   1.480   7.335  0.5021  0.1232 -0.6973
   33DOPE   H8R 4180   0.629   1.369   7.329  0.5581  0.1443 -1.0705
   33DOPE   H8S 4181   0.626   1.496   7.445 -0.5142  1.9648 -0.9204
   33DOPE   C29 4182   0.744   1.552   7.268  0.0831  0.8807  0.1693
   33DOPE   H9R 4183   0.744   1.534   7.160  0.0262 -0.6011  0.4005
   33DOPE  C210 4184   0.842   1.623   7.320  0.3715  0.3071 -0.6669
   33DOPE  H10R 4185   0.912   1.681   7.258  1.3711 -0.8912 -0.7141
   33DOPE  C211 4186   0.872   1.634   7.467  0.2686 -0.4755  0.2960
   33DOPE  H11R 4187   0.788   1.592   7.526 -2.1051 -0.4143 -2.7949
   33DOPE  H11S 4188   0.875   1.742   7.493 -3.6080  0.4975 -2.4550
   33DOPE  C212 4189   1.004   1.584   7.506 -0.3488 -0.1975  0.5091
   33DOPE  H12R 4190   1.025   1.489   7.452 -0.5687  0.0012  0.0673
   33DOPE  H12S 4191   1.007   1.562   7.614  1.2573 -0.5027  0.4244
   33DOPE  C213 4192   1.125   1.679   7.472  0.0360  0.0878  0.2144
   33DOPE  H13R 4193   1.131   1.776   7.524 -1.0974  0.4245 -0.2497
   33DOPE  H13S 4194   1.118   1.704   7.364  2.0654 -0.2676 -0.0472
   33DOPE  C214 4195   1.266   1.601   7.467  0.2670 -0.1761 -0.2201
   33DOPE  H14R 4196   1.342   1.669   7.424  0.8593  0.3067  1.4965
   33DOPE  H14S 4197   1.249   1.511   7.404 -2.0171 -0.8277  1.2134
   33DOPE  C215 4198   1.300   1.568   7.613  0.0756 -0.3622 -0.5488
   33DOPE  H15R 4199   1.219   1.508   7.659 -0.6261  1.8063  1.2116
   33DOPE  H15S 4200   1.314   1.666   7.663  0.8670 -0.1234 -1.2201
   33DOPE  C216 4201   1.424   1.496   7.623  0.1836  0.3448  0.1591
   33DOPE  H16R 4202   1.431   1.397   7.572 -0.5018  1.2303 -1.7495
   33DOPE  H16S 4203   1.452   1.467   7.727  1.4661 -0.0761 -0.2733
   33DOPE  C217 4204   1.555   1.568   7.573  0.4092  0.4420 -0.1129
   33DOPE  H17R 4205   1.548   1.587   7.464 -0.3428  2.7682  0.2838
   33DOPE  H17S 4206   1.644   1.505   7.594  0.7062  0.2270 -1.8784
   33DOPE  C218 4207   1.583   1.714   7.625 -0.0295  0.0029  0.1540
   33DOPE  H18R 4208   1.607   1.726   7.732  0.8275  1.9330 -0.2269
   33DOPE  H18S 4209   1.495   1.781   7.613 -0.9631 -1.0440  0.9516
   33DOPE  H18T 4210   1.670   1.754   7.570 -0.5223  0.5246 -0.2609
   33DOPE   C33 4211   0.714   1.885   6.870 -0.8786 -0.5405  0.3769
   33DOPE   H3X 4212   0.783   1.916   6.788  0.6208  1.4848  2.2968
   33DOPE   H3Y 4213   0.779   1.886   6.959 -0.6533  0.2122  0.2075
   33DOPE   C34 4214   0.614   2.005   6.875  0.2473 -0.1465  0.3175
   33DOPE   H4X 4215   0.567   2.011   6.775  0.3556 -1.5438  0.1665
   33DOPE   H4Y 4216   0.539   1.995   6.957 -1.1111  3.4077 -0.3127
   33DOPE   C35 4217   0.683   2.141   6.893 -0.2873 -0.0478 -0.6174
   33DOPE   H5X 4218   0.606   2.214   6.860 -0.5424 -0.9469 -2.1108
   33DOPE   H5Y 4219   0.766   2.138   6.820  1.8636 -0.3296  1.6904
   33DOPE   C36 4220   0.728   2.172   7.033  0.1185 -0.4348 -0.3908
   33DOPE   H6X 4221   0.802   2.098   7.068  0.3435  0.2348  0.5969
   33DOPE   H6Y 4222   0.650   2.167   7.112  0.3101  2.8427  0.1577
   33DOPE   C37 4223   0.802   2.307   7.046 -0.4798 -0.6281  0.0194
   33DOPE   H7X 4224   0.869   2.332   6.960 -2.0371  2.8529 -0.3729
   33DOPE   H7Y 4225   0.727   2.389   7.054 -0.2812 -0.4213 -0.1931
   33DOPE   C38 4226   0.874   2.314   7.189  0.0950  0.3973 -0.7491
   33DOPE   H8X 4227   0.942   2.394   7.226 -1.9782  0.4618  3.4190
   33DOPE   H8Y 4228   0.937   2.223   7.196 -3.4272 -2.1593  0.3550
   33DOPE   C39 4229   0.765   2.321   7.292  0.0606  1.1679  0.2034
   33DOPE   H9X 4230   0.677   2.375   7.256  0.9108  1.3888 -1.6475
   33DOPE  C310 4231   0.760   2.249   7.403 -0.0575  0.0079  0.2176
   33DOPE  H10X 4232   0.664   2.253   7.457 -0.9682 -0.6326 -1.2911
   33DOPE  C311 4233   0.865   2.166   7.475  0.0113 -0.2169 -0.0303
   33DOPE  H11X 4234   0.956   2.154   7.412 -0.4328 -1.1359 -0.5163
   33DOPE  H11Y 4235   0.900   2.214   7.568  0.8589  2.7870 -1.7401
   33DOPE  C312 4236   0.816   2.018   7.506  0.5672  0.1614 -0.6234
   33DOPE  H12X 4237   0.900   1.965   7.555 -1.3517 -1.8383  0.6744
   33DOPE  H12Y 4238   0.786   1.965   7.414 -0.9485 -1.4649  0.7396
   33DOPE  C313 4239   0.695   2.012   7.606 -0.5968 -0.1679  0.5481
   33DOPE  H13X 4240   0.724   2.044   7.709  0.3741  3.1404 -0.6554
   33DOPE  H13Y 4241   0.620   2.088   7.576 -0.1116  0.4598  0.9041
   33DOPE  C314 4242   0.629   1.881   7.606 -0.2185  0.7698 -0.1314
   33DOPE  H14X 4243   0.705   1.800   7.615  1.9407  2.7178  0.2460
   33DOPE  H14Y 4244   0.584   1.871   7.506 -1.3721  1.1451  0.3400
   33DOPE  C315 4245   0.506   1.860   7.695 -0.7151 -1.1886 -0.3907
   33DOPE  H15X 4246   0.453   1.770   7.657 -1.7360 -0.1407 -1.5312
   33DOPE  H15Y 4247   0.436   1.946   7.687  1.8889  1.1944  0.5504
   33DOPE  C316 4248   0.526   1.844   7.842  0.0078  0.1714 -0.8532
   33DOPE  H16X 4249   0.575   1.934   7.883 -1.1568 -0.0450  1.1445
   33DOPE  H16Y 4250   0.589   1.753   7.852 -0.6544 -0.6939 -3.6540
   33DOPE  C317 4251   0.399   1.817   7.920 -0.2546  0.0218 -0.2804
   33DOPE  H17X 4252   0.322   1.894   7.898 -0.7256  0.3893  2.3982
   33DOPE  H17Y 4253   0.362   1.724   7.873  4.2500 -1.6951 -1.0109
   33DOPE  C318 4254   0.417   1.790   8.069  0.4649  0.2792  0.1210
   33DOPE  H18X 4255   0.443   1.886   8.118 -0.0896  1.3398 -1.5644
   33DOPE  H18Y 4256   0.322   1.759   8.117  0.7996  0.2011  0.7464
   33DOPE  H18Z 4257   0.490   1.706   8.076  1.4164  0.9603 -1.0689
   34DOPE     N 4258   7.253   4.114   6.184  0.1962 -0.3676 -0.4365
   34DOPE   HN1 4259   7.255   4.188   6.256 -1.0759  0.1696 -0.9248
   34DOPE   HN2 4260   7.174   4.136   6.120  0.5304  1.9459 -0.1186
   34DOPE   HN3 4261   7.251   4.019   6.227 -0.2813 -0.7958 -1.3726
   34DOPE   C12 4262   7.375   4.112   6.099  0.5530  0.2003  0.0755
   34DOPE  H12A 4263   7.404   4.211   6.058  2.4370 -0.3036  0.0954
   34DOPE  H12B 4264   7.365   4.028   6.026  0.7637 -0.4166  0.7431
   34DOPE   C11 4265   7.496   4.095   6.193 -0.2878  0.1597 -0.8231
   34DOPE  H11A 4266   7.503   4.193   6.245  1.9104  0.8144 -2.1995
   34DOPE  H11B 4267   7.593   4.081   6.141  1.0939 -1.6246  1.9715
   34DOPE     P 4268   7.579   3.930   6.375 -0.0058  0.2048 -0.1516
   34DOPE   O13 4269   7.700   4.014   6.375  0.2019 -0.5043 -0.0403
   34DOPE   O14 4270   7.599   3.788   6.336  0.1797 -0.3371  0.0845
   34DOPE   O11 4271   7.507   3.934   6.515 -0.5401  0.0205 -0.1201
   34DOPE   O12 4272   7.466   3.988   6.281  1.0199  0.1665  0.6036
   34DOPE    C1 4273   7.388   4.008   6.537  0.0762  0.4685  0.0901
   34DOPE    HA 4274   7.308   3.960   6.477  1.4583  0.8041 -2.1266
   34DOPE    HB 4275   7.409   4.112   6.503  0.2092  0.3903 -0.0651
   34DOPE    C2 4276   7.353   4.024   6.687  0.8150 -0.4669  0.2806
   34DOPE    HS 4277   7.302   4.123   6.687  0.9906 -0.3690  0.9035
   34DOPE   O21 4278   7.463   4.016   6.780 -0.1076 -0.1441 -0.2579
   34DOPE   C21 4279   7.567   4.100   6.770  0.1748  0.1333  0.9702
   34DOPE   O22 4280   7.589   4.180   6.679 -0.0330 -0.1863 -0.3991
   34DOPE   C22 4281   7.652   4.086   6.886  0.4156  0.2224 -0.1393
   34DOPE   H2R 4282   7.756   4.083   6.848  0.4580  1.9206 -0.2256
   34DOPE   H2S 4283   7.634   3.986   6.931 -0.2599  0.7059  0.7064
   34DOPE    C3 4284   7.246   3.913   6.715 -0.2805 -0.3543 -0.4183
   34DOPE    HX 4285   7.261   3.826   6.648 -1.0390 -0.0774 -0.9666
   34DOPE    HY 4286   7.144   3.950   6.689 -0.2725  0.6824  0.9038
   34DOPE   O31 4287   7.247   3.874   6.857  0.2655  0.1737  0.5314
   34DOPE   C31 4288   7.359   3.801   6.891  0.3708  0.3726  0.0649
   34DOPE   O32 4289   7.416   3.722   6.819 -0.4747 -0.5457  0.5184
   34DOPE   C32 4290   7.378   3.810   7.045  0.1114  0.6934  0.0341
   34DOPE   H2X 4291   7.388   3.918   7.069 -0.4099  0.3660  1.8665
   34DOPE   H2Y 4292   7.279   3.771   7.079  0.0156  0.8885 -0.0199
   34DOPE   C23 4293   7.633   4.200   6.981 -0.4905 -0.4556  0.6386
   34DOPE   H3R 4294   7.663   4.291   6.925 -0.6990  0.1630  1.5180
   34DOPE   H3S 4295   7.705   4.194   7.065  1.9992 -1.1070 -1.4082
   34DOPE   C24 4296   7.499   4.219   7.034  0.2100  0.3729 -0.0560
   34DOPE   H4R 4297   7.447   4.125   7.064  2.0867 -0.6368  0.1648
   34DOPE   H4S 4298   7.430   4.270   6.963  1.9479  1.1905 -1.2121
   34DOPE   C25 4299   7.498   4.297   7.158 -0.0432 -0.9324  0.0801
   34DOPE   H5R 4300   7.392   4.321   7.178 -0.3741 -1.0114 -1.4613
   34DOPE   H5S 4301   7.547   4.395   7.134  0.8248 -1.4735 -0.4115
   34DOPE   C26 4302   7.544   4.227   7.285  0.1772 -0.1995 -0.0068
   34DOPE   H6R 4303   7.653   4.208   7.279  0.1790 -0.2118  0.0666
   34DOPE   H6S 4304   7.491   4.130   7.291  0.8986 -0.5049  3.5922
   34DOPE   C27 4305   7.507   4.297   7.418  0.0035 -0.6556 -0.3783
   34DOPE   H7R 4306   7.527   4.230   7.504  0.7682  0.2706  0.1855
   34DOPE   H7S 4307   7.397   4.313   7.426  0.4793  2.8499  0.5492
   34DOPE   C28 4308   7.561   4.433   7.443 -0.2393 -0.2414 -0.1857
   34DOPE   H8R 4309   7.518   4.462   7.541  1.3705  0.5348  0.3356
   34DOPE   H8S 4310   7.523   4.500   7.362  1.3045 -0.6621 -1.3141
   34DOPE   C29 4311   7.717   4.449   7.447 -0.4951  0.2155  0.2802
   34DOPE   H9R 4312   7.771   4.476   7.355  0.0126 -0.3667  0.3994
   34DOPE  C210 4313   7.804   4.442   7.549 -0.0964  0.6895 -0.5452
   34DOPE  H10R 4314   7.913   4.441   7.534 -0.2533 -0.7589 -1.8224
   34DOPE  C211 4315   7.766   4.420   7.692 -0.4244 -0.4003 -0.1022
   34DOPE  H11R 4316   7.811   4.324   7.724 -0.1400  0.1200  1.1446
   34DOPE  H11S 4317   7.656   4.412   7.706 -0.2547 -0.2668  1.4522
   34DOPE  C212 4318   7.810   4.534   7.789 -1.0961 -0.5309  0.4165
   34DOPE  H12R 4319   7.775   4.637   7.768 -1.4463 -0.7868 -0.2736
   34DOPE  H12S 4320   7.919   4.537   7.768 -1.3114  0.5388 -0.6567
   34DOPE  C213 4321   7.769   4.505   7.934  0.5453 -0.4175 -0.6012
   34DOPE  H13R 4322   7.806   4.403   7.958  0.8553 -0.1860 -0.0835
   34DOPE  H13S 4323   7.658   4.505   7.938  0.4659 -0.1039 -2.1814
   34DOPE  C214 4324   7.827   4.602   8.033 -0.4891 -0.1181 -0.0652
   34DOPE  H14R 4325   7.774   4.699   8.023 -2.3666 -1.0641  0.1881
   34DOPE  H14S 4326   7.934   4.619   8.008 -0.8609  1.4168 -0.7685
   34DOPE  C215 4327   7.822   4.555   8.175  0.0731 -0.6890 -0.7110
   34DOPE  H15R 4328   7.856   4.620   8.258  2.0272 -0.5636 -1.5551
   34DOPE  H15S 4329   7.887   4.465   8.182  0.8133 -0.1131  0.0097
   34DOPE  C216 4330   7.680   4.501   8.218 -0.2638  0.1238  0.3181
   34DOPE  H16R 4331   7.647   4.424   8.144 -1.7290  0.0063  1.0493
   34DOPE  H16S 4332   7.611   4.588   8.206 -0.7363 -0.1016  1.2705
   34DOPE  C217 4333   7.676   4.443   8.357  0.2303 -0.3706  0.6519
   34DOPE  H17R 4334   7.705   4.526   8.424 -2.5458  3.4303 -2.4284
   34DOPE  H17S 4335   7.748   4.359   8.367 -0.5299 -1.6554 -3.0014
   34DOPE  C218 4336   7.540   4.408   8.403 -0.1228  0.3225 -0.2634
   34DOPE  H18R 4337   7.471   4.495   8.394 -1.7999 -0.3220  4.0929
   34DOPE  H18S 4338   7.550   4.376   8.509  2.2640  0.5830 -0.3612
   34DOPE  H18T 4339   7.485   4.331   8.344 -2.4183  1.7921 -0.1576
   34DOPE   C33 4340   7.505   3.736   7.091 -0.2364 -0.1116 -0.2830
   34DOPE   H3X 4341   7.531   3.788   7.186 -0.3349  1.4413 -1.0782
   34DOPE   H3Y 4342   7.583   3.758   7.016  0.4618 -0.7119  0.2597
   34DOPE   C34 4343   7.494   3.589   7.141 -0.4521  0.4747  0.2293
   34DOPE   H4X 4344   7.439   3.536   7.060  0.9474  0.6609 -0.8703
   34DOPE   H4Y 4345   7.586   3.531   7.161  0.0079  1.4119  0.8906
   34DOPE   C35 4346   7.408   3.553   7.262 -0.1705 -0.2130  0.3034
   34DOPE   H5X 4347   7.301   3.573   7.243 -0.0984  0.0839  0.2094
   34DOPE   H5Y 4348   7.441   3.614   7.348  0.2926 -1.0655  0.7519
   34DOPE   C36 4349   7.424   3.401   7.303 -0.4158 -0.4182 -0.4255
   34DOPE   H6X 4350   7.523   3.404   7.355 -0.5214  1.9352 -0.2903
   34DOPE   H6Y 4351   7.428   3.340   7.210 -0.4300  0.2714 -0.8818
   34DOPE   C37 4352   7.306   3.346   7.397  0.2803 -0.1574  0.0604
   34DOPE   H7X 4353   7.283   3.400   7.491  2.4409 -1.1382  1.2382
   34DOPE   H7Y 4354   7.209   3.350   7.342  1.9676  2.1116 -3.1161
   34DOPE   C38 4355   7.338   3.199   7.447 -0.7375 -0.0877  0.0630
   34DOPE   H8X 4356   7.251   3.170   7.509 -1.7248  1.1070 -0.7136
   34DOPE   H8Y 4357   7.427   3.216   7.512 -0.3078  1.5389 -0.8722
   34DOPE   C39 4358   7.357   3.086   7.352  0.1659  0.4787  0.9718
   34DOPE   H9X 4359   7.266   3.030   7.329 -0.7216  1.9265  0.8619
   34DOPE  C310 4360   7.476   3.045   7.302  0.0528  0.0369  0.3685
   34DOPE  H10X 4361   7.470   2.956   7.237 -2.2238  0.0410  0.4936
   34DOPE  C311 4362   7.607   3.117   7.310  0.0742 -1.0550  0.0306
   34DOPE  H11X 4363   7.628   3.169   7.214 -1.6104 -1.8678 -0.8238
   34DOPE  H11Y 4364   7.618   3.200   7.384 -1.9803 -1.2555  0.6296
   34DOPE  C312 4365   7.736   3.033   7.336 -0.1805  0.1268  0.1821
   34DOPE  H12X 4366   7.821   3.092   7.295 -0.0631 -0.4023 -0.3415
   34DOPE  H12Y 4367   7.718   2.940   7.279  0.0199 -0.8377  1.6353
   34DOPE  C313 4368   7.761   2.998   7.484 -0.0207 -0.1799  0.3264
   34DOPE  H13X 4369   7.788   3.096   7.530  0.2217 -0.5741  1.0363
   34DOPE  H13Y 4370   7.668   2.965   7.535 -0.2971  0.5577  0.3096
   34DOPE  C314 4371   7.878   2.905   7.510 -0.9792 -0.4350 -0.2618
   34DOPE  H14X 4372   7.964   2.942   7.451 -1.4115 -0.6378 -1.0328
   34DOPE  H14Y 4373   7.861   2.804   7.466 -2.1043 -1.0076  1.3896
   34DOPE  C315 4374   7.900   2.884   7.663 -0.2953  0.2231  0.3506
   34DOPE  H15X 4375   7.801   2.891   7.714 -0.8549 -1.9343 -0.3106
   34DOPE  H15Y 4376   7.947   2.971   7.713  1.9338 -0.0160 -1.2183
   34DOPE  C316 4377   7.978   2.756   7.698 -0.4177 -0.0443  0.1163
   34DOPE  H16X 4378   8.059   2.749   7.621  0.0871  0.0011  0.6360
   34DOPE  H16Y 4379   7.922   2.664   7.671  2.5966 -1.8887 -0.4260
   34DOPE  C317 4380   8.031   2.756   7.841  0.5072  0.3343  0.2064
   34DOPE  H17X 4381   8.081   2.657   7.853  1.9496  1.2476  2.5749
   34DOPE  H17Y 4382   8.117   2.825   7.848 -0.0997  1.1235  0.0773
   34DOPE  C318 4383   7.934   2.766   7.956  0.2074  0.1381  0.1398
   34DOPE  H18X 4384   7.902   2.871   7.941 -1.4654 -0.5232 -1.2840
   34DOPE  H18Y 4385   7.850   2.694   7.948 -1.0247  1.2769  2.1234
   34DOPE  H18Z 4386   7.981   2.751   8.055  0.8092 -0.9492 -0.2887
   35DOPE     N 4387   3.016   1.419   6.614  0.7962 -0.0363  0.2252
   35DOPE   HN1 4388   2.974   1.488   6.678  2.0945 -0.4522  1.5854
   35DOPE   HN2 4389   2.971   1.325   6.606 -0.6439  0.6965 -0.7375
   35DOPE   HN3 4390   3.113   1.394   6.641  1.5712  0.4405 -1.8864
   35DOPE   C12 4391   3.009   1.486   6.481 -0.3899 -0.1952  0.1932
   35DOPE  H12A 4392   2.904   1.490   6.446 -0.8623  1.7993  1.6035
   35DOPE  H12B 4393   3.081   1.425   6.423 -1.2590 -0.9848 -0.0726
   35DOPE   C11 4394   3.062   1.631   6.480 -0.6628  0.8726 -0.6703
   35DOPE  H11A 4395   2.980   1.700   6.510  0.2997  0.8186  2.4897
   35DOPE  H11B 4396   3.101   1.660   6.380  1.9395  2.8337  0.7762
   35DOPE     P 4397   3.296   1.707   6.555 -0.4495  0.1628  0.0495
   35DOPE   O13 4398   3.267   1.819   6.466  0.9259 -0.5791  0.2560
   35DOPE   O14 4399   3.389   1.599   6.502 -0.5717  0.0152 -0.8247
   35DOPE   O11 4400   3.332   1.753   6.698  0.0013  0.0414 -0.5524
   35DOPE   O12 4401   3.160   1.643   6.578  0.1695  0.3379 -0.3557
   35DOPE    C1 4402   3.448   1.699   6.758  0.6326 -0.1014  0.8318
   35DOPE    HA 4403   3.528   1.705   6.682  0.5607  1.4787  0.8457
   35DOPE    HB 4404   3.437   1.589   6.770  3.7827 -0.5983 -0.0706
   35DOPE    C2 4405   3.490   1.759   6.891 -0.2896  0.0792  0.6944
   35DOPE    HS 4406   3.584   1.719   6.935 -1.2261 -1.2615  1.5528
   35DOPE   O21 4407   3.378   1.721   6.968  0.0315  0.4340  0.2031
   35DOPE   C21 4408   3.375   1.757   7.094 -0.4490 -0.0921  0.1127
   35DOPE   O22 4409   3.470   1.778   7.169 -0.0687  0.0909 -0.0134
   35DOPE   C22 4410   3.229   1.761   7.145 -0.3074  0.1430 -0.4321
   35DOPE   H2R 4411   3.188   1.661   7.120  0.7597 -0.9416  1.8461
   35DOPE   H2S 4412   3.173   1.837   7.087  1.4527  0.6564 -1.5523
   35DOPE    C3 4413   3.501   1.917   6.866 -0.5365 -0.6328 -0.9651
   35DOPE    HX 4414   3.400   1.947   6.833 -0.2270  1.4030 -0.1941
   35DOPE    HY 4415   3.573   1.933   6.783 -0.0106  0.8228 -0.2757
   35DOPE   O31 4416   3.529   1.992   6.985 -0.3133 -0.5205 -0.0731
   35DOPE   C31 4417   3.567   2.122   6.977 -0.3256 -0.3729  0.3631
   35DOPE   O32 4418   3.600   2.177   6.869 -0.1332 -0.4766 -0.0096
   35DOPE   C32 4419   3.566   2.195   7.114 -0.4612 -0.1382 -0.3823
   35DOPE   H2X 4420   3.483   2.165   7.182  1.6314 -1.1052  1.9202
   35DOPE   H2Y 4421   3.669   2.169   7.146 -0.7418  0.0209  0.7067
   35DOPE   C23 4422   3.224   1.783   7.295  0.3460  0.0339 -1.2528
   35DOPE   H3R 4423   3.299   1.860   7.324  0.5382 -0.7311  0.4130
   35DOPE   H3S 4424   3.249   1.685   7.342 -0.4903  0.4847  0.1868
   35DOPE   C24 4425   3.091   1.830   7.352 -0.0827 -0.4001  0.8587
   35DOPE   H4R 4426   2.998   1.799   7.299  0.5048  1.1399 -1.2319
   35DOPE   H4S 4427   3.096   1.936   7.319  0.0226 -1.5591 -3.4722
   35DOPE   C25 4428   3.087   1.814   7.507  0.9480 -0.9063  0.5051
   35DOPE   H5R 4429   3.014   1.886   7.549  2.2172  1.4450 -1.1137
   35DOPE   H5S 4430   3.188   1.837   7.545 -0.2872  2.4349  2.1606
   35DOPE   C26 4431   3.027   1.679   7.548 -0.1014 -0.0978  0.0659
   35DOPE   H6R 4432   3.083   1.598   7.496 -0.4791  0.7188 -1.6876
   35DOPE   H6S 4433   2.928   1.656   7.504  0.5498 -4.0698  0.3457
   35DOPE   C27 4434   3.031   1.657   7.700 -0.1354 -0.5256 -0.7928
   35DOPE   H7R 4435   2.935   1.616   7.739 -1.2733  2.6686  0.0586
   35DOPE   H7S 4436   3.037   1.754   7.754  0.4530 -0.1076 -1.5891
   35DOPE   C28 4437   3.159   1.583   7.759  0.0890  0.6091  0.0707
   35DOPE   H8R 4438   3.180   1.636   7.854 -0.7126  1.8764 -0.4407
   35DOPE   H8S 4439   3.243   1.604   7.690  0.5383 -2.8489 -0.6243
   35DOPE   C29 4440   3.135   1.431   7.759  0.0863  0.5173  0.4186
   35DOPE   H9R 4441   3.066   1.396   7.681 -1.5505  1.5704  1.3215
   35DOPE  C210 4442   3.186   1.344   7.849 -0.9096  0.1407 -0.2575
   35DOPE  H10R 4443   3.157   1.238   7.853  0.0485 -0.1037  1.4407
   35DOPE  C211 4444   3.279   1.384   7.954 -0.4244  1.0885  0.7911
   35DOPE  H11R 4445   3.335   1.477   7.931 -1.1792  1.4128  0.2051
   35DOPE  H11S 4446   3.346   1.298   7.972 -1.0924 -0.0569 -1.6818
   35DOPE  C212 4447   3.216   1.415   8.096  0.1119  0.1518  0.6984
   35DOPE  H12R 4448   3.160   1.326   8.132 -0.1112 -0.7080 -1.5869
   35DOPE  H12S 4449   3.154   1.505   8.076 -1.1764 -0.7733  0.3814
   35DOPE  C213 4450   3.326   1.462   8.190  0.1638 -0.4029  0.0014
   35DOPE  H13R 4451   3.386   1.536   8.132  0.8459 -1.0607 -0.1461
   35DOPE  H13S 4452   3.389   1.374   8.212  2.2140  1.1220  0.5267
   35DOPE  C214 4453   3.266   1.527   8.320 -0.2336  0.0064  0.0897
   35DOPE  H14R 4454   3.208   1.617   8.291 -0.1611 -0.3021 -1.0410
   35DOPE  H14S 4455   3.363   1.558   8.366 -0.6855 -0.9717  1.7881
   35DOPE  C215 4456   3.198   1.438   8.417  0.0586  0.2164  0.6645
   35DOPE  H15R 4457   3.266   1.354   8.444 -1.9502 -1.7518 -0.0443
   35DOPE  H15S 4458   3.108   1.395   8.367  0.9456 -0.0992 -0.7143
   35DOPE  C216 4459   3.141   1.512   8.540  0.1697 -0.0105 -0.1664
   35DOPE  H16R 4460   3.064   1.443   8.581 -0.2613  0.1411 -0.7106
   35DOPE  H16S 4461   3.099   1.612   8.515  1.2271  1.2837  2.7591
   35DOPE  C217 4462   3.240   1.544   8.665  0.2477  0.5972  0.0170
   35DOPE  H17R 4463   3.311   1.623   8.632 -0.0174  0.5500 -0.6888
   35DOPE  H17S 4464   3.303   1.453   8.676  1.3479  1.4012  0.5273
   35DOPE  C218 4465   3.185   1.594   8.796 -0.4013 -0.3460 -0.0889
   35DOPE  H18R 4466   3.256   1.571   8.878 -0.2234  0.3527 -0.0388
   35DOPE  H18S 4467   3.089   1.543   8.817 -0.7039  0.8088  1.5328
   35DOPE  H18T 4468   3.153   1.701   8.798 -1.6344 -0.6165  3.7811
   35DOPE   C33 4469   3.563   2.351   7.105 -0.5833 -0.0633  0.1217
   35DOPE   H3X 4470   3.456   2.377   7.109 -0.3553  0.9233  0.1285
   35DOPE   H3Y 4471   3.600   2.399   7.011 -2.0185  1.8494  0.4965
   35DOPE   C34 4472   3.640   2.426   7.224  0.3450  0.5909  0.1997
   35DOPE   H4X 4473   3.749   2.405   7.220  0.3774  0.8439 -0.3539
   35DOPE   H4Y 4474   3.640   2.535   7.208  1.0662  0.7820  1.3943
   35DOPE   C35 4475   3.572   2.390   7.358  0.6039 -0.4108  0.0907
   35DOPE   H5X 4476   3.556   2.280   7.364  0.2778 -0.3959 -0.4447
   35DOPE   H5Y 4477   3.467   2.426   7.358 -0.2034 -2.5719  0.0139
   35DOPE   C36 4478   3.648   2.440   7.482 -0.4353  0.4486 -0.4273
   35DOPE   H6X 4479   3.664   2.550   7.488  0.4506  0.3711 -1.1797
   35DOPE   H6Y 4480   3.751   2.400   7.491 -0.6749  0.1506  1.3318
   35DOPE   C37 4481   3.558   2.395   7.596 -0.2305 -0.3261 -0.6781
   35DOPE   H7X 4482   3.462   2.450   7.584 -0.0494  0.0865 -0.2767
   35DOPE   H7Y 4483   3.529   2.288   7.589 -2.6143  0.2201 -0.1433
   35DOPE   C38 4484   3.606   2.423   7.737 -0.2599  0.0659 -0.2480
   35DOPE   H8X 4485   3.526   2.385   7.804  0.4649 -1.2679 -0.1006
   35DOPE   H8Y 4486   3.612   2.532   7.758 -1.7393  0.0554  0.3726
   35DOPE   C39 4487   3.736   2.350   7.768  0.4575 -0.3137 -0.0340
   35DOPE   H9X 4488   3.821   2.388   7.710  2.0256 -0.2822  2.1609
   35DOPE  C310 4489   3.750   2.245   7.846 -0.2855 -0.1470 -0.4223
   35DOPE  H10X 4490   3.854   2.208   7.853 -0.3592 -0.6194 -1.5844
   35DOPE  C311 4491   3.643   2.183   7.926  0.2543 -0.2297 -0.4587
   35DOPE  H11X 4492   3.549   2.175   7.868  0.6739 -0.7134 -1.0880
   35DOPE  H11Y 4493   3.674   2.084   7.968 -1.2655 -0.2578  0.6685
   35DOPE  C312 4494   3.634   2.270   8.054 -0.2256  0.6160  0.1746
   35DOPE  H12X 4495   3.612   2.375   8.029  1.0855  1.1095  0.9901
   35DOPE  H12Y 4496   3.738   2.275   8.093 -0.6479 -1.8536  1.8785
   35DOPE  C313 4497   3.539   2.221   8.161 -0.7124  0.0272  1.1187
   35DOPE  H13X 4498   3.438   2.202   8.119 -1.5846 -1.5439  3.6936
   35DOPE  H13Y 4499   3.558   2.116   8.194 -0.8480 -0.2493  0.3311
   35DOPE  C314 4500   3.523   2.311   8.280 -0.3188  0.9529 -0.5971
   35DOPE  H14X 4501   3.478   2.407   8.247  1.3046  2.0744  0.3823
   35DOPE  H14Y 4502   3.620   2.341   8.323 -0.9923  2.5353 -0.1229
   35DOPE  C315 4503   3.427   2.248   8.386 -0.1121 -0.1638  0.0137
   35DOPE  H15X 4504   3.485   2.173   8.443  2.6458  1.0214 -1.0768
   35DOPE  H15Y 4505   3.356   2.185   8.327  0.8329 -2.2538  1.0080
   35DOPE  C316 4506   3.363   2.341   8.484  0.6109  0.5856  0.2278
   35DOPE  H16X 4507   3.312   2.421   8.427 -2.3057 -1.2573  0.0277
   35DOPE  H16Y 4508   3.444   2.386   8.544 -0.2494  0.2568  1.6946
   35DOPE  C317 4509   3.267   2.271   8.579  0.0707 -0.3653 -0.0692
   35DOPE  H17X 4510   3.177   2.222   8.536 -2.4416  1.0511  3.1354
   35DOPE  H17Y 4511   3.323   2.187   8.625 -0.6205 -0.7679  0.0409
   35DOPE  C318 4512   3.235   2.362   8.695  1.0416 -0.6472 -0.5355
   35DOPE  H18X 4513   3.318   2.413   8.748 -0.3916 -1.0693  2.3499
   35DOPE  H18Y 4514   3.169   2.441   8.654 -0.7996 -1.1510  1.2554
   35DOPE  H18Z 4515   3.165   2.317   8.769 -0.4576  1.2253 -0.7502
   36DOPE     N 4516   5.689   3.245   5.901  0.1850 -0.0787 -0.2905
   36DOPE   HN1 4517   5.781   3.203   5.924  0.7653 -0.8253 -3.4685
   36DOPE   HN2 4518   5.624   3.181   5.851 -1.1267  1.0799 -0.1146
   36DOPE   HN3 4519   5.709   3.318   5.829 -1.7012 -0.2047 -0.9976
   36DOPE   C12 4520   5.622   3.308   6.017 -0.4789  0.9098 -0.8183
   36DOPE  H12A 4521   5.529   3.354   5.978 -1.3947 -1.5982 -1.7655
   36DOPE  H12B 4522   5.689   3.387   6.057 -0.6859  0.2681  0.9080
   36DOPE   C11 4523   5.585   3.200   6.116  0.4744  0.0708  0.7285
   36DOPE  H11A 4524   5.528   3.250   6.197  0.8542 -0.0597  1.0810
   36DOPE  H11B 4525   5.674   3.153   6.164 -0.5671  0.1457  2.8856
   36DOPE     P 4526   5.505   2.952   6.093 -0.0906  0.6483 -0.3276
   36DOPE   O13 4527   5.644   2.908   6.083 -0.1095  0.3138 -0.0303
   36DOPE   O14 4528   5.405   2.880   6.012 -0.2289  0.3383 -0.1950
   36DOPE   O11 4529   5.460   2.948   6.240 -0.4816 -0.2098  0.2850
   36DOPE   O12 4530   5.491   3.106   6.056 -0.1373 -0.1969  0.0476
   36DOPE    C1 4531   5.320   2.973   6.273 -0.2001 -0.2604  0.4596
   36DOPE    HA 4532   5.251   2.908   6.215  0.3005  1.6694 -2.5352
   36DOPE    HB 4533   5.289   3.075   6.241  1.9582  0.3884  0.2513
   36DOPE    C2 4534   5.294   2.971   6.431  1.1884 -0.2100  0.0815
   36DOPE    HS 4535   5.324   3.066   6.479  0.6029 -0.7518  1.5648
   36DOPE   O21 4536   5.371   2.861   6.489  0.1746  0.1572  0.4379
   36DOPE   C21 4537   5.436   2.897   6.600 -0.2078 -0.5260 -0.0503
   36DOPE   O22 4538   5.455   3.006   6.644  0.2408 -0.3078 -0.2008
   36DOPE   C22 4539   5.518   2.775   6.642 -0.3125 -0.0113  0.1540
   36DOPE   H2R 4540   5.612   2.772   6.582 -0.5747 -0.0325 -0.2630
   36DOPE   H2S 4541   5.459   2.693   6.596 -1.6004  0.4126  0.9969
   36DOPE    C3 4542   5.142   2.955   6.460  1.0170  0.0378 -0.1283
   36DOPE    HX 4543   5.113   2.849   6.449 -0.7398  0.5358 -0.5798
   36DOPE    HY 4544   5.080   3.021   6.396  0.1162  0.2648  0.9437
   36DOPE   O31 4545   5.117   2.994   6.608 -0.2677  0.0721  0.9347
   36DOPE   C31 4546   5.007   2.938   6.659 -0.3824  0.2704 -0.0636
   36DOPE   O32 4547   4.933   2.861   6.601 -0.8231 -0.0534  0.5282
   36DOPE   C32 4548   4.976   2.998   6.799  0.1971  0.4220  0.1954
   36DOPE   H2X 4549   5.074   3.016   6.847  0.8051  1.3431 -1.3116
   36DOPE   H2Y 4550   4.920   3.094   6.798 -1.8935 -0.6686  2.0773
   36DOPE   C23 4551   5.526   2.760   6.792 -0.3544  0.4215  0.0126
   36DOPE   H3R 4552   5.572   2.842   6.853  2.7277  0.2742 -1.8641
   36DOPE   H3S 4553   5.604   2.681   6.802 -0.2327  0.0633 -2.8895
   36DOPE   C24 4554   5.389   2.716   6.852 -0.1962  0.0725  0.2317
   36DOPE   H4R 4555   5.373   2.607   6.833  0.1350  0.2560 -1.1908
   36DOPE   H4S 4556   5.308   2.785   6.819  0.8931  0.4764 -1.7164
   36DOPE   C25 4557   5.385   2.718   7.007 -0.7176  0.1396  0.3244
   36DOPE   H5R 4558   5.357   2.820   7.040  2.2896  0.9357  0.7557
   36DOPE   H5S 4559   5.486   2.692   7.047 -0.8045  1.5434  1.5641
   36DOPE   C26 4560   5.283   2.620   7.063 -0.2596  0.1791 -0.8227
   36DOPE   H6R 4561   5.300   2.518   7.024 -0.4536 -1.2841  2.5709
   36DOPE   H6S 4562   5.180   2.658   7.049 -0.4088  0.9567  1.8585
   36DOPE   C27 4563   5.298   2.599   7.215  0.3044  0.3316  0.5952
   36DOPE   H7R 4564   5.315   2.693   7.273 -0.0504 -0.1938  1.5778
   36DOPE   H7S 4565   5.395   2.545   7.221  0.9658  1.2877 -0.8768
   36DOPE   C28 4566   5.193   2.520   7.290  0.5026 -0.1300 -0.1923
   36DOPE   H8R 4567   5.225   2.529   7.396 -0.7340  0.3012  0.1698
   36DOPE   H8S 4568   5.202   2.413   7.261  2.4285  0.8347 -3.6598
   36DOPE   C29 4569   5.057   2.576   7.264 -0.3799  0.4575  0.2348
   36DOPE   H9R 4570   4.991   2.513   7.203 -0.7025 -1.2803  2.2663
   36DOPE  C210 4571   4.999   2.686   7.310  0.0616 -1.0627 -0.2515
   36DOPE  H10R 4572   4.897   2.721   7.286  0.2291  0.1896  0.7979
   36DOPE  C211 4573   5.083   2.779   7.408  1.5577 -0.0469  0.6652
   36DOPE  H11R 4574   5.085   2.884   7.370  0.2380  0.1049  0.9501
   36DOPE  H11S 4575   5.192   2.761   7.421  2.2838  0.5297 -3.1838
   36DOPE  C212 4576   5.017   2.781   7.542 -0.0019  0.3712 -0.3803
   36DOPE  H12R 4577   4.911   2.813   7.536  0.1252  0.6626 -1.2291
   36DOPE  H12S 4578   5.061   2.861   7.606 -0.8831  2.2248 -1.9601
   36DOPE  C213 4579   5.030   2.658   7.618 -0.3333 -0.0517  0.7106
   36DOPE  H13R 4580   5.021   2.569   7.553  1.5731  0.4604 -0.3193
   36DOPE  H13S 4581   4.947   2.658   7.692 -0.1268 -1.5005  0.9589
   36DOPE  C214 4582   5.166   2.630   7.688  0.2092 -0.2754 -0.6928
   36DOPE  H14R 4583   5.177   2.700   7.773 -0.5951 -0.2325 -0.6125
   36DOPE  H14S 4584   5.253   2.633   7.619 -1.0005  1.5810 -2.2755
   36DOPE  C215 4585   5.172   2.481   7.748  0.1019  0.1520  0.1829
   36DOPE  H15R 4586   5.270   2.485   7.800 -0.0006  1.2758  0.3005
   36DOPE  H15S 4587   5.179   2.414   7.659 -0.9467 -0.5035  0.5669
   36DOPE  C216 4588   5.048   2.426   7.818 -0.1103  0.7044 -0.8279
   36DOPE  H16R 4589   4.961   2.429   7.748 -0.7704  0.1290 -0.0398
   36DOPE  H16S 4590   5.028   2.490   7.906 -0.1564  0.6102 -0.7697
   36DOPE  C217 4591   5.073   2.286   7.878  0.6314 -0.0101 -0.1042
   36DOPE  H17R 4592   5.061   2.204   7.803  1.5956 -0.7787  0.5620
   36DOPE  H17S 4593   4.984   2.267   7.942  0.1996 -1.8828 -1.1673
   36DOPE  C218 4594   5.193   2.268   7.965  0.5607 -0.0737  0.3118
   36DOPE  H18R 4595   5.200   2.163   8.001 -0.0314 -0.8567 -1.6943
   36DOPE  H18S 4596   5.182   2.333   8.054  0.0372  1.2883 -0.7105
   36DOPE  H18T 4597   5.290   2.289   7.915  0.4319  0.7011  0.3725
   36DOPE   C33 4598   4.893   2.906   6.895  0.1874 -0.4183  0.3646
   36DOPE   H3X 4599   4.953   2.813   6.895  2.1482  0.7763  0.9496
   36DOPE   H3Y 4600   4.794   2.880   6.852  0.4930  0.2124 -0.7787
   36DOPE   C34 4601   4.869   2.962   7.036 -0.4113 -0.5050  0.3289
   36DOPE   H4X 4602   4.846   2.871   7.096 -2.1128 -0.7602 -0.6336
   36DOPE   H4Y 4603   4.969   2.989   7.076 -0.3012  0.5939 -0.6609
   36DOPE   C35 4604   4.764   3.063   7.039 -0.6460  0.1655  0.4861
   36DOPE   H5X 4605   4.667   3.023   7.001  0.5863 -0.8485 -1.7852
   36DOPE   H5Y 4606   4.784   3.153   6.978 -0.9190  1.5755  2.3936
   36DOPE   C36 4607   4.750   3.125   7.169 -0.3617 -0.0297 -0.2400
   36DOPE   H6X 4608   4.659   3.188   7.173 -2.3771 -2.7298 -0.7389
   36DOPE   H6Y 4609   4.845   3.177   7.197 -1.5934  1.3426  1.6385
   36DOPE   C37 4610   4.716   3.021   7.277  0.2882 -0.0596 -0.0883
   36DOPE   H7X 4611   4.631   2.963   7.235  0.3071  0.3265 -0.6601
   36DOPE   H7Y 4612   4.800   2.953   7.303 -1.1902 -1.6343  0.8084
   36DOPE   C38 4613   4.668   3.081   7.406 -0.4403  0.1467  0.4127
   36DOPE   H8X 4614   4.605   3.169   7.381 -1.3854 -0.1968  1.5153
   36DOPE   H8Y 4615   4.756   3.135   7.448  0.2844  0.4591 -1.4208
   36DOPE   C39 4616   4.616   2.982   7.512  0.2373 -0.0425 -0.2971
   36DOPE   H9X 4617   4.567   2.889   7.477 -1.9371  0.8455  0.2173
   36DOPE  C310 4618   4.600   3.011   7.642  1.0454  0.3044 -0.3754
   36DOPE  H10X 4619   4.549   2.944   7.713  2.3762  2.0086  2.3493
   36DOPE  C311 4620   4.663   3.128   7.708 -0.0520 -0.4086  0.0140
   36DOPE  H11X 4621   4.730   3.188   7.644  2.4797 -1.4590  1.5424
   36DOPE  H11Y 4622   4.584   3.201   7.737  1.2738  1.6504 -1.2819
   36DOPE  C312 4623   4.744   3.093   7.836  0.0621 -0.3846  0.0428
   36DOPE  H12X 4624   4.681   3.086   7.927 -2.2357 -0.8499 -1.5054
   36DOPE  H12Y 4625   4.802   3.186   7.850  1.5853 -1.5648  2.2008
   36DOPE  C313 4626   4.849   2.978   7.823  0.0822 -0.5463 -0.4677
   36DOPE  H13X 4627   4.800   2.878   7.830  0.2905 -0.6456 -0.4456
   36DOPE  H13Y 4628   4.895   2.994   7.723 -0.6475  1.3688 -0.5357
   36DOPE  C314 4629   4.955   2.972   7.932  1.0071  0.3653 -0.1800
   36DOPE  H14X 4630   4.991   3.075   7.954  2.3839  0.1353 -1.1945
   36DOPE  H14Y 4631   5.035   2.907   7.891  0.2235 -1.1543  0.5812
   36DOPE  C315 4632   4.895   2.898   8.057 -0.1462  0.2535 -0.1191
   36DOPE  H15X 4633   4.790   2.932   8.068 -0.5591 -0.9990 -0.0187
   36DOPE  H15Y 4634   4.946   2.916   8.154 -0.6518  1.1025  0.0055
   36DOPE  C316 4635   4.904   2.742   8.044 -0.2229  0.0823 -0.1577
   36DOPE  H16X 4636   5.012   2.722   8.030 -0.3209 -0.1647 -0.5879
   36DOPE  H16Y 4637   4.846   2.716   7.952 -2.3976 -1.0186  1.4402
   36DOPE  C317 4638   4.858   2.658   8.171 -0.0528 -0.3409 -0.2344
   36DOPE  H17X 4639   4.891   2.707   8.265 -3.1889 -0.2370  0.9214
   36DOPE  H17Y 4640   4.749   2.649   8.187 -0.1952 -2.1138 -1.8553
   36DOPE  C318 4641   4.913   2.513   8.171  0.6140  0.3617 -0.7067
   36DOPE  H18X 4642   4.867   2.462   8.084 -0.1850 -0.1672  0.0088
   36DOPE  H18Y 4643   5.023   2.501   8.163  0.6375 -0.3300  0.3881
   36DOPE  H18Z 4644   4.887   2.462   8.266 -0.5840  2.3674  0.1075
   37DOPE     N 4645   0.046   3.541   6.348  0.2613 -0.1198 -0.1330
   37DOPE   HN1 4646  -0.029   3.476   6.319  0.7125 -0.7049 -0.0095
   37DOPE   HN2 4647   0.000   3.634   6.344 -0.3853 -0.4555 -0.5782
   37DOPE   HN3 4648   0.118   3.547   6.273  0.6449 -0.6913  0.1786
   37DOPE   C12 4649   0.112   3.511   6.480  0.1263  0.1765  0.0096
   37DOPE  H12A 4650   0.034   3.498   6.559 -0.8565  0.8097 -0.8368
   37DOPE  H12B 4651   0.185   3.588   6.514  0.2417 -0.2451  0.7555
   37DOPE   C11 4652   0.183   3.372   6.466  0.2594 -0.6621 -0.6435
   37DOPE  H11A 4653   0.203   3.334   6.568  0.9102 -1.3451 -1.0200
   37DOPE  H11B 4654   0.278   3.401   6.415  0.0802  3.3463  0.8914
   37DOPE     P 4655   0.126   3.118   6.418 -0.1568 -0.6341  0.0809
   37DOPE   O13 4656   0.251   3.091   6.344 -0.5922 -0.2663 -0.1115
   37DOPE   O14 4657   0.011   3.041   6.374  0.0559 -0.1550 -0.0282
   37DOPE   O11 4658   0.152   3.094   6.575 -0.0271 -0.0256  0.2795
   37DOPE   O12 4659   0.092   3.274   6.410 -0.2992 -0.2268  0.0322
   37DOPE    C1 4660   0.055   3.036   6.660  0.1271  0.3763  0.3697
   37DOPE    HA 4661   0.060   2.925   6.665 -0.0904  0.3602  0.2385
   37DOPE    HB 4662  -0.046   3.055   6.618  0.8344  2.7242 -0.4101
   37DOPE    C2 4663   0.051   3.107   6.805  0.2039  0.9928 -0.0856
   37DOPE    HS 4664   0.024   3.215   6.794 -0.7228  0.5371 -3.8077
   37DOPE   O21 4665   0.177   3.080   6.870  0.4668  0.1225 -0.5680
   37DOPE   C21 4666   0.278   3.155   6.847  0.0063  0.3136 -0.6910
   37DOPE   O22 4667   0.286   3.260   6.793  0.3072 -0.0091  0.4162
   37DOPE   C22 4668   0.402   3.078   6.897 -0.6497  0.4065 -0.1487
   37DOPE   H2R 4669   0.489   3.102   6.831 -1.6328  0.5581 -1.4353
   37DOPE   H2S 4670   0.392   2.968   6.897 -0.3592  0.3760 -0.4745
   37DOPE    C3 4671  -0.067   3.049   6.893 -0.0307  1.1438  0.5151
   37DOPE    HX 4672  -0.054   3.084   6.998  2.9376  2.2171 -0.1259
   37DOPE    HY 4673  -0.041   2.942   6.879 -1.1964  0.9907 -0.7355
   37DOPE   O31 4674  -0.198   3.063   6.833  0.0681 -0.3225 -0.0938
   37DOPE   C31 4675  -0.263   3.176   6.872 -0.0088 -0.2655  0.3913
   37DOPE   O32 4676  -0.214   3.257   6.956  0.1292  0.7737 -0.2044
   37DOPE   C32 4677  -0.405   3.178   6.813 -0.3580 -0.0507  0.4638
   37DOPE   H2X 4678  -0.398   3.183   6.703 -1.2080 -0.1143  0.4046
   37DOPE   H2Y 4679  -0.448   3.077   6.832 -0.4469 -0.1863 -0.4184
   37DOPE   C23 4680   0.427   3.127   7.044  0.0464  0.1125 -0.0551
   37DOPE   H3R 4681   0.335   3.150   7.101  0.0555 -0.8670  0.3830
   37DOPE   H3S 4682   0.480   3.225   7.038  1.4030 -0.3830  2.4819
   37DOPE   C24 4683   0.513   3.037   7.127  0.0133 -0.2578 -0.0945
   37DOPE   H4R 4684   0.621   3.045   7.099 -0.0860  0.1043 -0.3851
   37DOPE   H4S 4685   0.480   2.933   7.107 -1.7656  0.4222 -0.8615
   37DOPE   C25 4686   0.510   3.056   7.282 -0.4265  0.3959  0.4093
   37DOPE   H5R 4687   0.412   3.026   7.324 -1.0429  0.3287 -1.0312
   37DOPE   H5S 4688   0.521   3.158   7.324 -1.0686 -0.4297  2.7571
   37DOPE   C26 4689   0.623   2.967   7.349  0.1111 -0.0249  0.9665
   37DOPE   H6R 4690   0.723   2.999   7.314 -0.1438 -0.8335 -0.5731
   37DOPE   H6S 4691   0.607   2.862   7.318  0.5335  0.0853  0.3732
   37DOPE   C27 4692   0.611   2.978   7.501  0.2896 -0.2795 -0.0926
   37DOPE   H7R 4693   0.507   2.969   7.538  0.4751  1.5217  0.9749
   37DOPE   H7S 4694   0.639   3.084   7.522  1.0245 -0.4901  0.0284
   37DOPE   C28 4695   0.706   2.885   7.579  0.3973 -0.2857  0.2710
   37DOPE   H8R 4696   0.690   2.904   7.687  0.4102 -0.3163  0.2785
   37DOPE   H8S 4697   0.807   2.916   7.545 -0.1587  0.5795 -0.6434
   37DOPE   C29 4698   0.677   2.738   7.557  0.1773  0.7112 -0.5517
   37DOPE   H9R 4699   0.602   2.718   7.479 -0.3132  0.8328 -0.1155
   37DOPE  C210 4700   0.708   2.643   7.644  0.2469  0.3165  0.0774
   37DOPE  H10R 4701   0.668   2.543   7.623 -0.5441  1.0176 -2.0069
   37DOPE  C211 4702   0.784   2.657   7.774  0.1321  0.0047 -0.5301
   37DOPE  H11R 4703   0.815   2.763   7.787 -0.9379  0.0536  2.2284
   37DOPE  H11S 4704   0.880   2.603   7.781 -1.1161 -2.2212  0.6551
   37DOPE  C212 4705   0.700   2.631   7.901  0.1330  0.4030 -0.6698
   37DOPE  H12R 4706   0.606   2.690   7.900 -0.3405 -0.2267  1.3183
   37DOPE  H12S 4707   0.754   2.656   7.995 -1.7904 -0.1690  0.6530
   37DOPE  C213 4708   0.660   2.479   7.921  0.6912 -0.0296 -0.5415
   37DOPE  H13R 4709   0.593   2.432   7.845 -0.4430 -0.5810  0.7704
   37DOPE  H13S 4710   0.598   2.487   8.012  1.0512  0.9513 -0.3702
   37DOPE  C214 4711   0.771   2.375   7.941  0.0322 -0.1418 -0.2625
   37DOPE  H14R 4712   0.849   2.410   8.012  0.8699 -0.3742 -1.0574
   37DOPE  H14S 4713   0.818   2.361   7.842  0.2696 -2.2849  0.1206
   37DOPE  C215 4714   0.707   2.242   8.011 -0.0106 -0.5480  0.3785
   37DOPE  H15R 4715   0.762   2.152   7.975  1.7717  0.2831  0.9565
   37DOPE  H15S 4716   0.601   2.233   7.978  0.1081 -0.8886  0.0800
   37DOPE  C216 4717   0.705   2.245   8.162  0.3382  0.1566 -0.5190
   37DOPE  H16R 4718   0.648   2.330   8.206  3.5430  2.3134 -0.1881
   37DOPE  H16S 4719   0.806   2.253   8.208 -0.0854  0.7257  0.3501
   37DOPE  C217 4720   0.636   2.117   8.207 -0.7001 -0.5201 -0.2298
   37DOPE  H17R 4721   0.670   2.031   8.144  0.4635 -0.3167  0.1110
   37DOPE  H17S 4722   0.527   2.127   8.188 -1.1531 -3.4217  0.3440
   37DOPE  C218 4723   0.648   2.089   8.357 -0.1756  0.5354 -0.2963
   37DOPE  H18R 4724   0.584   2.155   8.419  1.7287  0.1149  2.3525
   37DOPE  H18S 4725   0.757   2.103   8.376 -0.3407  0.5891  0.7163
   37DOPE  H18T 4726   0.633   1.983   8.387  0.4605 -0.3704 -2.9357
   37DOPE   C33 4727  -0.496   3.292   6.856 -0.0270 -0.0876 -0.1513
   37DOPE   H3X 4728  -0.441   3.388   6.849 -0.1450 -0.0783 -1.1119
   37DOPE   H3Y 4729  -0.525   3.286   6.963 -0.6624  3.3027 -0.0193
   37DOPE   C34 4730  -0.622   3.314   6.767 -0.2916 -0.2645 -0.3028
   37DOPE   H4X 4731  -0.665   3.412   6.797  0.2238 -0.3587  0.7870
   37DOPE   H4Y 4732  -0.579   3.326   6.665  1.1311 -0.7278  0.2229
   37DOPE   C35 4733  -0.726   3.199   6.774  0.5652  0.4786 -0.6418
   37DOPE   H5X 4734  -0.676   3.101   6.789 -0.3118  0.2663  1.0815
   37DOPE   H5Y 4735  -0.780   3.203   6.677  0.5761  1.4881 -0.6229
   37DOPE   C36 4736  -0.828   3.218   6.890 -0.5698 -0.0310 -0.1961
   37DOPE   H6X 4737  -0.887   3.308   6.863  0.4620  0.3346 -1.3493
   37DOPE   H6Y 4738  -0.782   3.215   6.991  1.0863 -4.9031 -0.8194
   37DOPE   C37 4739  -0.933   3.106   6.907  0.3466  0.0735  0.2260
   37DOPE   H7X 4740  -0.985   3.091   6.810  0.2984  0.7568  0.1423
   37DOPE   H7Y 4741  -0.884   3.014   6.944  1.0879  0.9393  1.4638
   37DOPE   C38 4742  -1.039   3.146   7.013 -0.3007 -0.1531  0.0305
   37DOPE   H8X 4743  -1.098   3.232   6.974  2.8669  1.4528 -1.6254
   37DOPE   H8Y 4744  -0.992   3.192   7.102  3.4607  0.7311 -2.1893
   37DOPE   C39 4745  -1.116   3.018   7.044 -0.3300  0.0820  0.3164
   37DOPE   H9X 4746  -1.192   2.985   6.971  0.7551 -0.8110 -0.4410
   37DOPE  C310 4747  -1.088   2.943   7.152 -0.1655 -0.0445 -0.1769
   37DOPE  H10X 4748  -1.143   2.848   7.160  0.6957 -0.5148  0.3665
   37DOPE  C311 4749  -0.976   2.960   7.256 -0.2690 -0.5134  0.4052
   37DOPE  H11X 4750  -0.929   3.060   7.239 -0.9949 -0.1477  0.5199
   37DOPE  H11Y 4751  -1.027   2.947   7.354 -1.6925 -0.1864 -0.2666
   37DOPE  C312 4752  -0.876   2.846   7.233  0.3441 -0.5183  0.0544
   37DOPE  H12X 4753  -0.832   2.858   7.131  1.8893  2.0249  0.9089
   37DOPE  H12Y 4754  -0.919   2.744   7.238 -1.4392  0.1926 -0.0345
   37DOPE  C313 4755  -0.759   2.841   7.334  0.0037  0.9084 -0.2006
   37DOPE  H13X 4756  -0.670   2.786   7.299 -0.9976 -1.8696  1.2684
   37DOPE  H13Y 4757  -0.726   2.941   7.371 -1.0617  1.2418 -0.0987
   37DOPE  C314 4758  -0.797   2.769   7.465 -0.5443  0.0423 -1.0693
   37DOPE  H14X 4759  -0.828   2.664   7.446 -1.3042 -0.9308  3.9999
   37DOPE  H14Y 4760  -0.890   2.823   7.491 -0.1002  0.2488  0.1705
   37DOPE  C315 4761  -0.693   2.784   7.581 -0.1530 -0.2574 -0.1659
   37DOPE  H15X 4762  -0.702   2.887   7.623 -0.3473 -0.5177  0.4381
   37DOPE  H15Y 4763  -0.594   2.763   7.534 -1.0525 -1.3701 -1.6477
   37DOPE  C316 4764  -0.719   2.690   7.697 -0.1780  0.9236  0.3172
   37DOPE  H16X 4765  -0.618   2.684   7.743  0.4252  1.6274 -0.8908
   37DOPE  H16Y 4766  -0.750   2.588   7.665 -1.1532  1.1621  0.4697
   37DOPE  C317 4767  -0.822   2.748   7.799  0.2583 -0.2583 -0.0276
   37DOPE  H17X 4768  -0.802   2.855   7.824 -0.0723 -0.3005  0.4335
   37DOPE  H17Y 4769  -0.913   2.761   7.736 -0.0238  0.3839  0.4955
   37DOPE  C318 4770  -0.834   2.653   7.917  0.2213 -0.0799 -0.5023
   37DOPE  H18X 4771  -0.875   2.552   7.894  1.6916 -0.3088 -2.4239
   37DOPE  H18Y 4772  -0.734   2.643   7.964 -1.3117 -0.2915  3.0509
   37DOPE  H18Z 4773  -0.894   2.698   7.998  0.1809 -0.9025 -0.0573
   38DOPE     N 4774   3.895   3.681   5.579  0.5281 -0.1803 -0.9817
   38DOPE   HN1 4775   3.940   3.603   5.631 -3.4911 -0.6753  2.2390
   38DOPE   HN2 4776   3.863   3.643   5.488  0.7600 -2.6497 -0.1133
   38DOPE   HN3 4777   3.966   3.756   5.565 -0.3928  0.3968 -2.8721
   38DOPE   C12 4778   3.778   3.712   5.662  0.5132  0.5852  0.5037
   38DOPE  H12A 4779   3.748   3.627   5.727  2.4041 -0.2692  0.3271
   38DOPE  H12B 4780   3.694   3.743   5.596  0.5522  1.5780  0.9163
   38DOPE   C11 4781   3.815   3.829   5.749  0.7705 -0.0198  0.3683
   38DOPE  H11A 4782   3.728   3.858   5.812  0.2995  1.8147 -1.0502
   38DOPE  H11B 4783   3.846   3.919   5.692  0.2568  0.1954  0.4254
   38DOPE     P 4784   3.985   3.899   5.942 -0.0802 -0.2731  0.0827
   38DOPE   O13 4785   3.871   3.972   6.000  0.6509 -0.0418 -0.3852
   38DOPE   O14 4786   4.101   3.972   5.881  0.0448 -0.5703 -0.0965
   38DOPE   O11 4787   4.062   3.805   6.040 -0.5215 -0.1114 -0.0677
   38DOPE   O12 4788   3.921   3.787   5.835 -0.1788 -0.4419  0.0080
   38DOPE    C1 4789   4.029   3.665   6.070 -0.0633  0.1908  0.6263
   38DOPE    HA 4790   4.127   3.618   6.089  1.0706  2.2088  0.1162
   38DOPE    HB 4791   3.976   3.620   5.983  2.1568  0.8482 -1.1649
   38DOPE    C2 4792   3.949   3.644   6.203 -0.2754 -0.6655 -0.2426
   38DOPE    HS 4793   3.848   3.680   6.171  0.8481  2.5611 -0.5082
   38DOPE   O21 4794   4.011   3.721   6.304 -0.5088  0.2507  0.0978
   38DOPE   C21 4795   3.918   3.783   6.384  0.1989  0.7176 -0.4926
   38DOPE   O22 4796   3.801   3.780   6.357  0.2765  0.0878 -0.3264
   38DOPE   C22 4797   3.985   3.860   6.501 -0.6154  0.2997  0.0017
   38DOPE   H2R 4798   4.014   3.958   6.457  0.5417 -0.9961 -2.3529
   38DOPE   H2S 4799   4.076   3.801   6.525  0.2306  1.8881  0.8636
   38DOPE    C3 4800   3.940   3.496   6.247  0.1304  0.7638 -0.1028
   38DOPE    HX 4801   4.048   3.474   6.260  0.1605 -0.8894 -2.4805
   38DOPE    HY 4802   3.897   3.424   6.174  0.1847  0.3455  0.2700
   38DOPE   O31 4803   3.868   3.478   6.369  0.2446  0.5796 -0.2796
   38DOPE   C31 4804   3.737   3.449   6.367 -0.2214  0.2079  0.3140
   38DOPE   O32 4805   3.666   3.449   6.265  0.1968 -0.2445 -0.0917
   38DOPE   C32 4806   3.686   3.428   6.505 -0.0718 -0.1406  0.0207
   38DOPE   H2X 4807   3.576   3.443   6.493  0.1354  0.8937 -0.6898
   38DOPE   H2Y 4808   3.706   3.322   6.533  1.1310  0.1617  0.3528
   38DOPE   C23 4809   3.898   3.880   6.626  0.0726 -0.6307 -0.0704
   38DOPE   H3R 4810   3.869   3.780   6.666  0.5779 -0.8289 -0.1877
   38DOPE   H3S 4811   3.806   3.939   6.608 -0.5061 -1.2164  0.9091
   38DOPE   C24 4812   3.974   3.949   6.742  0.4157 -0.4456  0.0521
   38DOPE   H4R 4813   3.964   4.059   6.731  0.1910 -0.5125 -0.4437
   38DOPE   H4S 4814   4.083   3.927   6.742  0.2847 -1.1196  0.1671
   38DOPE   C25 4815   3.932   3.911   6.890 -0.3214 -0.5721 -0.7449
   38DOPE   H5R 4816   3.977   3.814   6.920 -0.6190 -1.0683 -1.8661
   38DOPE   H5S 4817   3.821   3.918   6.898 -0.0942  3.7394  1.1830
   38DOPE   C26 4818   3.984   4.009   6.995  0.5300  0.2790 -0.4082
   38DOPE   H6R 4819   3.941   4.110   6.975 -2.1817 -0.7774 -0.4447
   38DOPE   H6S 4820   4.094   4.017   6.990  0.8408 -3.0782 -1.0785
   38DOPE   C27 4821   3.946   3.967   7.141 -0.4260 -0.0385  0.6319
   38DOPE   H7R 4822   3.978   3.862   7.159 -2.7141 -1.5701 -2.9121
   38DOPE   H7S 4823   3.836   3.974   7.158 -0.7789  1.5000 -1.7247
   38DOPE   C28 4824   4.018   4.047   7.242  0.1777  0.8210 -0.7103
   38DOPE   H8R 4825   4.125   4.021   7.225 -0.5461 -1.1919 -2.7030
   38DOPE   H8S 4826   3.997   4.005   7.343  3.9467 -1.0967 -0.5352
   38DOPE   C29 4827   3.984   4.196   7.229  0.4366  0.9298  0.3719
   38DOPE   H9R 4828   4.003   4.234   7.128 -0.1086  0.6864  0.1730
   38DOPE  C210 4829   3.929   4.269   7.324  0.0488 -0.5461 -0.1104
   38DOPE  H10R 4830   3.920   4.376   7.301  1.4655 -0.1976  0.8202
   38DOPE  C211 4831   3.890   4.236   7.468  1.0013  0.1201  0.3558
   38DOPE  H11R 4832   3.849   4.133   7.473  1.8803 -0.3741 -1.4924
   38DOPE  H11S 4833   3.810   4.308   7.496  2.9602  2.9483 -0.8883
   38DOPE  C212 4834   4.000   4.258   7.570  0.1347 -0.3944  0.4084
   38DOPE  H12R 4835   4.037   4.362   7.573  1.0853 -0.6219 -1.5527
   38DOPE  H12S 4836   4.087   4.195   7.542  0.8101  0.0838  1.3879
   38DOPE  C213 4837   3.952   4.230   7.713  1.1266  0.4012  0.6051
   38DOPE  H13R 4838   4.030   4.193   7.783  0.8201 -1.7342 -0.1262
   38DOPE  H13S 4839   3.871   4.155   7.705  0.9834  0.5818  0.3379
   38DOPE  C214 4840   3.893   4.347   7.785  0.1692 -0.4668 -0.2152
   38DOPE  H14R 4841   3.829   4.395   7.708  1.4895 -0.8595 -1.6018
   38DOPE  H14S 4842   3.971   4.420   7.813 -0.4384  0.7678 -1.6148
   38DOPE  C215 4843   3.811   4.309   7.904  0.2761 -0.1325  0.3039
   38DOPE  H15R 4844   3.865   4.230   7.960 -2.0044 -0.4330  2.2772
   38DOPE  H15S 4845   3.715   4.269   7.867  1.0338 -2.2547  0.5339
   38DOPE  C216 4846   3.785   4.436   7.993  0.0481 -0.4270  0.3320
   38DOPE  H16R 4847   3.720   4.499   7.928 -2.8183 -1.5287  1.9716
   38DOPE  H16S 4848   3.878   4.485   8.029 -0.6959  0.1884  1.4982
   38DOPE  C217 4849   3.694   4.403   8.110  0.2552  0.1687  0.2576
   38DOPE  H17R 4850   3.611   4.347   8.062 -0.7481  1.7572  0.0662
   38DOPE  H17S 4851   3.666   4.506   8.141  1.4571  0.1918  1.3363
   38DOPE  C218 4852   3.756   4.316   8.212  0.5949  0.1032  0.3537
   38DOPE  H18R 4853   3.853   4.362   8.239  0.7600  0.9290 -1.4817
   38DOPE  H18S 4854   3.769   4.214   8.170 -1.5591  0.3047 -0.9625
   38DOPE  H18T 4855   3.692   4.302   8.302  1.8164 -2.6887  0.9111
   38DOPE   C33 4856   3.743   3.527   6.605  0.0574  0.1139 -0.2175
   38DOPE   H3X 4857   3.708   3.627   6.573  0.5238  0.3184 -0.0915
   38DOPE   H3Y 4858   3.853   3.516   6.617 -0.3514 -1.4307  3.3295
   38DOPE   C34 4859   3.687   3.499   6.742 -0.2279 -0.2516 -0.2905
   38DOPE   H4X 4860   3.579   3.479   6.729 -0.3853 -0.8636  1.6354
   38DOPE   H4Y 4861   3.736   3.410   6.786 -2.2270 -0.8212  0.8988
   38DOPE   C35 4862   3.690   3.618   6.830 -0.1481 -0.1321  0.1256
   38DOPE   H5X 4863   3.648   3.702   6.771 -1.1504  0.6837  1.9175
   38DOPE   H5Y 4864   3.789   3.651   6.868  0.4900 -1.3231 -0.4342
   38DOPE   C36 4865   3.606   3.593   6.961 -0.0208  0.1111  0.2386
   38DOPE   H6X 4866   3.647   3.505   7.016 -2.5751 -2.5705 -1.8151
   38DOPE   H6Y 4867   3.506   3.553   6.934  0.3251  0.2229 -1.3218
   38DOPE   C37 4868   3.584   3.722   7.044  0.7683 -0.1086  0.0602
   38DOPE   H7X 4869   3.677   3.770   7.082  0.1713  2.2032 -1.2062
   38DOPE   H7Y 4870   3.545   3.803   6.979  3.7309  1.5404  0.1291
   38DOPE   C38 4871   3.487   3.713   7.167 -0.0776  0.0215  0.0709
   38DOPE   H8X 4872   3.391   3.681   7.120  0.7927  1.0165 -2.5992
   38DOPE   H8Y 4873   3.478   3.817   7.205 -0.3556  0.3806 -0.9258
   38DOPE   C39 4874   3.546   3.616   7.267  0.4715 -0.0355  0.5776
   38DOPE   H9X 4875   3.539   3.511   7.235 -3.1784  1.1129 -3.3029
   38DOPE  C310 4876   3.616   3.650   7.376  0.4232  0.2914  0.0356
   38DOPE  H10X 4877   3.640   3.564   7.440 -0.0267 -1.6071 -2.1922
   38DOPE  C311 4878   3.637   3.787   7.433 -1.3358 -0.5596  0.1252
   38DOPE  H11X 4879   3.747   3.795   7.449 -1.1212 -2.5308 -0.1003
   38DOPE  H11Y 4880   3.613   3.868   7.360 -1.3366 -0.3907  0.3123
   38DOPE  C312 4881   3.574   3.812   7.572  0.5335  0.1619  0.1506
   38DOPE  H12X 4882   3.463   3.806   7.569  0.3846  1.7770  1.0033
   38DOPE  H12Y 4883   3.592   3.921   7.583  0.1753  0.3430 -0.9151
   38DOPE  C313 4884   3.636   3.736   7.687 -0.3580  0.0355  0.2416
   38DOPE  H13X 4885   3.635   3.627   7.663  0.2197  0.0766  0.0160
   38DOPE  H13Y 4886   3.743   3.765   7.700 -0.2788 -0.3772  0.5441
   38DOPE  C314 4887   3.553   3.747   7.813 -0.2751  0.0250  0.3352
   38DOPE  H14X 4888   3.556   3.855   7.837  1.7387  0.1495 -0.2806
   38DOPE  H14Y 4889   3.592   3.677   7.891  2.3807 -1.0634 -1.8207
   38DOPE  C315 4890   3.402   3.702   7.804  0.2251 -0.3641  0.2303
   38DOPE  H15X 4891   3.398   3.613   7.737 -0.5110 -1.3766  1.5483
   38DOPE  H15Y 4892   3.345   3.774   7.742 -0.6945 -0.9196  0.4012
   38DOPE  C316 4893   3.339   3.687   7.938 -0.3992  0.0245  0.0009
   38DOPE  H16X 4894   3.402   3.633   8.011 -1.3853  2.1080  2.5325
   38DOPE  H16Y 4895   3.242   3.633   7.927 -0.0676 -0.4851 -0.4910
   38DOPE  C317 4896   3.281   3.826   7.989  0.0279 -0.1810 -0.1992
   38DOPE  H17X 4897   3.374   3.888   7.993 -0.0090 -0.1397  4.3347
   38DOPE  H17Y 4898   3.211   3.871   7.915  0.5729  2.1450  0.5898
   38DOPE  C318 4899   3.217   3.805   8.126  0.1455  0.4871  0.5803
   38DOPE  H18X 4900   3.119   3.754   8.122  1.5201 -2.3338 -2.2763
   38DOPE  H18Y 4901   3.279   3.745   8.196 -0.7499 -2.3896 -0.9438
   38DOPE  H18Z 4902   3.196   3.906   8.168 -2.1041 -0.1414  1.0494
   39DOPE     N 4903   7.046   1.614   6.060 -0.3182  0.0301 -0.3974
   39DOPE   HN1 4904   7.064   1.580   5.963  0.3318 -1.5026  0.2144
   39DOPE   HN2 4905   6.948   1.646   6.049 -0.3215  0.1246 -0.1162
   39DOPE   HN3 4906   7.111   1.692   6.080  2.0423 -1.5520 -1.4361
   39DOPE   C12 4907   7.063   1.496   6.155 -0.3706 -1.0267  0.2720
   39DOPE  H12A 4908   7.062   1.536   6.259 -2.6396 -0.5378  0.1103
   39DOPE  H12B 4909   7.164   1.455   6.133  0.0476  0.1819 -0.1285
   39DOPE   C11 4910   6.956   1.384   6.144 -0.1664  0.6855 -0.1184
   39DOPE  H11A 4911   6.860   1.414   6.190 -1.0241 -2.2201  0.1927
   39DOPE  H11B 4912   6.994   1.297   6.201 -2.6697 -0.8716 -0.6578
   39DOPE     P 4913   6.885   1.202   5.957 -0.2840 -0.1414 -0.2918
   39DOPE   O13 4914   6.997   1.114   5.976 -0.4484  0.2102  0.5464
   39DOPE   O14 4915   6.820   1.211   5.830  0.2858 -0.2637  0.3999
   39DOPE   O11 4916   6.776   1.148   6.055  0.1825  0.2512 -0.0170
   39DOPE   O12 4917   6.923   1.347   6.008  0.2527  0.3461 -0.2045
   39DOPE    C1 4918   6.658   1.215   6.079 -0.6845 -0.3630 -0.4883
   39DOPE    HA 4919   6.598   1.224   5.986  0.8085  0.1532 -1.4451
   39DOPE    HB 4920   6.682   1.314   6.125  0.7366 -1.1612  0.5518
   39DOPE    C2 4921   6.577   1.151   6.194 -0.2365 -0.0866 -0.3557
   39DOPE    HS 4922   6.485   1.212   6.205 -1.4816 -1.7685 -1.0161
   39DOPE   O21 4923   6.651   1.141   6.315 -0.3837 -0.1909 -0.1453
   39DOPE   C21 4924   6.651   1.248   6.393  0.2694 -0.4051  0.1675
   39DOPE   O22 4925   6.582   1.348   6.375 -0.1880  0.0351 -0.0775
   39DOPE   C22 4926   6.746   1.224   6.508 -0.2336  0.5080  0.2769
   39DOPE   H2R 4927   6.843   1.186   6.471 -0.0030 -0.5889  1.9081
   39DOPE   H2S 4928   6.700   1.136   6.558  1.2070 -1.2443 -1.3250
   39DOPE    C3 4929   6.524   1.008   6.170  0.7378  0.3353 -0.3048
   39DOPE    HX 4930   6.604   0.930   6.169 -0.0403 -0.4811 -0.4711
   39DOPE    HY 4931   6.477   1.015   6.070  0.9943  3.6738 -0.2910
   39DOPE   O31 4932   6.417   0.979   6.263 -0.5266  0.7742 -0.3724
   39DOPE   C31 4933   6.455   0.904   6.363  0.1034 -0.1900  0.1648
   39DOPE   O32 4934   6.563   0.845   6.375  0.0718  0.2276 -0.2513
   39DOPE   C32 4935   6.344   0.891   6.471  0.8418 -0.3880 -0.3561
   39DOPE   H2X 4936   6.365   0.980   6.534 -1.1433  0.1556 -0.3955
   39DOPE   H2Y 4937   6.249   0.906   6.416  0.0371 -2.6089  0.3083
   39DOPE   C23 4938   6.762   1.348   6.587 -0.0731  0.6528 -0.0465
   39DOPE   H3R 4939   6.666   1.388   6.627 -0.9044  0.0952 -1.4193
   39DOPE   H3S 4940   6.822   1.423   6.532  0.6820 -0.1479 -0.3210
   39DOPE   C24 4941   6.838   1.305   6.717  0.2967 -0.6037 -0.4838
   39DOPE   H4R 4942   6.774   1.229   6.766  2.3995 -0.4387  2.8251
   39DOPE   H4S 4943   6.852   1.397   6.778 -0.3069 -1.0694  0.3749
   39DOPE   C25 4944   6.969   1.233   6.679  0.1597  0.4972 -0.1930
   39DOPE   H5R 4945   7.016   1.300   6.603  3.5193 -0.9086  0.4540
   39DOPE   H5S 4946   6.940   1.139   6.626 -1.3821  2.3046 -2.8027
   39DOPE   C26 4947   7.071   1.221   6.790  0.2460  0.2439 -0.3693
   39DOPE   H6R 4948   7.031   1.140   6.855 -0.5167  2.0495  1.5419
   39DOPE   H6S 4949   7.074   1.316   6.849 -0.9086 -0.0021  0.1101
   39DOPE   C27 4950   7.211   1.169   6.745 -0.0186 -0.2818  0.3551
   39DOPE   H7R 4951   7.246   1.232   6.660 -0.9323 -1.6963 -1.1316
   39DOPE   H7S 4952   7.200   1.065   6.708 -1.4459 -0.2739  0.7051
   39DOPE   C28 4953   7.312   1.168   6.862  0.0132 -0.2840 -0.8586
   39DOPE   H8R 4954   7.267   1.105   6.942 -0.2341  0.6658 -0.2296
   39DOPE   H8S 4955   7.314   1.273   6.898 -2.3399 -0.5672  0.3166
   39DOPE   C29 4956   7.444   1.124   6.818 -0.4569  0.0862 -0.1639
   39DOPE   H9R 4957   7.435   1.026   6.769 -1.1756  0.5686 -1.0278
   39DOPE  C210 4958   7.559   1.195   6.815 -0.8042 -0.6420 -0.2855
   39DOPE  H10R 4959   7.647   1.148   6.768 -0.2620  0.7830 -0.7292
   39DOPE  C211 4960   7.572   1.337   6.866 -0.2748 -0.3269  0.5259
   39DOPE  H11R 4961   7.494   1.400   6.819  1.0432 -0.0905 -1.4456
   39DOPE  H11S 4962   7.660   1.389   6.823 -0.9277 -0.7567 -1.4329
   39DOPE  C212 4963   7.563   1.356   7.018  0.0190  0.6973 -1.0305
   39DOPE  H12R 4964   7.646   1.298   7.063 -1.3845  0.5082  1.4575
   39DOPE  H12S 4965   7.468   1.315   7.057  0.1520 -0.2897 -1.7003
   39DOPE  C213 4966   7.572   1.494   7.076  0.0855  0.3014 -0.1622
   39DOPE  H13R 4967   7.677   1.529   7.088  0.3215 -1.1049  2.9449
   39DOPE  H13S 4968   7.540   1.498   7.182 -0.2870  0.6780 -0.2893
   39DOPE  C214 4969   7.500   1.608   6.994 -0.0170 -0.0206  0.7151
   39DOPE  H14R 4970   7.392   1.584   6.999  0.4670 -2.9060 -0.3798
   39DOPE  H14S 4971   7.528   1.616   6.886  0.8906 -0.8801  0.8728
   39DOPE  C215 4972   7.525   1.735   7.069 -0.0476  0.6151 -0.0864
   39DOPE  H15R 4973   7.634   1.755   7.060  0.3897 -2.3522 -3.6220
   39DOPE  H15S 4974   7.505   1.719   7.177 -0.1701  0.0863 -0.1827
   39DOPE  C216 4975   7.452   1.858   7.010 -0.2828  0.1552 -0.3493
   39DOPE  H16R 4976   7.343   1.835   7.013 -0.3705  0.6032  2.7477
   39DOPE  H16S 4977   7.488   1.869   6.905 -0.9433  1.3098 -0.4722
   39DOPE  C217 4978   7.488   1.987   7.089 -0.5443  0.3559 -0.4144
   39DOPE  H17R 4979   7.598   1.999   7.089 -0.2405 -2.0384  0.1870
   39DOPE  H17S 4980   7.466   1.979   7.197  0.8871  2.3059  0.0740
   39DOPE  C218 4981   7.433   2.110   7.025  0.1343  0.2892  0.1600
   39DOPE  H18R 4982   7.324   2.097   7.006 -0.3193  1.4553  1.7242
   39DOPE  H18S 4983   7.478   2.133   6.926 -1.6907 -1.5296 -1.1952
   39DOPE  H18T 4984   7.450   2.199   7.089 -1.0316  0.8505 -0.2890
   39DOPE   C33 4985   6.346   0.766   6.561 -0.0830  0.1558 -1.0809
   39DOPE   H3X 4986   6.453   0.744   6.581  0.0441  1.8910  0.4744
   39DOPE   H3Y 4987   6.290   0.684   6.512 -0.0005 -0.8001  0.3667
   39DOPE   C34 4988   6.274   0.796   6.696  0.4491  0.2670  0.1441
   39DOPE   H4X 4989   6.285   0.715   6.771  1.6849 -1.2463 -1.6063
   39DOPE   H4Y 4990   6.341   0.877   6.733 -0.5258  1.1856 -0.0583
   39DOPE   C35 4991   6.134   0.853   6.683 -0.6141  0.0470  0.4101
   39DOPE   H5X 4992   6.080   0.775   6.626  1.7993  0.1687 -2.2867
   39DOPE   H5Y 4993   6.136   0.950   6.630  0.0075 -0.2542 -0.1406
   39DOPE   C36 4994   6.077   0.882   6.822  0.0041 -0.3118  0.2102
   39DOPE   H6X 4995   6.158   0.950   6.855  0.8811 -1.5962  0.7767
   39DOPE   H6Y 4996   6.079   0.786   6.879  0.7003 -0.0492  0.6337
   39DOPE   C37 4997   5.950   0.963   6.824  0.5775  0.4308 -0.7829
   39DOPE   H7X 4998   5.971   1.068   6.793  1.0325  0.6992  0.3677
   39DOPE   H7Y 4999   5.886   0.927   6.741 -0.1238 -4.8765  1.6371
   39DOPE   C38 5000   5.866   0.948   6.949 -0.8901 -0.0470  0.4961
   39DOPE   H8X 5001   5.851   0.839   6.965 -3.1771 -0.0689 -1.2808
   39DOPE   H8Y 5002   5.767   0.993   6.929 -0.3100  0.2550 -2.0103
   39DOPE   C39 5003   5.925   1.012   7.072  0.5376  0.2525 -0.5903
   39DOPE   H9X 5004   5.896   1.116   7.096  0.5447 -0.0628  0.8475
   39DOPE  C310 5005   6.000   0.944   7.154 -0.7291 -0.7518 -0.1885
   39DOPE  H10X 5006   6.032   1.000   7.243 -1.0358  0.1408 -0.6286
   39DOPE  C311 5007   6.050   0.799   7.154  0.5639 -0.3705  0.2917
   39DOPE  H11X 5008   6.005   0.732   7.077  0.4201 -1.1992  1.0816
   39DOPE  H11Y 5009   6.157   0.799   7.125  0.6191 -1.4517  0.4430
   39DOPE  C312 5010   6.024   0.717   7.283 -0.2681 -0.3144  0.2334
   39DOPE  H12X 5011   6.034   0.612   7.247 -2.7953  0.4317 -3.1851
   39DOPE  H12Y 5012   5.915   0.725   7.305 -0.5664 -1.9188 -0.5243
   39DOPE  C313 5013   6.107   0.762   7.401  0.7022  0.4153 -0.5236
   39DOPE  H13X 5014   6.217   0.752   7.387  1.0977 -1.0331  2.7398
   39DOPE  H13Y 5015   6.075   0.865   7.426  1.0456  0.3170  0.3536
   39DOPE  C314 5016   6.077   0.688   7.533  0.0956 -0.1621  0.0596
   39DOPE  H14X 5017   6.124   0.589   7.515  0.5671  0.1199 -0.2660
   39DOPE  H14Y 5018   5.967   0.675   7.542 -0.1287  1.0874 -0.7096
   39DOPE  C315 5019   6.143   0.752   7.651 -0.3401 -1.1190 -0.1526
   39DOPE  H15X 5020   6.099   0.851   7.674 -0.9598 -1.4967  0.3050
   39DOPE  H15Y 5021   6.251   0.757   7.623 -0.0408  1.3214  1.1695
   39DOPE  C316 5022   6.129   0.674   7.780 -0.2976  0.6640 -0.4659
   39DOPE  H16X 5023   6.196   0.715   7.858  1.9859 -2.1328 -0.7970
   39DOPE  H16Y 5024   6.161   0.568   7.769  3.1046  1.5519 -0.0581
   39DOPE  C317 5025   5.987   0.677   7.840  0.1521 -0.6687  0.3755
   39DOPE  H17X 5026   5.950   0.781   7.856  1.7710  0.3813 -2.0397
   39DOPE  H17Y 5027   5.935   0.625   7.757  1.9062 -0.8276 -0.6743
   39DOPE  C318 5028   5.950   0.597   7.971 -0.0113 -0.7284 -0.2368
   39DOPE  H18X 5029   5.975   0.490   7.953  2.8000 -0.0277 -1.0318
   39DOPE  H18Y 5030   6.021   0.628   8.051 -0.5749 -1.5454  0.5940
   39DOPE  H18Z 5031   5.844   0.619   7.996  0.4790 -0.1066  1.4356
   40DOPE     N 5032   2.739   4.209   6.067  0.0696 -0.0482 -0.2329
   40DOPE   HN1 5033   2.825   4.159   6.037 -1.3681 -1.1091 -2.8880
   40DOPE   HN2 5034   2.707   4.177   6.161  1.1258 -0.6628 -0.0651
   40DOPE   HN3 5035   2.668   4.188   5.994  0.9206 -0.6724 -0.9064
   40DOPE   C12 5036   2.752   4.359   6.072  0.6325 -0.1384  0.2099
   40DOPE  H12A 5037   2.733   4.406   5.973 -0.1247 -0.5024  0.1817
   40DOPE  H12B 5038   2.855   4.387   6.105  0.8591  0.8999 -1.2567
   40DOPE   C11 5039   2.650   4.408   6.170  0.2936 -0.4555  0.1258
   40DOPE  H11A 5040   2.645   4.519   6.172 -3.1694 -0.4947  0.9948
   40DOPE  H11B 5041   2.668   4.379   6.276  1.3048  0.1449  0.1271
   40DOPE     P 5042   2.411   4.444   6.066 -0.3491  0.1925 -0.0652
   40DOPE   O13 5043   2.304   4.358   6.013 -0.2595 -0.0167 -0.2423
   40DOPE   O14 5044   2.473   4.531   5.966 -0.4558  0.5632 -0.2464
   40DOPE   O11 5045   2.349   4.530   6.180  0.3470  0.0479 -0.3902
   40DOPE   O12 5046   2.520   4.355   6.141 -0.1989  0.0077  0.4545
   40DOPE    C1 5047   2.401   4.660   6.212  0.3592  0.2619 -0.0913
   40DOPE    HA 5048   2.345   4.728   6.144 -1.4090 -0.0035  1.0180
   40DOPE    HB 5049   2.511   4.674   6.202  0.3617  0.0253 -0.4009
   40DOPE    C2 5050   2.363   4.691   6.360  0.3413  0.0633 -0.3697
   40DOPE    HS 5051   2.427   4.630   6.427  0.4009  0.7879  0.2452
   40DOPE   O21 5052   2.223   4.644   6.370  0.1645 -0.5779  0.0253
   40DOPE   C21 5053   2.204   4.519   6.423 -0.5853 -0.1683  0.7423
   40DOPE   O22 5054   2.295   4.441   6.457  0.2617  0.0339  0.4992
   40DOPE   C22 5055   2.055   4.492   6.440 -1.2528 -0.0657 -0.4922
   40DOPE   H2R 5056   2.035   4.391   6.398 -1.5148 -0.2188 -0.0091
   40DOPE   H2S 5057   1.992   4.554   6.373  0.1250 -1.5394 -3.3461
   40DOPE    C3 5058   2.380   4.845   6.399 -0.0191 -0.1753  0.2841
   40DOPE    HX 5059   2.329   4.894   6.313  1.1402 -1.0641 -0.9524
   40DOPE    HY 5060   2.489   4.861   6.394 -0.2861  2.7584  1.8605
   40DOPE   O31 5061   2.326   4.890   6.530 -0.6138 -0.2243 -0.2745
   40DOPE   C31 5062   2.333   5.021   6.536  0.5320 -1.0715  0.3888
   40DOPE   O32 5063   2.387   5.092   6.453  0.5696  0.5765  0.7161
   40DOPE   C32 5064   2.246   5.068   6.650 -0.2150  0.2050 -0.7074
   40DOPE   H2X 5065   2.140   5.073   6.617 -0.2788  2.9253 -0.3209
   40DOPE   H2Y 5066   2.268   4.991   6.727  0.7903  0.3728 -0.8051
   40DOPE   C23 5067   2.011   4.486   6.588  0.6971  0.4547 -0.8436
   40DOPE   H3R 5068   1.900   4.476   6.580  0.5680  0.1667  0.8975
   40DOPE   H3S 5069   2.018   4.581   6.645 -1.1560 -0.1175  0.4463
   40DOPE   C24 5070   2.059   4.355   6.663  0.0384 -0.3365  0.3051
   40DOPE   H4R 5071   2.167   4.377   6.680 -0.6110  0.6246  4.3137
   40DOPE   H4S 5072   2.054   4.266   6.598  1.8269  1.3947 -2.4244
   40DOPE   C25 5073   2.009   4.329   6.804 -0.2120  0.1372 -0.1771
   40DOPE   H5R 5074   1.901   4.307   6.810 -0.1338  0.1153  3.0487
   40DOPE   H5S 5075   2.032   4.419   6.866 -0.1781  1.0440 -1.4716
   40DOPE   C26 5076   2.082   4.213   6.871 -1.1649 -0.2094 -0.9213
   40DOPE   H6R 5077   2.190   4.220   6.845 -1.2710  0.3235 -1.2210
   40DOPE   H6S 5078   2.031   4.122   6.833 -0.6200 -1.6066  1.4608
   40DOPE   C27 5079   2.051   4.200   7.024  0.3195 -0.0314  0.6353
   40DOPE   H7R 5080   1.941   4.192   7.041  0.0445  1.7424 -0.1185
   40DOPE   H7S 5081   2.077   4.297   7.071 -1.2280  0.4714  0.5275
   40DOPE   C28 5082   2.120   4.077   7.092 -0.3326 -0.5114 -0.6633
   40DOPE   H8R 5083   2.052   3.996   7.059 -1.5290  0.1907 -0.0056
   40DOPE   H8S 5084   2.105   4.079   7.202 -0.0574 -0.9386 -0.6169
   40DOPE   C29 5085   2.270   4.061   7.058  0.0737 -0.2373 -0.5760
   40DOPE   H9R 5086   2.294   3.984   6.983 -1.2289 -1.2696  0.0384
   40DOPE  C210 5087   2.370   4.125   7.114 -0.1600  0.0784  0.0495
   40DOPE  H10R 5088   2.465   4.115   7.060  1.0055  2.2794  1.5275
   40DOPE  C211 5089   2.369   4.239   7.217  0.2026  0.3226 -0.0580
   40DOPE  H11R 5090   2.426   4.202   7.305  0.6585 -2.7367 -1.5258
   40DOPE  H11S 5091   2.265   4.259   7.251  0.6438  1.1881  0.8407
   40DOPE  C212 5092   2.437   4.372   7.179  0.2018  0.0793 -0.2408
   40DOPE  H12R 5093   2.392   4.403   7.083 -0.9333  1.2670  0.6297
   40DOPE  H12S 5094   2.541   4.348   7.150 -1.1402 -1.9647 -4.0672
   40DOPE  C213 5095   2.424   4.492   7.284 -0.1611 -0.2248  0.0316
   40DOPE  H13R 5096   2.322   4.475   7.323 -0.1603 -1.5410 -0.4638
   40DOPE  H13S 5097   2.414   4.584   7.224 -2.0415 -1.4771 -1.7125
   40DOPE  C214 5098   2.524   4.520   7.394  0.4657  0.7006  0.8399
   40DOPE  H14R 5099   2.621   4.537   7.341  1.2964  0.8166  2.3284
   40DOPE  H14S 5100   2.540   4.416   7.429  1.1295  0.6443  0.4017
   40DOPE  C215 5101   2.487   4.626   7.500 -0.1800 -0.9972  0.6584
   40DOPE  H15R 5102   2.480   4.716   7.436  0.5678 -0.8644  0.7603
   40DOPE  H15S 5103   2.580   4.629   7.560  0.6497  0.8916 -0.6300
   40DOPE  C216 5104   2.356   4.607   7.576 -0.1376  0.0201 -0.0026
   40DOPE  H16R 5105   2.365   4.521   7.645 -0.7019  0.1835  0.2848
   40DOPE  H16S 5106   2.275   4.585   7.504 -1.9291 -1.5883  2.3457
   40DOPE  C217 5107   2.322   4.734   7.656  0.2570 -0.0787  0.3691
   40DOPE  H17R 5108   2.325   4.813   7.578  1.9294  1.0974  1.5532
   40DOPE  H17S 5109   2.395   4.760   7.737 -0.8422  0.6546  1.1530
   40DOPE  C218 5110   2.179   4.746   7.718  0.1354  0.2129 -0.1706
   40DOPE  H18R 5111   2.156   4.654   7.775 -0.1596  0.2885 -0.1665
   40DOPE  H18S 5112   2.100   4.748   7.641 -0.3504  2.6849  0.3196
   40DOPE  H18T 5113   2.163   4.835   7.783  0.4508 -0.4213  0.8080
   40DOPE   C33 5114   2.275   5.213   6.699  0.0260  0.0618  1.1168
   40DOPE   H3X 5115   2.193   5.241   6.768  0.1768  0.5008  1.1206
   40DOPE   H3Y 5116   2.272   5.278   6.609 -0.8858  1.4279  2.1014
   40DOPE   C34 5117   2.412   5.225   6.771 -0.2186 -0.3119 -0.2169
   40DOPE   H4X 5118   2.418   5.148   6.850  0.3004  0.6188  0.6846
   40DOPE   H4Y 5119   2.486   5.208   6.691  0.8442  3.0572 -0.1306
   40DOPE   C35 5120   2.418   5.370   6.833  0.0361  0.2964 -0.1435
   40DOPE   H5X 5121   2.341   5.365   6.914 -1.0075  1.3334 -1.0435
   40DOPE   H5Y 5122   2.386   5.436   6.750 -0.2231  0.6555  0.2426
   40DOPE   C36 5123   2.547   5.403   6.898 -0.3773  0.1716  0.6166
   40DOPE   H6X 5124   2.618   5.372   6.819  0.2503 -1.8597  1.9296
   40DOPE   H6Y 5125   2.567   5.336   6.983  0.7960 -0.2616  0.0191
   40DOPE   C37 5126   2.567   5.545   6.943  0.2708  0.6407 -0.0628
   40DOPE   H7X 5127   2.515   5.606   6.866 -3.1349 -1.6295  0.2200
   40DOPE   H7Y 5128   2.505   5.558   7.034  1.2411 -0.8319  0.8519
   40DOPE   C38 5129   2.706   5.591   6.965  0.0414  0.1686  0.1424
   40DOPE   H8X 5130   2.761   5.590   6.868 -0.7737 -0.1455 -0.3271
   40DOPE   H8Y 5131   2.760   5.533   7.043  0.2126  1.2677  0.8615
   40DOPE   C39 5132   2.698   5.734   7.011  0.5354 -0.6166  0.2591
   40DOPE   H9X 5133   2.682   5.791   6.919 -0.6995 -2.3892 -0.6850
   40DOPE  C310 5134   2.717   5.791   7.126  0.6810 -0.1641 -0.2377
   40DOPE  H10X 5135   2.701   5.900   7.129  1.1666 -0.1105  1.4687
   40DOPE  C311 5136   2.744   5.724   7.260  0.0178 -0.4717  0.4722
   40DOPE  H11X 5137   2.711   5.618   7.260  0.1975 -0.5455 -0.8203
   40DOPE  H11Y 5138   2.855   5.724   7.272  0.0119  0.2233  0.5538
   40DOPE  C312 5139   2.675   5.799   7.379 -0.0599  0.1047  1.1430
   40DOPE  H12X 5140   2.567   5.815   7.356  0.4838  1.5497 -0.6791
   40DOPE  H12Y 5141   2.713   5.902   7.398 -0.7992  0.8888 -1.2483
   40DOPE  C313 5142   2.692   5.725   7.509 -0.0937 -0.5146  0.0876
   40DOPE  H13X 5143   2.645   5.624   7.501  1.2624 -1.1036 -0.8552
   40DOPE  H13Y 5144   2.797   5.693   7.521 -0.1084 -0.4684  0.3469
   40DOPE  C314 5145   2.636   5.806   7.631  0.5866 -0.1785  0.4570
   40DOPE  H14X 5146   2.525   5.806   7.626  0.6091 -0.3254 -0.1281
   40DOPE  H14Y 5147   2.673   5.910   7.632  0.8640 -0.2475  2.4248
   40DOPE  C315 5148   2.653   5.746   7.768 -0.0792  0.3737 -0.6295
   40DOPE  H15X 5149   2.606   5.645   7.775 -0.3740  0.5666  0.3122
   40DOPE  H15Y 5150   2.618   5.808   7.853  2.9908 -1.4237  2.1910
   40DOPE  C316 5151   2.796   5.724   7.818 -0.5498  0.3786 -0.6660
   40DOPE  H16X 5152   2.852   5.657   7.748  0.8723 -1.2410  1.8591
   40DOPE  H16Y 5153   2.793   5.668   7.913  0.2386  0.7751 -0.3979
   40DOPE  C317 5154   2.874   5.852   7.847 -0.3966 -0.2046  0.6645
   40DOPE  H17X 5155   2.884   5.906   7.750 -2.7760 -0.4308  0.2309
   40DOPE  H17Y 5156   2.823   5.928   7.911 -0.3354 -0.4026  0.9493
   40DOPE  C318 5157   3.015   5.814   7.883 -0.6256  0.0971 -0.8113
   40DOPE  H18X 5158   3.015   5.765   7.983  0.5560  1.0546 -0.3189
   40DOPE  H18Y 5159   3.083   5.757   7.816 -0.9943  1.0200 -2.0054
   40DOPE  H18Z 5160   3.076   5.906   7.900  0.3451  0.0744 -3.5714
   41DOPE     N 5161   7.588   2.027   6.180  0.0848 -0.3263 -1.0108
   41DOPE   HN1 5162   7.527   2.111   6.180  0.4506 -0.0263  0.4141
   41DOPE   HN2 5163   7.686   2.062   6.182  0.0494 -0.1275  1.7978
   41DOPE   HN3 5164   7.569   1.962   6.101  0.2893 -1.7593  0.0628
   41DOPE   C12 5165   7.556   1.962   6.311  0.0088 -0.5562 -0.1982
   41DOPE  H12A 5166   7.567   2.048   6.380 -0.9723  0.2204 -0.9694
   41DOPE  H12B 5167   7.627   1.881   6.337  0.6728  0.7405  2.2321
   41DOPE   C11 5168   7.411   1.910   6.323  0.4270 -0.2284  0.1043
   41DOPE  H11A 5169   7.393   1.881   6.429 -1.8377  3.1017  0.7601
   41DOPE  H11B 5170   7.391   1.821   6.260 -2.2948  0.1730  0.2834
   41DOPE     P 5171   7.220   2.089   6.374  0.1093  0.1279  0.1311
   41DOPE   O13 5172   7.090   2.021   6.374 -0.1506 -0.5013 -0.2054
   41DOPE   O14 5173   7.218   2.226   6.313 -0.2097  0.0207 -0.5926
   41DOPE   O11 5174   7.290   2.106   6.521 -0.1816 -0.7257  0.1564
   41DOPE   O12 5175   7.317   2.005   6.284 -0.0861  0.1986  0.4873
   41DOPE    C1 5176   7.226   2.055   6.640 -0.8738  0.4845 -0.6425
   41DOPE    HA 5177   7.300   2.043   6.722 -1.9449 -0.5744  0.1905
   41DOPE    HB 5178   7.175   1.959   6.618 -0.6468  0.2313 -0.0662
   41DOPE    C2 5179   7.116   2.159   6.684  0.1474  0.5700 -0.5591
   41DOPE    HS 5180   7.057   2.196   6.597 -1.3132 -0.6740 -0.1371
   41DOPE   O21 5181   7.181   2.263   6.758  0.0157 -0.4296  0.3357
   41DOPE   C21 5182   7.133   2.385   6.747 -0.6385  0.4120 -0.3447
   41DOPE   O22 5183   7.024   2.411   6.700 -0.5141 -0.4112 -0.1306
   41DOPE   C22 5184   7.229   2.485   6.812  0.0120  0.3439 -0.3967
   41DOPE   H2R 5185   7.224   2.580   6.755  1.0647  0.3375 -0.5159
   41DOPE   H2S 5186   7.333   2.447   6.807  0.8642  2.2578  1.4591
   41DOPE    C3 5187   7.022   2.089   6.787 -0.0790 -0.0432  0.9672
   41DOPE    HX 5188   6.956   2.169   6.826  1.4878  1.2594  1.0375
   41DOPE    HY 5189   7.079   2.044   6.871 -0.5816  0.2357  1.4653
   41DOPE   O31 5190   6.951   1.974   6.730 -0.5481 -0.1059 -0.3487
   41DOPE   C31 5191   6.848   2.013   6.664  0.1700  0.3825  0.3904
   41DOPE   O32 5192   6.812   2.129   6.644  0.4430 -0.0603 -0.4404
   41DOPE   C32 5193   6.774   1.891   6.608  0.3452 -0.2764  0.1529
   41DOPE   H2X 5194   6.742   1.903   6.502 -0.0913 -1.8885  0.0753
   41DOPE   H2Y 5195   6.833   1.799   6.623  0.7952 -0.3198 -1.6388
   41DOPE   C23 5196   7.190   2.538   6.950 -0.0803 -0.8529 -0.0653
   41DOPE   H3R 5197   7.091   2.586   6.933 -0.6155 -1.3851  1.3720
   41DOPE   H3S 5198   7.261   2.621   6.969 -1.6336  0.4890  0.0902
   41DOPE   C24 5199   7.192   2.431   7.066 -0.3004 -0.4207  0.4141
   41DOPE   H4R 5200   7.301   2.412   7.079  0.1621  1.7372  0.0634
   41DOPE   H4S 5201   7.158   2.339   7.014 -1.2096  0.7704 -1.2087
   41DOPE   C25 5202   7.110   2.466   7.192 -0.0806  0.7867 -0.2582
   41DOPE   H5R 5203   7.004   2.436   7.185 -0.3756  1.1363  2.0000
   41DOPE   H5S 5204   7.118   2.567   7.237 -0.0027  0.1469  1.2223
   41DOPE   C26 5205   7.160   2.379   7.299  0.3184  0.4927  0.6805
   41DOPE   H6R 5206   7.270   2.376   7.318  0.5745  0.8012 -0.6566
   41DOPE   H6S 5207   7.124   2.276   7.281  0.5346  0.5177  0.0910
   41DOPE   C27 5208   7.083   2.405   7.427  0.2763 -0.2755 -0.2222
   41DOPE   H7R 5209   6.977   2.424   7.400 -0.3532 -0.2217  2.0638
   41DOPE   H7S 5210   7.121   2.491   7.486  0.1014 -1.4680  1.7324
   41DOPE   C28 5211   7.089   2.285   7.526  0.1961 -0.0949  0.3452
   41DOPE   H8R 5212   7.079   2.190   7.469 -1.0741 -1.5835  2.8687
   41DOPE   H8S 5213   7.005   2.277   7.598 -0.8490 -2.2093 -1.0194
   41DOPE   C29 5214   7.232   2.286   7.592  0.3410  0.7303  0.3860
   41DOPE   H9R 5215   7.259   2.380   7.643  2.8389  0.3784 -0.1633
   41DOPE  C210 5216   7.332   2.192   7.578 -0.3270  0.2867  0.2391
   41DOPE  H10R 5217   7.428   2.199   7.631  0.3633  0.5928 -1.0250
   41DOPE  C211 5218   7.324   2.070   7.485 -0.0120 -0.0417  0.0288
   41DOPE  H11R 5219   7.393   2.096   7.402  0.0008  2.7796  0.8306
   41DOPE  H11S 5220   7.224   2.063   7.437  0.4003  1.4534 -1.1175
   41DOPE  C212 5221   7.356   1.936   7.539  0.1934 -0.0573  0.3334
   41DOPE  H12R 5222   7.295   1.921   7.631 -1.7637 -0.5238 -0.9680
   41DOPE  H12S 5223   7.463   1.916   7.559  0.1967 -1.7097 -1.1122
   41DOPE  C213 5224   7.302   1.816   7.457 -0.4831  0.8852  0.6138
   41DOPE  H13R 5225   7.349   1.815   7.356 -1.1972 -0.1713  0.2767
   41DOPE  H13S 5226   7.191   1.822   7.446 -0.3735  0.5962 -0.9985
   41DOPE  C214 5227   7.313   1.675   7.517  0.0009  0.2928  0.1735
   41DOPE  H14R 5228   7.282   1.610   7.433  2.4832 -1.6055  0.6251
   41DOPE  H14S 5229   7.258   1.659   7.613 -0.6708 -2.1487 -0.5443
   41DOPE  C215 5230   7.459   1.635   7.534  0.3042  0.5342 -0.5406
   41DOPE  H15R 5231   7.510   1.692   7.615  2.3140 -2.0290  0.0930
   41DOPE  H15S 5232   7.524   1.646   7.445  0.1412 -1.8946 -1.0128
   41DOPE  C216 5233   7.468   1.489   7.587  0.3414  0.4396 -0.7190
   41DOPE  H16R 5234   7.376   1.470   7.647  0.0961 -0.7603 -1.4534
   41DOPE  H16S 5235   7.552   1.471   7.658 -0.2871 -0.8072 -0.2563
   41DOPE  C217 5236   7.491   1.385   7.474  0.3029 -0.3480  0.2124
   41DOPE  H17R 5237   7.569   1.431   7.409 -0.6926 -1.9614 -2.2359
   41DOPE  H17S 5238   7.399   1.396   7.414  1.2867 -1.0528 -1.4929
   41DOPE  C218 5239   7.521   1.242   7.515  0.0261 -0.4738 -0.9163
   41DOPE  H18R 5240   7.566   1.187   7.430  0.2008 -0.8713 -0.5677
   41DOPE  H18S 5241   7.429   1.190   7.550  0.0844  0.8536  1.4341
   41DOPE  H18T 5242   7.589   1.240   7.603 -0.8983  1.0054 -0.1239
   41DOPE   C33 5243   6.641   1.871   6.688  0.3920  0.9964  0.4128
   41DOPE   H3X 5244   6.599   1.778   6.643  1.4507 -0.2643  1.9351
   41DOPE   H3Y 5245   6.574   1.958   6.671  0.9414  1.6892  1.6696
   41DOPE   C34 5246   6.667   1.845   6.834 -0.0294 -0.1858 -0.5773
   41DOPE   H4X 5247   6.725   1.752   6.852  0.8577  0.1871 -1.4153
   41DOPE   H4Y 5248   6.718   1.935   6.876 -0.5965  0.2669 -0.8507
   41DOPE   C35 5249   6.537   1.828   6.908  0.2340 -0.4390  0.5747
   41DOPE   H5X 5250   6.459   1.755   6.876 -0.5208  0.8817 -0.7061
   41DOPE   H5Y 5251   6.481   1.924   6.904 -2.8155 -2.1058 -0.4943
   41DOPE   C36 5252   6.559   1.795   7.049  0.1222  0.1346 -0.5996
   41DOPE   H6X 5253   6.600   1.888   7.094 -2.8901  1.2584  0.0914
   41DOPE   H6Y 5254   6.639   1.719   7.062  0.9394  1.2952  1.7099
   41DOPE   C37 5255   6.427   1.755   7.119 -0.4145  0.4928 -0.2712
   41DOPE   H7X 5256   6.346   1.832   7.118 -2.7541 -1.6941  2.4031
   41DOPE   H7Y 5257   6.385   1.662   7.075  2.4339 -1.3892  0.7239
   41DOPE   C38 5258   6.456   1.717   7.271  0.7187  0.2206  0.6279
   41DOPE   H8X 5259   6.510   1.794   7.331  0.9596  0.5917 -0.0505
   41DOPE   H8Y 5260   6.519   1.626   7.270 -0.1027 -0.3764  1.4288
   41DOPE   C39 5261   6.321   1.678   7.330 -0.3935  0.1350  0.7109
   41DOPE   H9X 5262   6.250   1.635   7.257  0.9140 -0.8271 -0.0384
   41DOPE  C310 5263   6.289   1.695   7.459  0.2559  0.7965 -0.0146
   41DOPE  H10X 5264   6.189   1.653   7.474  0.8827 -1.2658 -1.1639
   41DOPE  C311 5265   6.375   1.736   7.578 -0.4196 -0.5110  0.6230
   41DOPE  H11X 5266   6.382   1.641   7.635 -0.5965 -1.4767 -0.8867
   41DOPE  H11Y 5267   6.475   1.765   7.540  0.4452  0.2644  3.3131
   41DOPE  C312 5268   6.311   1.844   7.670  0.1095  0.5649  0.5439
   41DOPE  H12X 5269   6.227   1.802   7.730  0.6356 -0.1374  0.8001
   41DOPE  H12Y 5270   6.276   1.919   7.596 -1.0139 -0.1448  0.3427
   41DOPE  C313 5271   6.401   1.904   7.775 -0.6943 -0.4636 -0.3862
   41DOPE  H13X 5272   6.442   1.823   7.840 -0.0679  0.2917  0.1781
   41DOPE  H13Y 5273   6.493   1.950   7.734 -1.5127  1.8705  0.2433
   41DOPE  C314 5274   6.341   2.002   7.869 -0.0429 -0.6241  0.0739
   41DOPE  H14X 5275   6.274   1.944   7.936  2.3612 -1.6453  1.7455
   41DOPE  H14Y 5276   6.269   2.069   7.816  1.2301 -0.7807 -1.9761
   41DOPE  C315 5277   6.443   2.098   7.935  0.0287 -0.3832  0.2670
   41DOPE  H15X 5278   6.532   2.037   7.961 -0.6456 -2.0840 -1.2150
   41DOPE  H15Y 5279   6.398   2.154   8.020 -0.0640  0.6220 -0.4234
   41DOPE  C316 5280   6.490   2.203   7.838  0.1534  0.1355  0.0325
   41DOPE  H16X 5281   6.415   2.261   7.781  0.0064  0.1675  0.2554
   41DOPE  H16Y 5282   6.547   2.150   7.759 -0.3416  0.0145 -0.2444
   41DOPE  C317 5283   6.582   2.308   7.902  0.1849  0.7006 -0.4309
   41DOPE  H17X 5284   6.655   2.260   7.971  1.7101  2.1958 -0.9384
   41DOPE  H17Y 5285   6.659   2.344   7.830  1.4013  1.3141  1.1055
   41DOPE  C318 5286   6.513   2.432   7.967  0.1319 -0.2844  0.2402
   41DOPE  H18X 5287   6.491   2.507   7.889 -0.1755 -0.9120 -0.2867
   41DOPE  H18Y 5288   6.417   2.406   8.017 -0.3143 -2.9683 -1.7670
   41DOPE  H18Z 5289   6.580   2.493   8.030  0.1863 -1.2396  1.1461
   42DOPE     N 5290   0.346   0.715   5.841  0.1673  0.0094 -0.1357
   42DOPE   HN1 5291   0.278   0.697   5.764  0.2349 -0.7845 -0.0178
   42DOPE   HN2 5292   0.295   0.754   5.922  1.8203 -1.5857  1.7652
   42DOPE   HN3 5293   0.417   0.784   5.807 -1.3775  1.2581 -0.9808
   42DOPE   C12 5294   0.423   0.593   5.880 -0.0929  0.4328  0.3284
   42DOPE  H12A 5295   0.485   0.567   5.791 -0.6324  0.8374 -0.1756
   42DOPE  H12B 5296   0.361   0.503   5.899  0.7436 -0.4473 -0.9591
   42DOPE   C11 5297   0.516   0.620   5.999 -0.4512 -0.0148  0.0899
   42DOPE  H11A 5298   0.599   0.675   5.949  0.5379 -1.3236  0.2373
   42DOPE  H11B 5299   0.559   0.528   6.043 -0.3691 -1.0523 -2.0404
   42DOPE     P 5300   0.373   0.636   6.206  0.0291 -0.4511 -0.6794
   42DOPE   O13 5301   0.270   0.550   6.146 -0.1462 -0.4500 -0.5358
   42DOPE   O14 5302   0.315   0.745   6.290  0.3009  0.2024 -0.0150
   42DOPE   O11 5303   0.475   0.556   6.287  0.1589  0.0480  0.3834
   42DOPE   O12 5304   0.458   0.705   6.093 -0.6757  0.4600 -0.3179
   42DOPE    C1 5305   0.553   0.608   6.394  0.1071 -0.7144 -0.2628
   42DOPE    HA 5306   0.573   0.716   6.379 -1.4492 -0.1319  1.4693
   42DOPE    HB 5307   0.644   0.544   6.393  0.3263 -0.4066 -0.4629
   42DOPE    C2 5308   0.489   0.597   6.530  0.2579  0.2348 -0.4142
   42DOPE    HS 5309   0.399   0.660   6.543  0.1400 -0.2076  1.0809
   42DOPE   O21 5310   0.589   0.630   6.629  0.1687  0.2581  1.2975
   42DOPE   C21 5311   0.583   0.756   6.675 -0.3966 -0.1529  0.0483
   42DOPE   O22 5312   0.502   0.843   6.639 -0.2822 -0.2513  0.3153
   42DOPE   C22 5313   0.713   0.775   6.745 -0.5827 -0.4623 -0.5021
   42DOPE   H2R 5314   0.785   0.827   6.678 -0.9631 -0.0174 -0.5690
   42DOPE   H2S 5315   0.762   0.680   6.776 -0.0675 -0.4728 -1.3040
   42DOPE    C3 5316   0.438   0.453   6.562 -0.6827 -0.1224 -0.8228
   42DOPE    HX 5317   0.530   0.391   6.559 -0.7402 -0.1722 -2.0707
   42DOPE    HY 5318   0.376   0.415   6.478 -0.4684  1.9165 -1.9686
   42DOPE   O31 5319   0.384   0.440   6.701 -0.4043 -0.1468  0.5936
   42DOPE   C31 5320   0.252   0.455   6.723 -0.6263  0.5884  0.5997
   42DOPE   O32 5321   0.168   0.457   6.637 -0.1850 -0.8758  0.8732
   42DOPE   C32 5322   0.236   0.481   6.868 -0.3625  0.5945  0.1071
   42DOPE   H2X 5323   0.328   0.451   6.923 -0.5301 -0.5074 -0.1851
   42DOPE   H2Y 5324   0.220   0.591   6.870 -2.6415  0.4169 -2.3904
   42DOPE   C23 5325   0.685   0.874   6.867  0.2882 -0.3607 -0.4102
   42DOPE   H3R 5326   0.616   0.825   6.939  1.1928 -0.4369  0.4371
   42DOPE   H3S 5327   0.626   0.963   6.836 -1.2520 -0.7447  1.2854
   42DOPE   C24 5328   0.820   0.918   6.937  0.2478  0.1378  0.0275
   42DOPE   H4R 5329   0.866   0.975   6.854 -1.4568 -0.4443 -1.3677
   42DOPE   H4S 5330   0.879   0.828   6.965  2.3103  1.2661 -0.5113
   42DOPE   C25 5331   0.814   1.001   7.070  0.1260 -0.2972  0.1241
   42DOPE   H5R 5332   0.749   0.946   7.143  1.3341  0.0696  1.5241
   42DOPE   H5S 5333   0.763   1.098   7.051  0.3576 -0.5251 -1.8909
   42DOPE   C26 5334   0.948   1.030   7.137  0.1722 -0.0710 -0.0863
   42DOPE   H6R 5335   1.015   1.072   7.059 -0.1688 -1.1549 -0.9964
   42DOPE   H6S 5336   0.991   0.932   7.166  0.2786 -0.4972 -1.5986
   42DOPE   C27 5337   0.938   1.143   7.248  0.0058  0.1508  1.2935
   42DOPE   H7R 5338   0.860   1.127   7.325  1.0361  0.8903  2.5162
   42DOPE   H7S 5339   0.905   1.228   7.185  2.1535 -0.7709 -1.3237
   42DOPE   C28 5340   1.063   1.168   7.319  0.0888 -0.2188  0.6217
   42DOPE   H8R 5341   1.096   1.072   7.366 -1.2076 -1.4616 -0.8815
   42DOPE   H8S 5342   1.055   1.246   7.398 -2.1156  0.0803  0.1715
   42DOPE   C29 5343   1.176   1.213   7.230 -0.0039  0.1481 -0.5086
   42DOPE   H9R 5344   1.150   1.295   7.162  1.1674  0.1907 -0.9133
   42DOPE  C210 5345   1.295   1.158   7.220  0.2322  0.1937 -0.3330
   42DOPE  H10R 5346   1.359   1.196   7.139  0.4158 -2.5632 -1.5997
   42DOPE  C211 5347   1.356   1.044   7.300 -0.4851  0.5653  0.8691
   42DOPE  H11R 5348   1.369   0.949   7.244  1.1434  1.1478  0.1973
   42DOPE  H11S 5349   1.288   1.027   7.386  0.1982 -0.4585  1.2232
   42DOPE  C212 5350   1.488   1.078   7.378 -0.1937  0.3252  0.3467
   42DOPE  H12R 5351   1.476   1.178   7.426  0.6939  1.1579 -1.0950
   42DOPE  H12S 5352   1.577   1.073   7.311  1.0243 -1.0102  1.9949
   42DOPE  C213 5353   1.515   0.984   7.493 -0.2075  0.6747  0.2156
   42DOPE  H13R 5354   1.522   0.887   7.440  0.1914  0.8785 -0.1104
   42DOPE  H13S 5355   1.439   0.969   7.572  1.7263 -1.5533  1.7992
   42DOPE  C214 5356   1.653   1.014   7.561 -0.2213 -0.1672  0.3759
   42DOPE  H14R 5357   1.663   1.115   7.606  2.5983 -0.7852  1.3032
   42DOPE  H14S 5358   1.725   1.004   7.477  0.3582  1.1178  0.6961
   42DOPE  C215 5359   1.690   0.912   7.674 -0.2478  0.3055 -0.3803
   42DOPE  H15R 5360   1.687   0.810   7.630 -0.4317  0.2302 -0.1932
   42DOPE  H15S 5361   1.609   0.917   7.750 -0.6536  1.1364 -0.8407
   42DOPE  C216 5362   1.830   0.924   7.726 -0.6061  0.6219 -0.0226
   42DOPE  H16R 5363   1.846   1.033   7.741 -0.3969  0.7154 -0.8797
   42DOPE  H16S 5364   1.899   0.902   7.643 -0.2925 -0.3161  0.4779
   42DOPE  C217 5365   1.863   0.831   7.846  0.2076  0.7367  0.6279
   42DOPE  H17R 5366   1.820   0.731   7.826 -0.7238  1.5693 -1.9215
   42DOPE  H17S 5367   1.819   0.867   7.942 -0.7359 -0.1768  0.5497
   42DOPE  C218 5368   2.016   0.823   7.865 -0.1060  0.5340 -0.0748
   42DOPE  H18R 5369   2.079   0.914   7.878 -0.5473  0.6376  1.6428
   42DOPE  H18S 5370   2.066   0.766   7.784 -0.6109 -0.7414  0.4829
   42DOPE  H18T 5371   2.040   0.764   7.957 -1.3654  0.9068  0.5092
   42DOPE   C33 5372   0.111   0.406   6.918  0.0436  0.5219 -0.4300
   42DOPE   H3X 5373   0.134   0.301   6.946  3.5238  1.2340 -0.1656
   42DOPE   H3Y 5374   0.034   0.415   6.839 -0.7458  1.3342  0.3963
   42DOPE   C34 5375   0.050   0.480   7.037 -0.4722  0.5106 -0.2556
   42DOPE   H4X 5376   0.042   0.589   7.018  0.5452  0.3669 -1.6524
   42DOPE   H4Y 5377  -0.046   0.433   7.067  0.1285  0.5643  1.9825
   42DOPE   C35 5378   0.132   0.455   7.166 -0.0527  0.4319  0.6246
   42DOPE   H5X 5379   0.235   0.496   7.152 -0.0211  0.5164  1.0773
   42DOPE   H5Y 5380   0.148   0.346   7.182 -0.2634  0.1289 -1.0781
   42DOPE   C36 5381   0.074   0.515   7.289 -0.2641 -0.1873 -0.8987
   42DOPE   H6X 5382  -0.026   0.490   7.330 -1.3428  4.3357 -0.1726
   42DOPE   H6Y 5383   0.054   0.621   7.262  1.4798  0.4922  0.2760
   42DOPE   C37 5384   0.173   0.520   7.405 -0.0260  0.0344 -0.6650
   42DOPE   H7X 5385   0.190   0.413   7.432 -2.1325 -0.3868 -0.8152
   42DOPE   H7Y 5386   0.271   0.559   7.372 -0.8893  1.8044 -1.2267
   42DOPE   C38 5387   0.116   0.584   7.528  0.3683 -0.2909  0.0452
   42DOPE   H8X 5388   0.195   0.585   7.605  0.7198  1.7757 -0.2848
   42DOPE   H8Y 5389   0.032   0.519   7.559 -0.2884  0.3942 -0.2575
   42DOPE   C39 5390   0.075   0.732   7.514  0.5322  0.3376  0.3980
   42DOPE   H9X 5391   0.154   0.788   7.462  3.0645 -1.1514  2.3599
   42DOPE  C310 5392  -0.051   0.782   7.539  0.1026 -0.6779 -0.3517
   42DOPE  H10X 5393  -0.067   0.890   7.530  4.0470  0.0071 -1.2659
   42DOPE  C311 5394  -0.166   0.720   7.618 -0.4064 -0.5398  0.5707
   42DOPE  H11X 5395  -0.228   0.663   7.546 -0.2608 -0.4305  0.3590
   42DOPE  H11Y 5396  -0.130   0.646   7.693  1.0498 -1.0266 -0.5636
   42DOPE  C312 5397  -0.230   0.834   7.701 -0.2875 -0.5282 -0.4696
   42DOPE  H12X 5398  -0.276   0.915   7.640  0.8301  1.9106  1.7174
   42DOPE  H12Y 5399  -0.140   0.878   7.749  0.3304 -0.4915 -1.6206
   42DOPE  C313 5400  -0.335   0.793   7.800  0.7890  0.1339 -0.2311
   42DOPE  H13X 5401  -0.430   0.764   7.749  0.9703  0.0530 -0.5207
   42DOPE  H13Y 5402  -0.297   0.696   7.839 -1.5581 -1.2429 -1.1070
   42DOPE  C314 5403  -0.363   0.899   7.907  0.2567  0.3711 -0.1520
   42DOPE  H14X 5404  -0.265   0.939   7.941  0.1766  1.2947 -0.9621
   42DOPE  H14Y 5405  -0.420   0.866   7.996 -1.6906 -0.7051 -1.7074
   42DOPE  C315 5406  -0.427   1.034   7.859 -0.0991  0.1897  0.0335
   42DOPE  H15X 5407  -0.514   1.000   7.798  1.3073 -0.9642 -1.4253
   42DOPE  H15Y 5408  -0.359   1.084   7.786 -1.1395  0.1796 -0.9743
   42DOPE  C316 5409  -0.458   1.145   7.962 -0.0991  0.4281  0.0313
   42DOPE  H16X 5410  -0.356   1.173   7.995 -0.0535  1.9544 -1.2745
   42DOPE  H16Y 5411  -0.514   1.104   8.049  0.4205 -0.5823 -0.0908
   42DOPE  C317 5412  -0.523   1.261   7.887 -0.3081 -0.5764  0.3998
   42DOPE  H17X 5413  -0.556   1.341   7.957  0.9109  0.5114 -0.2401
   42DOPE  H17Y 5414  -0.442   1.299   7.822 -1.4285  2.3178  0.5651
   42DOPE  C318 5415  -0.640   1.220   7.797  0.3108 -0.5032 -1.1063
   42DOPE  H18X 5416  -0.701   1.310   7.773 -0.1085 -0.3574  0.3744
   42DOPE  H18Y 5417  -0.591   1.183   7.705  1.7847 -1.5067  0.0457
   42DOPE  H18Z 5418  -0.705   1.146   7.850  1.0624 -0.1036  0.4400
   43DOPE     N 5419   5.959   1.439   6.043  0.4008  0.0819 -0.2147
   43DOPE   HN1 5420   5.902   1.524   6.064 -0.1398  0.0018 -1.2941
   43DOPE   HN2 5421   6.014   1.427   6.131 -0.0273 -0.6075 -0.0347
   43DOPE   HN3 5422   6.019   1.470   5.964 -0.2056  1.6493 -0.0852
   43DOPE   C12 5423   5.871   1.330   5.995  0.0195 -0.7615 -0.8783
   43DOPE  H12A 5424   5.921   1.231   6.000 -0.9623 -1.3155 -1.6440
   43DOPE  H12B 5425   5.838   1.359   5.893  1.2538 -0.4177 -1.1905
   43DOPE   C11 5426   5.744   1.326   6.098 -0.2013 -0.5685  0.7370
   43DOPE  H11A 5427   5.781   1.302   6.200  1.3181  0.2038  0.3894
   43DOPE  H11B 5428   5.669   1.250   6.066 -2.2555  0.6961  2.2492
   43DOPE     P 5429   5.541   1.481   6.177  0.0031  0.2865 -0.2609
   43DOPE   O13 5430   5.456   1.362   6.175 -0.4900  0.6713  0.1570
   43DOPE   O14 5431   5.483   1.608   6.127 -0.1307  0.0167  0.6515
   43DOPE   O11 5432   5.613   1.505   6.318  0.2966  0.0109  0.7995
   43DOPE   O12 5433   5.675   1.460   6.098 -0.3470 -0.2163  0.5139
   43DOPE    C1 5434   5.681   1.621   6.347 -0.5804  0.4974  0.2154
   43DOPE    HA 5435   5.662   1.701   6.272 -0.1736 -0.0087 -0.4435
   43DOPE    HB 5436   5.787   1.589   6.335 -0.0550  1.7859  1.2263
   43DOPE    C2 5437   5.668   1.675   6.497 -0.0044  0.0100 -0.5223
   43DOPE    HS 5438   5.752   1.743   6.522  1.0299 -1.5028  0.3471
   43DOPE   O21 5439   5.662   1.563   6.585  0.1701 -1.0060 -0.0348
   43DOPE   C21 5440   5.780   1.506   6.592 -0.6819  0.2745 -0.2182
   43DOPE   O22 5441   5.885   1.558   6.551  0.6960  0.8304  0.4999
   43DOPE   C22 5442   5.785   1.379   6.676 -0.0688 -0.2312  0.0398
   43DOPE   H2R 5443   5.869   1.381   6.749  0.2013  1.3741 -0.2762
   43DOPE   H2S 5444   5.805   1.297   6.604  1.1068 -1.1518  1.3439
   43DOPE    C3 5445   5.538   1.755   6.516  0.4317  0.4008 -0.8156
   43DOPE    HX 5446   5.446   1.698   6.490  0.5578 -0.2065  0.0351
   43DOPE    HY 5447   5.563   1.823   6.432  4.3340 -2.7755 -2.5984
   43DOPE   O31 5448   5.534   1.806   6.652  0.0769 -0.1071 -0.7263
   43DOPE   C31 5449   5.462   1.728   6.738 -0.0575 -0.6964 -0.4876
   43DOPE   O32 5450   5.384   1.643   6.705 -0.0438 -0.0748  0.4435
   43DOPE   C32 5451   5.507   1.763   6.880  0.1334 -0.2256  0.7167
   43DOPE   H2X 5452   5.615   1.739   6.891 -0.0436 -0.4918  1.9176
   43DOPE   H2Y 5453   5.507   1.874   6.879 -0.0811 -0.2263 -0.1511
   43DOPE   C23 5454   5.656   1.344   6.750  0.1127 -0.2880 -0.5326
   43DOPE   H3R 5455   5.575   1.311   6.681 -2.2142  0.6799  1.5725
   43DOPE   H3S 5456   5.626   1.433   6.808 -0.8849 -1.1909  0.3878
   43DOPE   C24 5457   5.669   1.226   6.854  0.0924 -1.0381 -0.0425
   43DOPE   H4R 5458   5.754   1.254   6.919  1.0164  0.9005 -1.9509
   43DOPE   H4S 5459   5.700   1.136   6.796  0.6675 -1.5959  1.1003
   43DOPE   C25 5460   5.534   1.201   6.928  0.2366 -0.1306 -0.1309
   43DOPE   H5R 5461   5.543   1.112   6.994 -0.2417 -2.0063 -2.4487
   43DOPE   H5S 5462   5.461   1.179   6.847  0.1255 -1.2447  0.2586
   43DOPE   C26 5463   5.489   1.315   7.020  0.2402  0.2090 -0.0546
   43DOPE   H6R 5464   5.435   1.395   6.965  0.0332  0.0698 -0.0563
   43DOPE   H6S 5465   5.576   1.359   7.073 -0.1554  0.0786  0.7208
   43DOPE   C27 5466   5.388   1.267   7.131  0.2078 -0.1616  0.1403
   43DOPE   H7R 5467   5.430   1.199   7.209 -1.2244 -1.5459 -0.2372
   43DOPE   H7S 5468   5.313   1.211   7.072 -0.4631 -0.3477  1.1515
   43DOPE   C28 5469   5.326   1.384   7.205 -0.3259  0.5584  0.4300
   43DOPE   H8R 5470   5.282   1.455   7.131  0.5957  0.6449 -0.0489
   43DOPE   H8S 5471   5.422   1.430   7.237  1.3299 -1.9825 -0.5175
   43DOPE   C29 5472   5.236   1.349   7.315 -0.3731 -0.0540  0.1383
   43DOPE   H9R 5473   5.131   1.325   7.291  0.3927 -2.3543 -1.2596
   43DOPE  C210 5474   5.272   1.301   7.434 -0.0314 -0.5480 -0.0175
   43DOPE  H10R 5475   5.194   1.266   7.503 -1.3134 -0.7894 -1.5281
   43DOPE  C211 5476   5.413   1.313   7.484 -0.0858  0.2142 -0.4772
   43DOPE  H11R 5477   5.491   1.338   7.409 -1.0815  1.3981 -1.1547
   43DOPE  H11S 5478   5.435   1.213   7.527  1.8505  0.5483 -0.6041
   43DOPE  C212 5479   5.423   1.422   7.599 -0.6364 -0.1415  0.1541
   43DOPE  H12R 5480   5.328   1.421   7.655 -0.1231 -1.1333  1.0428
   43DOPE  H12S 5481   5.437   1.521   7.550  1.6605 -0.2302  0.5202
   43DOPE  C213 5482   5.542   1.385   7.693  0.5350  0.0793  0.6428
   43DOPE  H13R 5483   5.638   1.381   7.636  0.9444 -0.6638  1.3645
   43DOPE  H13S 5484   5.517   1.291   7.746 -0.7962 -0.6860 -1.2566
   43DOPE  C214 5485   5.559   1.494   7.791 -0.6542 -0.4746 -0.5951
   43DOPE  H14R 5486   5.474   1.492   7.862 -1.6806  1.0249 -1.7000
   43DOPE  H14S 5487   5.551   1.594   7.742  0.8998  0.5789  1.1710
   43DOPE  C215 5488   5.688   1.483   7.877 -0.6168  0.8384  0.6180
   43DOPE  H15R 5489   5.777   1.486   7.810  0.0799  0.7284  1.5148
   43DOPE  H15S 5490   5.679   1.383   7.925 -2.8601  0.8081  0.2318
   43DOPE  C216 5491   5.705   1.594   7.988  0.1054  0.0671  0.1412
   43DOPE  H16R 5492   5.661   1.564   8.086 -0.6667  1.6985  0.3197
   43DOPE  H16S 5493   5.652   1.686   7.955  1.3419  0.6804 -0.2077
   43DOPE  C217 5494   5.850   1.637   8.006  0.3108  0.7225 -0.6133
   43DOPE  H17R 5495   5.910   1.546   8.027  0.2171  1.0001  1.0279
   43DOPE  H17S 5496   5.857   1.690   8.104 -0.3178 -2.1241  1.0890
   43DOPE  C218 5497   5.899   1.723   7.893  0.0724  0.3906 -0.4270
   43DOPE  H18R 5498   5.853   1.823   7.910  0.6598  0.2481  2.5964
   43DOPE  H18S 5499   5.867   1.687   7.793 -0.8187  1.6548 -0.6245
   43DOPE  H18T 5500   6.009   1.740   7.891  0.0239  0.6298 -2.4587
   43DOPE   C33 5501   5.407   1.727   6.990  0.0278  0.0661 -0.3568
   43DOPE   H3X 5502   5.424   1.619   7.008  0.0465 -0.0595 -1.0888
   43DOPE   H3Y 5503   5.303   1.732   6.952  0.1899 -0.1356 -0.8377
   43DOPE   C34 5504   5.431   1.806   7.117  0.2048 -0.5531 -0.1303
   43DOPE   H4X 5505   5.536   1.797   7.150  0.2413 -0.3404 -0.1879
   43DOPE   H4Y 5506   5.420   1.913   7.089  1.2886  0.0958  1.7154
   43DOPE   C35 5507   5.339   1.752   7.226  0.4186 -0.4219 -0.0826
   43DOPE   H5X 5508   5.329   1.642   7.223  1.2814 -0.6225  2.3316
   43DOPE   H5Y 5509   5.237   1.791   7.207  0.0820 -0.6726  1.1440
   43DOPE   C36 5510   5.368   1.805   7.366  0.4186 -0.5526 -0.6987
   43DOPE   H6X 5511   5.416   1.905   7.360 -0.4983  0.0120  0.9238
   43DOPE   H6Y 5512   5.449   1.745   7.412  0.0507 -0.7015 -0.2463
   43DOPE   C37 5513   5.236   1.789   7.451 -0.1883  0.3974  0.1644
   43DOPE   H7X 5514   5.147   1.852   7.428 -0.6616 -0.5006 -0.4939
   43DOPE   H7Y 5515   5.199   1.685   7.440  0.2595  0.1152  1.1785
   43DOPE   C38 5516   5.271   1.798   7.610 -0.4294  0.0529 -0.4723
   43DOPE   H8X 5517   5.348   1.720   7.630  0.7091  0.5027 -2.7400
   43DOPE   H8Y 5518   5.177   1.776   7.665 -0.3076  2.0220  0.6255
   43DOPE   C39 5519   5.317   1.936   7.649  0.4255  0.1383 -0.2922
   43DOPE   H9X 5520   5.280   2.013   7.581  0.2914  1.0178  0.7534
   43DOPE  C310 5521   5.407   1.969   7.750  0.1410 -0.0988 -0.0951
   43DOPE  H10X 5522   5.414   2.075   7.776  1.2046 -0.7605  2.7222
   43DOPE  C311 5523   5.470   1.871   7.835 -0.5079  0.1764 -0.7210
   43DOPE  H11X 5524   5.430   1.768   7.818 -0.2006 -0.0366 -0.1795
   43DOPE  H11Y 5525   5.580   1.882   7.826 -0.3626 -0.3166  0.2514
   43DOPE  C312 5526   5.436   1.912   7.981  1.0659  0.2854 -0.1940
   43DOPE  H12X 5527   5.477   1.831   8.046  1.1526  0.5276  0.0570
   43DOPE  H12Y 5528   5.326   1.918   7.988  1.0868  0.5147 -0.0545
   43DOPE  C313 5529   5.500   2.047   8.032 -0.6507 -1.2765  1.0895
   43DOPE  H13X 5530   5.611   2.044   8.028 -0.3596  2.9647  1.5159
   43DOPE  H13Y 5531   5.461   2.128   7.967 -1.6350 -2.5238  0.0846
   43DOPE  C314 5532   5.454   2.070   8.178 -0.2187 -0.7457  0.9129
   43DOPE  H14X 5533   5.348   2.040   8.192 -0.4269  0.0138  0.9912
   43DOPE  H14Y 5534   5.453   2.178   8.201  2.1627  0.1005 -2.1936
   43DOPE  C315 5535   5.547   2.005   8.282  0.2586  0.5340 -0.4679
   43DOPE  H15X 5536   5.635   2.070   8.300  0.5630  0.3449 -1.2190
   43DOPE  H15Y 5537   5.579   1.903   8.251  1.8997  0.5280  1.1068
   43DOPE  C316 5538   5.477   1.989   8.418 -0.0816  0.3020 -0.1937
   43DOPE  H16X 5539   5.546   1.952   8.497  0.7026  3.8249  0.9541
   43DOPE  H16Y 5540   5.391   1.921   8.402 -1.1968  1.0011  2.2295
   43DOPE  C317 5541   5.420   2.117   8.487 -0.1475 -0.2667 -0.4671
   43DOPE  H17X 5542   5.330   2.158   8.435 -0.7573  2.2146  2.2655
   43DOPE  H17Y 5543   5.404   2.088   8.593  1.9801 -0.9771 -0.2922
   43DOPE  C318 5544   5.517   2.232   8.485 -0.1230 -0.9438  0.0454
   43DOPE  H18X 5545   5.525   2.282   8.386 -0.0783  0.3300  0.6714
   43DOPE  H18Y 5546   5.489   2.315   8.553 -1.3225  0.0683 -1.5950
   43DOPE  H18Z 5547   5.622   2.211   8.517 -0.3133 -0.1472  1.2593
   44DOPE     N 5548   1.312   0.016   6.540  0.0428  0.1404  0.7020
   44DOPE   HN1 5549   1.351   0.091   6.601 -0.8003  1.2174 -0.0413
   44DOPE   HN2 5550   1.227   0.054   6.493 -0.3590  0.5067  1.6941
   44DOPE   HN3 5551   1.280  -0.066   6.596 -0.2559  0.5480  1.1400
   44DOPE   C12 5552   1.405  -0.046   6.439  0.1953  0.0538  0.2102
   44DOPE  H12A 5553   1.403   0.021   6.350 -0.0177  3.4212  2.5595
   44DOPE  H12B 5554   1.371  -0.149   6.416  0.8265  0.1558 -1.2944
   44DOPE   C11 5555   1.545  -0.058   6.499  0.0908 -0.5920 -0.1653
   44DOPE  H11A 5556   1.606  -0.125   6.435  0.2967  0.7514 -1.4187
   44DOPE  H11B 5557   1.533  -0.093   6.604 -1.3350  1.1233  0.2830
   44DOPE     P 5558   1.719   0.119   6.421  0.5174 -0.3621  0.3059
   44DOPE   O13 5559   1.718   0.265   6.396 -0.2959 -0.2001  0.2820
   44DOPE   O14 5560   1.716   0.038   6.293  0.5810 -0.0479 -0.3135
   44DOPE   O11 5561   1.851   0.083   6.503 -0.3476 -0.1438 -0.2443
   44DOPE   O12 5562   1.602   0.077   6.511  0.3143 -0.1759 -0.4914
   44DOPE    C1 5563   1.867   0.056   6.642  0.2680  0.6873 -0.0635
   44DOPE    HA 5564   1.975   0.052   6.664  0.9588  0.2132 -3.0946
   44DOPE    HB 5565   1.823  -0.044   6.663  1.3434 -0.1907 -1.7790
   44DOPE    C2 5566   1.811   0.157   6.749  0.0719 -0.2572  0.7908
   44DOPE    HS 5567   1.701   0.159   6.731  0.1912 -0.5568 -0.0003
   44DOPE   O21 5568   1.861   0.284   6.719 -0.0041 -0.0570  0.2150
   44DOPE   C21 5569   1.804   0.392   6.769  1.1082 -0.6942 -0.3929
   44DOPE   O22 5570   1.700   0.394   6.839 -0.2398  0.9232 -0.2763
   44DOPE   C22 5571   1.888   0.509   6.730 -0.1448  0.0349 -0.1137
   44DOPE   H2R 5572   1.950   0.490   6.639  2.0679  1.2185  1.0663
   44DOPE   H2S 5573   1.965   0.506   6.810 -1.9500 -2.5515  1.6906
   44DOPE    C3 5574   1.846   0.112   6.895  0.1269  0.1799  0.5414
   44DOPE    HX 5575   1.779   0.024   6.911  1.1352 -0.7247 -0.1007
   44DOPE    HY 5576   1.808   0.195   6.958 -3.4613 -1.1802  0.4202
   44DOPE   O31 5577   1.982   0.074   6.911  0.2129  0.5241  0.8037
   44DOPE   C31 5578   2.069   0.166   6.945  0.4026  0.0109  0.5298
   44DOPE   O32 5579   2.038   0.282   6.976  0.0863 -0.5036  0.0809
   44DOPE   C32 5580   2.206   0.095   6.956  0.4794  0.5793  0.0469
   44DOPE   H2X 5581   2.182  -0.001   7.006  0.9148  0.6953  0.4805
   44DOPE   H2Y 5582   2.241   0.074   6.852 -0.1578  2.0145 -0.4916
   44DOPE   C23 5583   1.815   0.647   6.741 -0.4982  0.3303 -1.0269
   44DOPE   H3R 5584   1.711   0.622   6.711 -1.2619  0.3897  1.3984
   44DOPE   H3S 5585   1.857   0.715   6.664  1.4689 -1.2550 -1.4468
   44DOPE   C24 5586   1.830   0.707   6.878  0.4751 -0.1840 -0.3510
   44DOPE   H4R 5587   1.936   0.731   6.899 -0.2659  0.3284  3.5080
   44DOPE   H4S 5588   1.792   0.631   6.951 -0.1955  1.9678  1.6433
   44DOPE   C25 5589   1.747   0.832   6.900 -0.3369  0.2782 -0.5412
   44DOPE   H5R 5590   1.643   0.803   6.877 -0.9103  1.0558  0.9070
   44DOPE   H5S 5591   1.773   0.923   6.841  0.5718  1.2229  1.2222
   44DOPE   C26 5592   1.764   0.884   7.046  0.5584 -0.9798  0.5114
   44DOPE   H6R 5593   1.770   0.801   7.121  1.4335  1.2146  3.0240
   44DOPE   H6S 5594   1.673   0.944   7.064 -0.3058 -1.8546 -0.7939
   44DOPE   C27 5595   1.879   0.978   7.053 -0.3560 -0.0262 -0.1152
   44DOPE   H7R 5596   1.874   1.066   6.986  0.4284 -0.2151 -0.4253
   44DOPE   H7S 5597   1.970   0.925   7.019 -0.3598 -0.9610  1.2459
   44DOPE   C28 5598   1.918   1.023   7.201 -1.0263  0.0050  0.4322
   44DOPE   H8R 5599   1.840   1.095   7.232  0.0134  1.0291  0.7518
   44DOPE   H8S 5600   2.019   1.069   7.189 -0.5553 -0.9311  0.7602
   44DOPE   C29 5601   1.902   0.904   7.296 -0.1774  0.3644  0.0225
   44DOPE   H9R 5602   1.802   0.861   7.301 -0.1449  0.3455  0.4742
   44DOPE  C210 5603   2.003   0.848   7.364  0.1465  0.3077  0.0153
   44DOPE  H10R 5604   1.974   0.751   7.408  1.4048 -0.1483 -0.1019
   44DOPE  C211 5605   2.146   0.885   7.370 -0.4337  0.2855  0.1835
   44DOPE  H11R 5606   2.176   0.957   7.290 -0.6280  0.3191  0.1400
   44DOPE  H11S 5607   2.209   0.797   7.346 -2.3084 -0.9872 -0.2945
   44DOPE  C212 5608   2.190   0.940   7.512 -0.5667  0.1345  0.4256
   44DOPE  H12R 5609   2.206   0.851   7.577 -1.5270  0.6232  1.3822
   44DOPE  H12S 5610   2.113   1.005   7.560 -0.9756  1.3462 -1.7533
   44DOPE  C213 5611   2.315   1.036   7.512 -0.1483  0.3804  0.5731
   44DOPE  H13R 5612   2.296   1.120   7.442  2.0158  0.2820 -0.2243
   44DOPE  H13S 5613   2.398   0.978   7.465 -0.9803 -0.3421 -0.0351
   44DOPE  C214 5614   2.343   1.078   7.651 -0.4148  0.0189  0.6861
   44DOPE  H14R 5615   2.268   1.157   7.674  1.7219  1.6442  2.5992
   44DOPE  H14S 5616   2.442   1.128   7.639  0.6780 -2.6566 -3.9636
   44DOPE  C215 5617   2.352   0.960   7.741 -0.5521  0.3358  0.0997
   44DOPE  H15R 5618   2.397   0.882   7.677 -0.6437  1.3871 -1.2999
   44DOPE  H15S 5619   2.249   0.943   7.779 -1.0367  0.0094 -1.3274
   44DOPE  C216 5620   2.441   0.984   7.861  0.5459 -0.1633  0.8133
   44DOPE  H16R 5621   2.544   1.009   7.828  0.0308  4.3459  1.9893
   44DOPE  H16S 5622   2.441   0.882   7.905 -1.4676 -2.2595 -3.4541
   44DOPE  C217 5623   2.391   1.092   7.961  0.0265 -0.6362 -0.7520
   44DOPE  H17R 5624   2.292   1.065   8.004 -1.0081  1.9496 -1.2898
   44DOPE  H17S 5625   2.370   1.188   7.909  1.9071 -0.0988 -0.6244
   44DOPE  C218 5626   2.475   1.112   8.089 -0.6922  0.2185 -0.3454
   44DOPE  H18R 5627   2.490   1.012   8.136 -0.1870  0.1495 -0.6446
   44DOPE  H18S 5628   2.422   1.181   8.156 -1.5168 -1.9325  1.3381
   44DOPE  H18T 5629   2.571   1.158   8.056 -0.4680 -0.9480 -1.4294
   44DOPE   C33 5630   2.304   0.186   7.033 -0.2433 -0.2237  0.0144
   44DOPE   H3X 5631   2.257   0.214   7.129 -0.1771  0.4886 -0.1565
   44DOPE   H3Y 5632   2.328   0.278   6.975 -1.6893 -0.9674 -1.8804
   44DOPE   C34 5633   2.434   0.113   7.052 -0.0440 -0.3553 -0.2211
   44DOPE   H4X 5634   2.405   0.019   7.105 -2.6186  0.2437 -0.4450
   44DOPE   H4Y 5635   2.487   0.090   6.957 -0.1557 -0.2637 -0.3057
   44DOPE   C35 5636   2.516   0.203   7.146 -0.3996 -0.5338 -0.3177
   44DOPE   H5X 5637   2.469   0.190   7.245 -2.2020  0.9261 -0.9199
   44DOPE   H5Y 5638   2.504   0.307   7.107  0.0231 -0.3574  0.0145
   44DOPE   C36 5639   2.654   0.151   7.153 -0.1531  1.0868  0.7679
   44DOPE   H6X 5640   2.685   0.142   7.047 -0.2394  2.8614  0.5630
   44DOPE   H6Y 5641   2.655   0.046   7.192  0.0439  0.4560 -0.8567
   44DOPE   C37 5642   2.760   0.231   7.231 -0.3139 -0.2649 -0.1980
   44DOPE   H7X 5643   2.776   0.324   7.171  0.8732  0.8696  1.7687
   44DOPE   H7Y 5644   2.715   0.272   7.324  0.4703  0.3306 -0.0699
   44DOPE   C38 5645   2.889   0.158   7.255  0.3039 -0.2561 -0.1964
   44DOPE   H8X 5646   2.921   0.107   7.162  1.1098 -1.9622  0.9724
   44DOPE   H8Y 5647   2.857   0.075   7.322 -2.4653  2.8629  2.7926
   44DOPE   C39 5648   2.997   0.225   7.329  0.6179  0.6304  0.5351
   44DOPE   H9X 5649   3.046   0.307   7.273 -0.7311  0.5070 -0.9179
   44DOPE  C310 5650   3.036   0.201   7.454 -0.2818 -0.2645 -0.2190
   44DOPE  H10X 5651   3.128   0.255   7.483  0.8717 -0.5556 -2.9366
   44DOPE  C311 5652   2.984   0.103   7.548  0.5934  0.5867 -0.1522
   44DOPE  H11X 5653   2.881   0.066   7.534  1.2983 -0.8155 -1.9635
   44DOPE  H11Y 5654   3.035   0.006   7.531 -0.5037  0.1694 -1.1379
   44DOPE  C312 5655   3.008   0.146   7.693  0.9634 -0.2659 -0.7712
   44DOPE  H12X 5656   2.941   0.230   7.723 -0.7630 -1.2998 -1.5774
   44DOPE  H12Y 5657   3.113   0.178   7.711  0.2455  1.5587  0.4760
   44DOPE  C313 5658   2.988   0.038   7.806 -0.5879  0.1850 -0.2115
   44DOPE  H13X 5659   2.887  -0.008   7.797 -0.3379 -0.6432  0.9888
   44DOPE  H13Y 5660   3.039  -0.057   7.783 -2.1241 -0.3219 -1.7849
   44DOPE  C314 5661   3.020   0.080   7.951  0.1059 -0.9060 -0.0638
   44DOPE  H14X 5662   3.125   0.114   7.942  0.3345 -2.0853 -3.2786
   44DOPE  H14Y 5663   3.018  -0.009   8.018 -0.7729  0.1718  1.3934
   44DOPE  C315 5664   2.924   0.185   8.004 -0.4706 -0.2752 -0.6228
   44DOPE  H15X 5665   2.821   0.144   8.004 -0.6095  0.0759 -0.1300
   44DOPE  H15Y 5666   2.939   0.276   7.941 -1.3510 -0.4906 -1.1622
   44DOPE  C316 5667   2.941   0.219   8.153  0.0156  0.3277 -0.7350
   44DOPE  H16X 5668   2.910   0.324   8.172  0.1289  0.2444 -0.0732
   44DOPE  H16Y 5669   3.051   0.223   8.167 -0.0731  0.9827 -0.1707
   44DOPE  C317 5670   2.888   0.126   8.267 -0.0217 -0.2210  0.2455
   44DOPE  H17X 5671   2.786   0.089   8.242 -0.8069  1.6028  0.5809
   44DOPE  H17Y 5672   2.956   0.039   8.277  2.1617  1.3211 -0.2892
   44DOPE  C318 5673   2.884   0.189   8.405 -0.1815 -0.3506  0.4053
   44DOPE  H18X 5674   2.978   0.245   8.424 -0.5793  0.4265  0.1307
   44DOPE  H18Y 5675   2.810   0.272   8.412 -2.2915 -2.1854  1.0026
   44DOPE  H18Z 5676   2.871   0.119   8.490  0.2448  0.0546  0.8077
   45DOPE     N 5677   3.243   6.662   5.822 -0.4350 -0.5737 -0.7820
   45DOPE   HN1 5678   3.221   6.736   5.752 -0.4829 -0.0961 -0.2777
   45DOPE   HN2 5679   3.202   6.570   5.795  0.4108 -1.1361 -0.1847
   45DOPE   HN3 5680   3.193   6.694   5.907 -1.9253 -0.2255 -1.7456
   45DOPE   C12 5681   3.390   6.648   5.838  0.0845  0.3084 -0.5880
   45DOPE  H12A 5682   3.431   6.751   5.837 -2.2383  1.2910 -1.8583
   45DOPE  H12B 5683   3.428   6.576   5.762  0.3668 -0.3648  0.1618
   45DOPE   C11 5684   3.433   6.582   5.979  0.5087 -0.4532 -0.4053
   45DOPE  H11A 5685   3.412   6.658   6.057 -1.8036 -1.7285  0.2921
   45DOPE  H11B 5686   3.543   6.571   5.967  0.9938  1.7964  1.2831
   45DOPE     P 5687   3.389   6.382   6.129 -0.0002  0.0166  0.2884
   45DOPE   O13 5688   3.498   6.283   6.097  0.1900 -0.5466 -0.4852
   45DOPE   O14 5689   3.261   6.325   6.177  0.7448 -0.4115 -0.2364
   45DOPE   O11 5690   3.452   6.484   6.228 -0.1157 -0.2740 -0.2636
   45DOPE   O12 5691   3.363   6.459   5.996  0.2751 -0.0986  0.4824
   45DOPE    C1 5692   3.357   6.531   6.326  0.0237 -0.4824  0.1125
   45DOPE    HA 5693   3.336   6.450   6.399  1.4066  0.9353  2.2072
   45DOPE    HB 5694   3.269   6.571   6.271  0.8113  0.5439 -0.4380
   45DOPE    C2 5695   3.406   6.650   6.413  0.5235 -0.3249  0.1119
   45DOPE    HS 5696   3.442   6.724   6.339  0.0168 -0.6783 -0.4973
   45DOPE   O21 5697   3.514   6.599   6.494 -0.5862  0.2689 -0.4221
   45DOPE   C21 5698   3.606   6.687   6.529  0.7706 -0.0933  0.0912
   45DOPE   O22 5699   3.613   6.805   6.508  0.0762 -0.3729  0.1416
   45DOPE   C22 5700   3.699   6.624   6.631 -0.3940  0.0216 -0.0283
   45DOPE   H2R 5701   3.760   6.544   6.584 -0.6842  0.4373 -1.1465
   45DOPE   H2S 5702   3.639   6.581   6.714 -1.0372  1.0602  0.0689
   45DOPE    C3 5703   3.294   6.719   6.498  0.1829  0.0583  0.5366
   45DOPE    HX 5704   3.236   6.788   6.433  1.6227 -0.4067 -1.3203
   45DOPE    HY 5705   3.355   6.772   6.574  0.8109 -0.9958  0.7932
   45DOPE   O31 5706   3.209   6.615   6.559 -0.1419 -0.5764 -0.0347
   45DOPE   C31 5707   3.149   6.661   6.667  1.1191  0.7657 -0.2220
   45DOPE   O32 5708   3.151   6.775   6.705  0.0460 -0.7070 -0.2909
   45DOPE   C32 5709   3.064   6.546   6.719  0.7443 -0.2803  0.5201
   45DOPE   H2X 5710   2.962   6.548   6.675 -0.6449  1.4335  3.4740
   45DOPE   H2Y 5711   3.104   6.448   6.687 -1.4175 -0.0860 -3.3383
   45DOPE   C23 5712   3.795   6.728   6.695 -0.2050 -0.5046  0.2415
   45DOPE   H3R 5713   3.731   6.807   6.739  0.6406 -0.9155  2.3443
   45DOPE   H3S 5714   3.867   6.764   6.619 -0.1159  0.8930  0.9393
   45DOPE   C24 5715   3.872   6.661   6.816  0.5673 -0.5811 -0.1931
   45DOPE   H4R 5716   3.958   6.723   6.850 -0.6342  0.7363  0.5754
   45DOPE   H4S 5717   3.921   6.570   6.775 -0.4702 -0.4032 -1.8769
   45DOPE   C25 5718   3.779   6.648   6.934 -0.7821  0.0523  0.4265
   45DOPE   H5R 5719   3.716   6.557   6.918  1.2404 -1.1212 -1.3795
   45DOPE   H5S 5720   3.729   6.746   6.932  2.2874  1.7299 -1.3500
   45DOPE   C26 5721   3.860   6.630   7.068 -0.1278 -0.5171 -0.0885
   45DOPE   H6R 5722   3.938   6.709   7.070 -1.5330  0.8995  0.5450
   45DOPE   H6S 5723   3.900   6.527   7.059  0.0822 -0.5459  1.0579
   45DOPE   C27 5724   3.765   6.630   7.186  0.6270 -0.7306  0.5996
   45DOPE   H7R 5725   3.674   6.569   7.166  1.9991 -2.5044 -0.5464
   45DOPE   H7S 5726   3.728   6.734   7.200  2.6803  0.4468 -1.8919
   45DOPE   C28 5727   3.823   6.585   7.321 -0.3996 -0.2025  0.8925
   45DOPE   H8R 5728   3.912   6.647   7.344  0.1673 -0.3106 -0.8546
   45DOPE   H8S 5729   3.868   6.485   7.306  1.2674  0.5577  0.6496
   45DOPE   C29 5730   3.722   6.571   7.433 -0.6724  0.7115  0.4409
   45DOPE   H9R 5731   3.638   6.638   7.408  0.0140  0.7731 -1.9835
   45DOPE  C210 5732   3.727   6.490   7.540 -0.1431 -1.1379  0.5053
   45DOPE  H10R 5733   3.644   6.493   7.613  0.6991 -1.9578  1.5334
   45DOPE  C211 5734   3.838   6.391   7.563  0.0753  0.3311  0.7145
   45DOPE  H11R 5735   3.906   6.370   7.478 -2.3839 -0.3751 -1.2168
   45DOPE  H11S 5736   3.800   6.294   7.602 -0.1177  0.6581  1.3617
   45DOPE  C212 5737   3.925   6.446   7.678 -0.1282  0.3124  0.8521
   45DOPE  H12R 5738   3.960   6.546   7.647 -0.3564 -0.1155 -0.8721
   45DOPE  H12S 5739   4.015   6.381   7.692 -1.0904 -1.6071 -1.1534
   45DOPE  C213 5740   3.873   6.466   7.815 -0.1615 -0.1003 -0.2288
   45DOPE  H13R 5741   3.789   6.538   7.806  1.5826  1.8454 -2.0159
   45DOPE  H13S 5742   3.947   6.523   7.874  1.5962 -0.8060 -1.6686
   45DOPE  C214 5743   3.826   6.332   7.883 -0.8578  0.1071 -0.3301
   45DOPE  H14R 5744   3.911   6.261   7.868 -1.2538 -0.3583 -0.3959
   45DOPE  H14S 5745   3.735   6.296   7.830 -1.2324  0.6179 -0.0407
   45DOPE  C215 5746   3.799   6.355   8.034  0.3020 -0.2720  0.1525
   45DOPE  H15R 5747   3.731   6.441   8.054 -0.0695  0.1671 -2.5634
   45DOPE  H15S 5748   3.902   6.362   8.074  0.3784  0.4886 -0.1553
   45DOPE  C216 5749   3.738   6.233   8.109  0.3342 -0.3005  0.8331
   45DOPE  H16R 5750   3.781   6.243   8.211  2.2271  1.8199 -0.0857
   45DOPE  H16S 5751   3.766   6.130   8.078  1.8950 -0.4944  2.6971
   45DOPE  C217 5752   3.586   6.235   8.136  0.4630  0.3285  0.0658
   45DOPE  H17R 5753   3.556   6.140   8.184  1.5061 -0.0975 -0.1111
   45DOPE  H17S 5754   3.528   6.238   8.041 -1.2757  1.3888  1.1129
   45DOPE  C218 5755   3.531   6.361   8.216 -0.2907 -0.2268  0.5200
   45DOPE  H18R 5756   3.421   6.356   8.221 -0.3048  0.5668  1.2262
   45DOPE  H18S 5757   3.562   6.451   8.159  0.3897 -1.7536 -1.6819
   45DOPE  H18T 5758   3.560   6.367   8.323 -1.3340  0.9078  0.7559
   45DOPE   C33 5759   3.054   6.551   6.875  0.6629 -0.5493 -0.2616
   45DOPE   H3X 5760   2.953   6.514   6.903  1.0618 -0.9863  0.6446
   45DOPE   H3Y 5761   3.047   6.660   6.898  1.5030 -0.5744  0.1362
   45DOPE   C34 5762   3.157   6.479   6.960  0.2412  0.0672 -0.0539
   45DOPE   H4X 5763   3.133   6.373   6.938 -0.3920 -0.1861  1.7594
   45DOPE   H4Y 5764   3.256   6.503   6.914 -0.2994  2.0963 -0.2457
   45DOPE   C35 5765   3.153   6.528   7.104  0.3384 -0.8508 -0.3354
   45DOPE   H5X 5766   3.053   6.507   7.148  1.9976 -2.8057  2.8942
   45DOPE   H5Y 5767   3.171   6.637   7.099 -0.3395 -0.7444 -0.5583
   45DOPE   C36 5768   3.253   6.453   7.190 -0.3004 -0.8194 -0.7344
   45DOPE   H6X 5769   3.351   6.472   7.141  0.7743 -0.8874  1.2681
   45DOPE   H6Y 5770   3.239   6.343   7.189 -0.2149 -0.8287 -0.9929
   45DOPE   C37 5771   3.258   6.498   7.336 -0.0429 -0.4101 -0.0722
   45DOPE   H7X 5772   3.287   6.605   7.346 -1.4063 -0.0043 -0.3381
   45DOPE   H7Y 5773   3.158   6.480   7.380 -0.5619 -0.7141 -1.3501
   45DOPE   C38 5774   3.371   6.424   7.413 -0.3799  0.3583 -0.2899
   45DOPE   H8X 5775   3.426   6.497   7.476  1.5145  0.4521 -1.9645
   45DOPE   H8Y 5776   3.445   6.388   7.339 -0.7670 -0.5041 -0.2749
   45DOPE   C39 5777   3.321   6.308   7.497 -1.0461 -0.3165 -0.3052
   45DOPE   H9X 5778   3.297   6.218   7.438 -1.6917 -1.2122  1.2539
   45DOPE  C310 5779   3.294   6.303   7.627  0.6335 -0.5693  0.5791
   45DOPE  H10X 5780   3.292   6.199   7.661 -0.5664 -1.4603 -1.9513
   45DOPE  C311 5781   3.290   6.423   7.722  0.0910 -0.1408  0.3321
   45DOPE  H11X 5782   3.308   6.516   7.665 -1.8729 -0.4805 -0.9337
   45DOPE  H11Y 5783   3.204   6.428   7.792  0.9723 -0.4673  1.4812
   45DOPE  C312 5784   3.403   6.400   7.818 -0.0785 -0.2029  0.1393
   45DOPE  H12X 5785   3.497   6.378   7.762 -0.6644 -0.2212 -0.8566
   45DOPE  H12Y 5786   3.377   6.314   7.883 -3.2243  0.6887  0.2000
   45DOPE  C313 5787   3.414   6.530   7.903  0.6014  0.0455 -0.9523
   45DOPE  H13X 5788   3.503   6.507   7.965  0.1764  0.8968 -0.0016
   45DOPE  H13Y 5789   3.433   6.612   7.830  0.6045 -0.6223 -1.7126
   45DOPE  C314 5790   3.308   6.566   8.005  0.0925  0.0708  0.2235
   45DOPE  H14X 5791   3.331   6.522   8.104  0.6753  0.5678  0.3108
   45DOPE  H14Y 5792   3.209   6.534   7.963  0.6996 -1.0589 -0.4054
   45DOPE  C315 5793   3.297   6.719   8.035 -0.5247  0.3364 -0.6802
   45DOPE  H15X 5794   3.199   6.740   8.083 -0.2718 -1.5991  0.8172
   45DOPE  H15Y 5795   3.315   6.780   7.944 -0.1970  1.5093  0.1477
   45DOPE  C316 5796   3.404   6.761   8.133  0.1985 -0.9390 -0.9618
   45DOPE  H16X 5797   3.493   6.735   8.071  0.4840  0.9986 -1.4449
   45DOPE  H16Y 5798   3.405   6.713   8.233 -0.9974  0.5713 -0.1681
   45DOPE  C317 5799   3.390   6.917   8.152  0.0574  0.9278 -0.1955
   45DOPE  H17X 5800   3.308   6.956   8.087  0.4018  0.9744 -0.6048
   45DOPE  H17Y 5801   3.352   6.942   8.254  0.8910  1.3925  0.0111
   45DOPE  C318 5802   3.525   6.993   8.131  0.0059 -0.0429  0.3056
   45DOPE  H18X 5803   3.610   6.927   8.160  1.6925  1.0781 -1.7406
   45DOPE  H18Y 5804   3.546   7.023   8.026  2.4119 -0.7769  0.5123
   45DOPE  H18Z 5805   3.533   7.087   8.191  0.3196  1.1580 -1.5201
   46DOPE     N 5806   4.870   5.012   6.353  0.3455  0.1243 -0.0117
   46DOPE   HN1 5807   4.921   5.103   6.356  0.5439 -0.0029  1.3971
   46DOPE   HN2 5808   4.806   5.025   6.434  1.9934  0.9608  1.2202
   46DOPE   HN3 5809   4.933   4.933   6.378 -1.5129 -0.5699  2.9911
   46DOPE   C12 5810   4.805   4.974   6.225 -0.2579 -0.7724  0.3764
   46DOPE  H12A 5811   4.730   4.896   6.252 -0.5868 -0.3777  0.6171
   46DOPE  H12B 5812   4.876   4.933   6.151 -1.5771  0.4106 -1.6626
   46DOPE   C11 5813   4.742   5.105   6.163  0.1788  0.2609 -0.1181
   46DOPE  H11A 5814   4.673   5.076   6.081 -0.3825 -0.0748  0.4625
   46DOPE  H11B 5815   4.826   5.169   6.129  0.0879 -0.0949 -1.0301
   46DOPE     P 5816   4.511   5.220   6.263 -0.4378  0.0922  0.5857
   46DOPE   O13 5817   4.439   5.094   6.286  0.2294 -0.0230  0.3878
   46DOPE   O14 5818   4.473   5.303   6.147 -0.3182  0.2585 -0.7524
   46DOPE   O11 5819   4.501   5.307   6.397  0.2408  1.2932 -0.1174
   46DOPE   O12 5820   4.671   5.187   6.256  0.6794  0.1127 -0.1017
   46DOPE    C1 5821   4.585   5.413   6.438 -0.1835  0.4653 -0.1566
   46DOPE    HA 5822   4.675   5.420   6.374  0.2074 -1.2729  0.1397
   46DOPE    HB 5823   4.627   5.379   6.535  0.1660  2.2626  0.3539
   46DOPE    C2 5824   4.511   5.540   6.459 -0.2869 -0.3911  0.6765
   46DOPE    HS 5825   4.586   5.608   6.506  1.3125 -1.2236 -0.5546
   46DOPE   O21 5826   4.388   5.517   6.533 -0.6696  0.1286  0.4325
   46DOPE   C21 5827   4.392   5.504   6.659 -0.2461  0.3505 -0.4376
   46DOPE   O22 5828   4.494   5.498   6.725 -0.2095 -0.7782 -0.4032
   46DOPE   C22 5829   4.253   5.510   6.716  0.3359 -0.2331 -0.1369
   46DOPE   H2R 5830   4.172   5.460   6.659  0.7072  0.7632 -1.5981
   46DOPE   H2S 5831   4.230   5.619   6.707 -1.0141 -0.1649  2.9290
   46DOPE    C3 5832   4.468   5.604   6.322  0.4658 -0.0969  0.1873
   46DOPE    HX 5833   4.386   5.540   6.282  2.4051 -1.7608 -1.2936
   46DOPE    HY 5834   4.549   5.591   6.248  0.2236 -2.8453  0.3027
   46DOPE   O31 5835   4.429   5.744   6.348 -0.7061 -0.5826  0.4911
   46DOPE   C31 5836   4.357   5.807   6.254 -0.3424  0.0853  1.1738
   46DOPE   O32 5837   4.325   5.751   6.152  0.4560  0.1645 -0.0971
   46DOPE   C32 5838   4.333   5.946   6.294 -0.0714 -0.2118 -0.4626
   46DOPE   H2X 5839   4.341   6.019   6.210 -2.1287  2.0763  1.1825
   46DOPE   H2Y 5840   4.235   5.950   6.346  0.1017 -1.1334 -0.0481
   46DOPE   C23 5841   4.245   5.491   6.869  0.3519  1.1611  0.1226
   46DOPE   H3R 5842   4.147   5.534   6.898 -2.3792 -4.1824  0.0987
   46DOPE   H3S 5843   4.326   5.555   6.910 -0.4531  2.0157  0.3868
   46DOPE   C24 5844   4.257   5.346   6.912  0.5176 -0.2513  0.3949
   46DOPE   H4R 5845   4.344   5.300   6.861 -0.0803 -0.8810 -0.0676
   46DOPE   H4S 5846   4.166   5.287   6.889 -1.1421  2.7277 -1.3072
   46DOPE   C25 5847   4.294   5.342   7.060  0.7291  1.2372 -0.3963
   46DOPE   H5R 5848   4.223   5.277   7.114  2.6312  0.1868  0.9417
   46DOPE   H5S 5849   4.301   5.446   7.100  1.6357  0.7468  0.7612
   46DOPE   C26 5850   4.427   5.271   7.086  0.1571 -0.1504  0.1007
   46DOPE   H6R 5851   4.503   5.344   7.051  1.0527 -1.6201 -1.1545
   46DOPE   H6S 5852   4.444   5.182   7.021  1.1297 -0.1677  0.3758
   46DOPE   C27 5853   4.449   5.228   7.228 -0.1982  0.1613  0.5544
   46DOPE   H7R 5854   4.371   5.156   7.262 -1.6856  1.1374 -0.6854
   46DOPE   H7S 5855   4.438   5.318   7.292  2.0417  0.3706  0.7247
   46DOPE   C28 5856   4.587   5.164   7.252 -0.6483 -0.3183 -0.4744
   46DOPE   H8R 5857   4.595   5.076   7.184  2.2369 -1.3272  0.9900
   46DOPE   H8S 5858   4.579   5.136   7.359  1.4279  0.7581  0.0089
   46DOPE   C29 5859   4.700   5.264   7.229 -0.3800 -0.7902  0.0203
   46DOPE   H9R 5860   4.732   5.285   7.126  0.9592 -1.1056  0.3549
   46DOPE  C210 5861   4.765   5.338   7.321 -0.0901 -0.1881  0.0726
   46DOPE  H10R 5862   4.840   5.414   7.294 -0.0180 -0.5512 -0.8113
   46DOPE  C211 5863   4.751   5.319   7.472  0.7933  0.3916 -0.6108
   46DOPE  H11R 5864   4.648   5.291   7.501  0.5109  2.8671  1.0755
   46DOPE  H11S 5865   4.779   5.415   7.520 -0.0161  1.8034 -2.7918
   46DOPE  C212 5866   4.837   5.199   7.522  0.2762 -0.8015  0.2810
   46DOPE  H12R 5867   4.940   5.234   7.541  0.2893 -1.6616  1.9542
   46DOPE  H12S 5868   4.838   5.124   7.439 -0.3721 -1.4821  0.8675
   46DOPE  C213 5869   4.766   5.127   7.639 -0.0297 -0.5197 -0.7186
   46DOPE  H13R 5870   4.669   5.094   7.597 -0.4433  1.1098 -1.0693
   46DOPE  H13S 5871   4.745   5.200   7.720  0.9292  0.1295 -1.0463
   46DOPE  C214 5872   4.842   5.001   7.679 -0.3447  0.6287 -0.4372
   46DOPE  H14R 5873   4.946   5.033   7.702  0.0785 -1.7405  1.3730
   46DOPE  H14S 5874   4.865   4.928   7.598  1.1168  1.6151 -0.9735
   46DOPE  C215 5875   4.779   4.927   7.790  0.6621 -0.1574 -0.5083
   46DOPE  H15R 5876   4.673   4.900   7.770  0.9264 -2.0844  0.5150
   46DOPE  H15S 5877   4.766   4.988   7.882 -1.8070 -3.9651  1.9289
   46DOPE  C216 5878   4.872   4.815   7.835  0.3046  0.1598  0.5702
   46DOPE  H16R 5879   4.949   4.852   7.905  1.3456  0.0414 -0.4831
   46DOPE  H16S 5880   4.914   4.763   7.746  2.2786  2.3260  0.1497
   46DOPE  C217 5881   4.810   4.709   7.932 -0.0003 -0.5151 -0.5294
   46DOPE  H17R 5882   4.891   4.643   7.969 -0.2152  0.0804  1.0583
   46DOPE  H17S 5883   4.733   4.646   7.882 -0.5892  1.8972 -2.8788
   46DOPE  C218 5884   4.746   4.774   8.061 -0.4341 -0.0099  0.7799
   46DOPE  H18R 5885   4.826   4.839   8.101  2.1556 -1.5627 -1.5559
   46DOPE  H18S 5886   4.729   4.691   8.133 -1.0347 -0.7462 -0.1892
   46DOPE  H18T 5887   4.662   4.842   8.038  1.4645  2.4448  0.7336
   46DOPE   C33 5888   4.450   5.992   6.386  0.4201 -0.1766 -0.4650
   46DOPE   H3X 5889   4.551   5.954   6.361  0.0616 -0.4692 -1.5213
   46DOPE   H3Y 5890   4.425   5.937   6.480  0.6922 -1.4426 -1.1119
   46DOPE   C34 5891   4.456   6.140   6.418 -0.5037 -0.2609 -0.0648
   46DOPE   H4X 5892   4.507   6.198   6.338  0.9400  0.1172  1.1009
   46DOPE   H4Y 5893   4.355   6.178   6.446 -0.8616 -0.8508 -0.5138
   46DOPE   C35 5894   4.541   6.166   6.541  0.2163  0.0828 -0.3455
   46DOPE   H5X 5895   4.645   6.160   6.504  0.2778 -1.5838 -0.0119
   46DOPE   H5Y 5896   4.536   6.084   6.616  0.0164 -0.8672 -1.3576
   46DOPE   C36 5897   4.525   6.308   6.611  0.1502  0.3174 -0.4597
   46DOPE   H6X 5898   4.537   6.382   6.529 -2.2109  2.3430  0.9187
   46DOPE   H6Y 5899   4.597   6.323   6.694  0.4523 -0.5461 -0.5521
   46DOPE   C37 5900   4.378   6.322   6.666  0.0167  0.0184  0.0657
   46DOPE   H7X 5901   4.297   6.274   6.607 -0.2956 -0.7874  1.1151
   46DOPE   H7Y 5902   4.372   6.261   6.759 -0.4929 -0.0708 -0.0203
   46DOPE   C38 5903   4.350   6.462   6.715  0.0478 -1.1589  0.4186
   46DOPE   H8X 5904   4.240   6.480   6.725  0.1460  0.0703 -0.5774
   46DOPE   H8Y 5905   4.376   6.531   6.632 -2.4873 -0.8907 -0.2615
   46DOPE   C39 5906   4.418   6.489   6.846  0.3010 -0.0378  0.1594
   46DOPE   H9X 5907   4.522   6.519   6.824 -0.2153  1.3496 -0.4547
   46DOPE  C310 5908   4.364   6.465   6.968 -0.0071  0.3517  0.1776
   46DOPE  H10X 5909   4.434   6.480   7.052 -1.4027 -1.3629  1.7134
   46DOPE  C311 5910   4.218   6.436   6.999  0.0645  0.6026  0.5282
   46DOPE  H11X 5911   4.165   6.533   7.013 -1.3000 -0.0641  0.1511
   46DOPE  H11Y 5912   4.168   6.382   6.916  1.2212  1.4378 -0.7447
   46DOPE  C312 5913   4.176   6.352   7.120  0.3880 -0.3975  0.1834
   46DOPE  H12X 5914   4.203   6.244   7.116  0.5670 -0.3195 -1.5776
   46DOPE  H12Y 5915   4.065   6.349   7.121  0.3378  0.0449 -1.6461
   46DOPE  C313 5916   4.235   6.395   7.252 -0.1287  0.0625  0.2185
   46DOPE  H13X 5917   4.344   6.372   7.252 -0.6207 -3.0438 -2.1489
   46DOPE  H13Y 5918   4.220   6.504   7.266 -2.6889 -0.0454 -1.1224
   46DOPE  C314 5919   4.167   6.325   7.368 -0.0716  0.1106 -0.3583
   46DOPE  H14X 5920   4.060   6.354   7.353  0.9062  3.0835 -2.3980
   46DOPE  H14Y 5921   4.202   6.371   7.463  1.4357 -0.0742 -0.8111
   46DOPE  C315 5922   4.190   6.172   7.392  0.1445 -0.7417  0.2368
   46DOPE  H15X 5923   4.300   6.163   7.407  0.8074  3.9456 -0.2703
   46DOPE  H15Y 5924   4.148   6.118   7.304 -0.6727  0.8463 -0.3755
   46DOPE  C316 5925   4.123   6.126   7.523  0.1080 -0.2109  0.0107
   46DOPE  H16X 5926   4.017   6.156   7.508  0.7225  2.0099 -0.2906
   46DOPE  H16Y 5927   4.176   6.199   7.588  0.9400  0.1008 -0.9896
   46DOPE  C317 5928   4.141   5.990   7.575 -0.1748  0.3211 -0.4515
   46DOPE  H17X 5929   4.093   5.908   7.518  0.3010 -0.5790  0.4136
   46DOPE  H17Y 5930   4.250   5.968   7.567 -0.7443 -2.2303 -2.0935
   46DOPE  C318 5931   4.094   5.970   7.717 -0.5012  0.3774 -0.1314
   46DOPE  H18X 5932   4.149   5.889   7.770 -0.9656  0.2521  0.1665
   46DOPE  H18Y 5933   4.125   6.065   7.766 -2.1339  0.6056  0.5481
   46DOPE  H18Z 5934   3.984   5.957   7.726 -0.1332 -2.8094  0.9653
   47DOPE     N 5935   6.642   4.453   6.381 -0.7503 -0.1035 -0.8656
   47DOPE   HN1 5936   6.660   4.530   6.313 -1.2335  0.6022 -0.2139
   47DOPE   HN2 5937   6.705   4.376   6.352  3.4876  2.5924  0.3176
   47DOPE   HN3 5938   6.541   4.427   6.379 -1.0974  1.1528 -0.4604
   47DOPE   C12 5939   6.690   4.495   6.515 -0.3481  0.0872 -0.1477
   47DOPE  H12A 5940   6.666   4.408   6.579  0.4462  0.1703  0.2788
   47DOPE  H12B 5941   6.634   4.586   6.544 -0.8284 -0.8972  2.2227
   47DOPE   C11 5942   6.842   4.513   6.531  0.0407  0.4715 -0.6400
   47DOPE  H11A 5943   6.888   4.414   6.548 -0.2243  0.3359 -0.7046
   47DOPE  H11B 5944   6.854   4.568   6.627 -3.2441 -1.3856  1.0164
   47DOPE     P 5945   7.051   4.569   6.381  0.2354  0.3066 -0.1560
   47DOPE   O13 5946   7.102   4.707   6.368  0.2436  0.2659  0.3069
   47DOPE   O14 5947   7.055   4.482   6.263 -0.1584  0.3095 -0.2578
   47DOPE   O11 5948   7.124   4.496   6.502 -0.3646 -0.3281 -0.0580
   47DOPE   O12 5949   6.900   4.574   6.419  0.5097 -0.3590  0.6008
   47DOPE    C1 5950   7.163   4.564   6.624  0.5353  0.7601 -0.1029
   47DOPE    HA 5951   7.071   4.599   6.675 -0.2738  0.0811 -1.0549
   47DOPE    HB 5952   7.236   4.647   6.616  0.4999  0.8678  0.5974
   47DOPE    C2 5953   7.228   4.457   6.718  0.3226 -0.5103  0.0039
   47DOPE    HS 5954   7.282   4.386   6.652  0.5227  0.1738 -0.5838
   47DOPE   O21 5955   7.135   4.396   6.804 -0.0953 -0.4653  0.3851
   47DOPE   C21 5956   7.075   4.292   6.747  0.0517 -0.2473  0.3019
   47DOPE   O22 5957   7.106   4.233   6.648 -0.4371 -0.1082  0.6603
   47DOPE   C22 5958   6.959   4.255   6.838 -0.4260 -0.2284 -0.7585
   47DOPE   H2R 5959   6.877   4.231   6.766 -0.2574 -0.6643 -0.8071
   47DOPE   H2S 5960   6.926   4.332   6.911 -0.1745 -1.4058  0.6580
   47DOPE    C3 5961   7.344   4.522   6.807  0.1894 -0.9123  0.3953
   47DOPE    HX 5962   7.423   4.554   6.735 -1.5019 -1.7031 -1.9457
   47DOPE    HY 5963   7.380   4.437   6.869 -2.8167 -1.0738  2.0820
   47DOPE   O31 5964   7.296   4.634   6.889 -0.0050  0.1181 -0.1844
   47DOPE   C31 5965   7.385   4.683   6.975 -0.2288 -0.9939  0.1758
   47DOPE   O32 5966   7.498   4.636   6.996  0.1396  0.2700  0.2966
   47DOPE   C32 5967   7.331   4.806   7.052  0.8337 -0.6315  0.2900
   47DOPE   H2X 5968   7.327   4.879   6.968 -0.1114 -1.8712 -0.7891
   47DOPE   H2Y 5969   7.227   4.787   7.086  1.2324 -2.9421  0.3956
   47DOPE   C23 5970   6.984   4.135   6.929 -0.3671  1.0744  0.1188
   47DOPE   H3R 5971   7.046   4.059   6.878 -0.1780  0.2729  1.4795
   47DOPE   H3S 5972   6.887   4.083   6.945 -1.4507  2.8538 -0.3337
   47DOPE   C24 5973   7.055   4.165   7.062  1.1148 -0.9855 -0.0756
   47DOPE   H4R 5974   7.026   4.259   7.114 -0.5547 -1.4386 -0.1343
   47DOPE   H4S 5975   7.162   4.177   7.031  1.1202 -0.7494  0.0261
   47DOPE   C25 5976   7.052   4.054   7.164 -0.1819  0.5604  0.7152
   47DOPE   H5R 5977   7.084   3.960   7.115 -1.3098  0.3017  0.4459
   47DOPE   H5S 5978   6.951   4.041   7.208 -0.2594 -1.4882  0.0352
   47DOPE   C26 5979   7.165   4.081   7.266 -0.2397  0.3422  0.2915
   47DOPE   H6R 5980   7.141   4.164   7.335 -1.3325 -0.2348  0.6273
   47DOPE   H6S 5981   7.257   4.100   7.207  0.2849  0.8429  1.2480
   47DOPE   C27 5982   7.188   3.956   7.356 -0.2904  0.9605  0.2177
   47DOPE   H7R 5983   7.184   3.864   7.294 -1.0475  1.2129 -0.1190
   47DOPE   H7S 5984   7.095   3.953   7.417 -0.2357 -1.0294  0.2577
   47DOPE   C28 5985   7.315   3.968   7.434  0.2991  0.2517 -0.4101
   47DOPE   H8R 5986   7.327   4.078   7.449 -1.1040  0.6409 -1.8204
   47DOPE   H8S 5987   7.403   3.943   7.371  1.0588  1.9642 -0.0805
   47DOPE   C29 5988   7.314   3.879   7.555 -0.1125  0.1127 -0.4306
   47DOPE   H9R 5989   7.334   3.773   7.533  0.3523 -0.2439  1.5302
   47DOPE  C210 5990   7.300   3.908   7.680 -1.1044 -0.2339 -1.2358
   47DOPE  H10R 5991   7.311   3.823   7.749 -0.8568 -2.1835 -3.5505
   47DOPE  C211 5992   7.279   4.044   7.736 -0.2113 -0.2207 -0.1117
   47DOPE  H11R 5993   7.201   4.042   7.815 -0.9440  1.8778 -0.7081
   47DOPE  H11S 5994   7.249   4.124   7.664  0.3009  2.3047  2.2813
   47DOPE  C212 5995   7.401   4.096   7.809  0.0880  0.0662  0.8123
   47DOPE  H12R 5996   7.488   4.091   7.741 -1.0557 -1.7752 -0.6048
   47DOPE  H12S 5997   7.435   4.024   7.887 -0.3935 -1.8577 -0.6717
   47DOPE  C213 5998   7.386   4.242   7.854  0.1856 -0.0641 -0.2259
   47DOPE  H13R 5999   7.356   4.300   7.764 -0.0460  0.1093 -0.0384
   47DOPE  H13S 6000   7.479   4.291   7.891  2.4367 -3.6622 -0.6345
   47DOPE  C214 6001   7.279   4.262   7.972  0.1984  0.5403 -0.4608
   47DOPE  H14R 6002   7.284   4.175   8.041 -1.1695 -0.0095 -1.0227
   47DOPE  H14S 6003   7.181   4.261   7.921  0.2125 -1.4677 -0.5294
   47DOPE  C215 6004   7.288   4.394   8.054  0.0652 -0.0226  0.7142
   47DOPE  H15R 6005   7.267   4.478   7.985 -1.5715  0.3298  1.5718
   47DOPE  H15S 6006   7.387   4.393   8.103  0.1209  0.5650  0.6176
   47DOPE  C216 6007   7.175   4.419   8.153  0.1348 -0.0581  0.3577
   47DOPE  H16R 6008   7.084   4.440   8.093  0.7003 -0.7739 -0.7905
   47DOPE  H16S 6009   7.200   4.503   8.221  0.9848 -0.0526  0.0487
   47DOPE  C217 6010   7.159   4.298   8.247  0.0024 -0.2337 -0.1029
   47DOPE  H17R 6011   7.256   4.261   8.285  0.3619  0.4911 -0.2943
   47DOPE  H17S 6012   7.108   4.219   8.187  0.5697  0.0302 -0.9574
   47DOPE  C218 6013   7.071   4.314   8.375  0.4552  0.2541 -0.4072
   47DOPE  H18R 6014   7.135   4.365   8.451  1.1123  1.4300 -1.6991
   47DOPE  H18S 6015   7.021   4.222   8.411  0.1114  0.0923 -1.2780
   47DOPE  H18T 6016   6.981   4.371   8.344  0.0168 -1.1088 -1.7026
   47DOPE   C33 6017   7.416   4.858   7.171  0.2974  0.4233  0.4247
   47DOPE   H3X 6018   7.403   4.967   7.161  0.8573  0.3014 -2.7393
   47DOPE   H3Y 6019   7.524   4.840   7.152  0.2786 -0.2243  0.8922
   47DOPE   C34 6020   7.369   4.802   7.305  0.0851 -0.2587  0.1134
   47DOPE   H4X 6021   7.278   4.856   7.339 -0.7137 -1.2436 -0.4167
   47DOPE   H4Y 6022   7.351   4.693   7.301 -1.1330 -0.3547  3.7496
   47DOPE   C35 6023   7.475   4.816   7.421 -0.3838  0.1313 -0.4603
   47DOPE   H5X 6024   7.500   4.924   7.430  1.3150 -0.2735  0.0403
   47DOPE   H5Y 6025   7.563   4.754   7.392 -0.7087 -0.3539 -0.4350
   47DOPE   C36 6026   7.411   4.779   7.549  0.2226  0.2451 -0.3385
   47DOPE   H6X 6027   7.382   4.672   7.545 -0.7446  0.5051 -0.5790
   47DOPE   H6Y 6028   7.312   4.828   7.559 -1.2557 -2.2575 -1.8178
   47DOPE   C37 6029   7.497   4.800   7.675 -0.2350  0.6779 -0.0987
   47DOPE   H7X 6030   7.569   4.716   7.672 -0.9948  0.0274 -0.6625
   47DOPE   H7Y 6031   7.560   4.890   7.666  3.3085 -1.8381 -3.3652
   47DOPE   C38 6032   7.417   4.805   7.807  0.5407  0.1100  0.7791
   47DOPE   H8X 6033   7.352   4.715   7.803  0.5318  0.1489  0.0360
   47DOPE   H8Y 6034   7.350   4.893   7.797 -0.0353 -0.4451 -0.3544
   47DOPE   C39 6035   7.508   4.799   7.923 -0.1290 -0.2843  0.6242
   47DOPE   H9X 6036   7.573   4.713   7.907  0.1829  0.4424 -2.7373
   47DOPE  C310 6037   7.512   4.887   8.026  0.6077 -0.5586  0.1884
   47DOPE  H10X 6038   7.577   4.879   8.115  0.4846  0.2877  0.3592
   47DOPE  C311 6039   7.410   4.991   8.060 -0.3215 -0.3126 -0.0420
   47DOPE  H11X 6040   7.469   5.071   8.110  0.3248 -0.9114  0.1790
   47DOPE  H11Y 6041   7.373   5.031   7.963  0.0194  0.9500  0.3221
   47DOPE  C312 6042   7.303   4.933   8.149 -0.1471  0.1763  0.1528
   47DOPE  H12X 6043   7.250   4.847   8.103 -2.7766  1.2821  0.9402
   47DOPE  H12Y 6044   7.232   5.017   8.162  0.0310  0.1637  1.3263
   47DOPE  C313 6045   7.334   4.906   8.300  0.0569  0.5921  0.0856
   47DOPE  H13X 6046   7.399   4.816   8.297  0.4826  0.8813  0.5977
   47DOPE  H13Y 6047   7.387   4.999   8.329  0.4610  0.2993  0.2986
   47DOPE  C314 6048   7.202   4.883   8.370  0.0476 -0.4894  0.4391
   47DOPE  H14X 6049   7.138   4.806   8.322 -1.7759  0.2416  1.5407
   47DOPE  H14Y 6050   7.150   4.981   8.370  1.7425  0.4474  0.8573
   47DOPE  C315 6051   7.212   4.836   8.517  0.0717 -0.4220 -1.3325
   47DOPE  H15X 6052   7.113   4.859   8.563  1.2390  0.4593  0.8723
   47DOPE  H15Y 6053   7.288   4.898   8.568 -2.1290  0.4638  1.0845
   47DOPE  C316 6054   7.236   4.689   8.531  0.0217 -0.1247 -0.1142
   47DOPE  H16X 6055   7.328   4.669   8.473  0.6075  1.8031  0.0748
   47DOPE  H16Y 6056   7.157   4.630   8.479  0.7536  0.1680 -1.5954
   47DOPE  C317 6057   7.251   4.635   8.674 -0.3210  0.0054 -0.3735
   47DOPE  H17X 6058   7.353   4.657   8.713 -1.0642  1.8804  0.6206
   47DOPE  H17Y 6059   7.183   4.690   8.742  2.5896  2.4690  0.7608
   47DOPE  C318 6060   7.226   4.483   8.683  0.3907 -0.1286 -0.2477
   47DOPE  H18X 6061   7.117   4.469   8.668  0.5931 -0.3034 -1.6592
   47DOPE  H18Y 6062   7.272   4.439   8.592 -0.5495  1.9052 -1.8013
   47DOPE  H18Z 6063   7.272   4.448   8.778 -2.1739  0.2000  1.2134
   48DOPE     N 6064   5.403   0.383   6.036 -0.9472  0.6355  1.0071
   48DOPE   HN1 6065   5.432   0.365   5.938 -0.3571  0.9461  1.1221
   48DOPE   HN2 6066   5.372   0.288   6.066 -0.5494  0.2254  0.1479
   48DOPE   HN3 6067   5.334   0.460   6.045  0.5850  2.1647  0.0823
   48DOPE   C12 6068   5.526   0.424   6.119 -0.4041  0.0883 -0.4942
   48DOPE  H12A 6069   5.536   0.534   6.103 -0.3400  0.1454 -0.0649
   48DOPE  H12B 6070   5.608   0.368   6.071  0.4878 -2.0263  3.1587
   48DOPE   C11 6071   5.500   0.385   6.265 -0.7404 -0.9844  0.1754
   48DOPE  H11A 6072   5.432   0.461   6.311 -0.5716 -1.1724  0.7439
   48DOPE  H11B 6073   5.597   0.403   6.315  0.4191 -0.6474 -2.0629
   48DOPE     P 6074   5.431   0.172   6.405 -0.1458 -0.4282  0.2441
   48DOPE   O13 6075   5.424   0.024   6.380  0.3481 -0.4226  0.1276
   48DOPE   O14 6076   5.312   0.243   6.463 -0.1838  0.5238  0.5073
   48DOPE   O11 6077   5.566   0.207   6.484  0.2970 -0.5532  0.2671
   48DOPE   O12 6078   5.454   0.250   6.271 -0.2328 -0.1600  0.7269
   48DOPE    C1 6079   5.601   0.125   6.594 -0.2745  0.0320 -0.4995
   48DOPE    HA 6080   5.697   0.162   6.636  0.1365 -1.7164  0.1795
   48DOPE    HB 6081   5.619   0.020   6.561 -0.5076 -0.4931  0.9699
   48DOPE    C2 6082   5.509   0.131   6.724 -0.5240  0.5503  0.2867
   48DOPE    HS 6083   5.565   0.081   6.806 -0.4532  0.0163 -0.0889
   48DOPE   O21 6084   5.382   0.070   6.709 -0.5332  0.2513 -0.0354
   48DOPE   C21 6085   5.385  -0.059   6.724 -0.3700  0.0680 -0.2420
   48DOPE   O22 6086   5.482  -0.123   6.760  0.5092 -0.0335 -0.8162
   48DOPE   C22 6087   5.251  -0.126   6.694  0.0773  0.2313  0.5655
   48DOPE   H2R 6088   5.274  -0.201   6.615  0.1094  0.3777  0.4371
   48DOPE   H2S 6089   5.169  -0.059   6.661 -0.3107 -0.7041 -0.4152
   48DOPE    C3 6090   5.484   0.273   6.772 -0.2303  0.1083  0.0860
   48DOPE    HX 6091   5.425   0.333   6.700 -1.0453 -1.5959 -0.7245
   48DOPE    HY 6092   5.584   0.320   6.762 -0.6064  0.6012 -1.6746
   48DOPE   O31 6093   5.430   0.274   6.903  0.1811 -0.0175 -0.5737
   48DOPE   C31 6094   5.296   0.292   6.919 -0.0786 -0.8279  0.1415
   48DOPE   O32 6095   5.222   0.322   6.826  1.1379  0.0982 -0.4707
   48DOPE   C32 6096   5.262   0.263   7.061 -0.1372  0.4190  0.2630
   48DOPE   H2X 6097   5.231   0.157   7.055  1.4668 -0.1003  0.8628
   48DOPE   H2Y 6098   5.348   0.279   7.129 -0.6927 -1.3399  1.4155
   48DOPE   C23 6099   5.216  -0.216   6.817  0.5822  0.1951 -0.4653
   48DOPE   H3R 6100   5.296  -0.289   6.842 -1.6069 -1.7253  1.3313
   48DOPE   H3S 6101   5.140  -0.287   6.779 -0.3987 -0.0136  1.7402
   48DOPE   C24 6102   5.163  -0.136   6.942  0.7062  0.3065 -0.0007
   48DOPE   H4R 6103   5.248  -0.082   6.989 -0.9820  0.2972  3.3952
   48DOPE   H4S 6104   5.138  -0.200   7.029 -0.7874  2.8589  1.5448
   48DOPE   C25 6105   5.039  -0.050   6.905  0.2587 -0.4398 -0.5445
   48DOPE   H5R 6106   4.975  -0.110   6.837 -2.0609 -1.6404  2.4692
   48DOPE   H5S 6107   5.068   0.041   6.849  2.1974 -1.9161 -2.0727
   48DOPE   C26 6108   4.964  -0.012   7.030 -0.1994  0.1226 -0.5659
   48DOPE   H6R 6109   5.041   0.043   7.088  0.7593 -2.7006  1.0898
   48DOPE   H6S 6110   4.940  -0.098   7.097 -1.7085  1.8686  1.2772
   48DOPE   C27 6111   4.837   0.075   7.010 -0.1240  0.7153  0.5034
   48DOPE   H7R 6112   4.767   0.020   6.945 -0.3369  1.9839 -0.3798
   48DOPE   H7S 6113   4.866   0.173   6.967 -0.2536  1.0787  1.2173
   48DOPE   C28 6114   4.762   0.104   7.144 -0.7192  0.3142 -0.0782
   48DOPE   H8R 6115   4.697   0.192   7.127  0.8086  1.7123  1.0221
   48DOPE   H8S 6116   4.850   0.138   7.204  0.4962 -2.2829 -0.2163
   48DOPE   C29 6117   4.692  -0.018   7.199  0.6998  0.3024  0.7011
   48DOPE   H9R 6118   4.663  -0.093   7.124  2.6281  1.7899 -1.7341
   48DOPE  C210 6119   4.687  -0.053   7.328 -0.2031  0.5221  0.0053
   48DOPE  H10R 6120   4.674  -0.162   7.344 -0.2233  0.3765 -0.9781
   48DOPE  C211 6121   4.763   0.019   7.433 -1.0675 -0.5326 -0.6230
   48DOPE  H11R 6122   4.710   0.114   7.455  0.3761 -0.0117  0.8030
   48DOPE  H11S 6123   4.868   0.033   7.400 -0.7497 -0.9983  0.1711
   48DOPE  C212 6124   4.754  -0.053   7.570  0.2065  0.5995 -0.3407
   48DOPE  H12R 6125   4.845  -0.115   7.583  0.7078  1.3931  0.0224
   48DOPE  H12S 6126   4.669  -0.125   7.573 -0.7601  1.6908 -0.6961
   48DOPE  C213 6127   4.744   0.040   7.696 -1.2785  0.5342  0.2196
   48DOPE  H13R 6128   4.652   0.102   7.693 -1.1465  0.9240  2.4724
   48DOPE  H13S 6129   4.836   0.100   7.705  0.2239 -1.7307  0.9580
   48DOPE  C214 6130   4.756  -0.054   7.821  0.0541  0.2676 -0.4936
   48DOPE  H14R 6131   4.862  -0.090   7.822  0.1505  0.5555  0.0205
   48DOPE  H14S 6132   4.692  -0.144   7.808  1.5820 -1.0096  0.3228
   48DOPE  C215 6133   4.716   0.026   7.947  0.0549  0.9212 -0.0036
   48DOPE  H15R 6134   4.617   0.076   7.942 -0.8598 -0.5471  1.8731
   48DOPE  H15S 6135   4.794   0.096   7.984  1.0774 -0.3439  0.3178
   48DOPE  C216 6136   4.712  -0.073   8.069  0.2544 -0.3114  0.3431
   48DOPE  H16R 6137   4.815  -0.107   8.093  1.2642  1.3957 -1.3495
   48DOPE  H16S 6138   4.658  -0.163   8.031  0.5603 -0.5612  0.4951
   48DOPE  C217 6139   4.639  -0.022   8.189 -0.5742  0.1817  0.0126
   48DOPE  H17R 6140   4.538   0.007   8.153 -1.6650 -0.7022  2.2110
   48DOPE  H17S 6141   4.690   0.072   8.218  0.0133 -0.2886  0.5590
   48DOPE  C218 6142   4.630  -0.116   8.312  0.2269  0.6476 -0.2341
   48DOPE  H18R 6143   4.736  -0.128   8.344 -0.3382 -0.7101  1.2703
   48DOPE  H18S 6144   4.589  -0.217   8.292 -0.5418  0.7825  0.6323
   48DOPE  H18T 6145   4.579  -0.060   8.393 -0.0395 -0.7066  0.5727
   48DOPE   C33 6146   5.140   0.341   7.109 -0.2057 -0.6752 -0.0011
   48DOPE   H3X 6147   5.051   0.326   7.045  0.7941  0.4878 -1.7609
   48DOPE   H3Y 6148   5.168   0.448   7.099 -0.1612 -0.5167  1.6158
   48DOPE   C34 6149   5.091   0.306   7.249  0.3081 -0.3531  0.0928
   48DOPE   H4X 6150   4.983   0.332   7.254  0.7074  1.6733 -0.7045
   48DOPE   H4Y 6151   5.100   0.197   7.262  1.0488 -0.2137  0.8481
   48DOPE   C35 6152   5.170   0.377   7.365 -0.5841 -0.0889  0.4398
   48DOPE   H5X 6153   5.157   0.487   7.368 -3.9029 -0.3577 -0.3511
   48DOPE   H5Y 6154   5.279   0.358   7.361 -0.2377  1.8815 -0.9753
   48DOPE   C36 6155   5.126   0.334   7.502 -0.0242  0.4654  0.0956
   48DOPE   H6X 6156   5.142   0.224   7.511  0.0432  0.2963 -1.7559
   48DOPE   H6Y 6157   5.018   0.350   7.519 -0.1086 -0.5523  0.6286
   48DOPE   C37 6158   5.194   0.403   7.616  0.5076  0.2114  0.0734
   48DOPE   H7X 6159   5.303   0.402   7.592  0.4698 -2.7529 -0.3533
   48DOPE   H7Y 6160   5.161   0.509   7.621  0.3515  0.1251  1.3510
   48DOPE   C38 6161   5.142   0.343   7.752  0.5835 -0.7105 -0.1089
   48DOPE   H8X 6162   5.158   0.233   7.758 -0.5400 -0.8984 -0.4202
   48DOPE   H8Y 6163   5.034   0.352   7.777  0.4826 -1.3067 -0.3066
   48DOPE   C39 6164   5.223   0.409   7.856  0.3310  0.4014  0.5972
   48DOPE   H9X 6165   5.160   0.489   7.898 -0.8784  0.7747 -1.7359
   48DOPE  C310 6166   5.350   0.390   7.896 -0.4753  0.3566  0.8417
   48DOPE  H10X 6167   5.375   0.458   7.979 -0.0631  1.3761 -0.0916
   48DOPE  C311 6168   5.447   0.292   7.838 -0.0090  0.2947  0.2532
   48DOPE  H11X 6169   5.479   0.228   7.923 -0.8400 -0.9339 -0.3247
   48DOPE  H11Y 6170   5.410   0.226   7.757 -1.8465  1.8857 -0.2749
   48DOPE  C312 6171   5.569   0.364   7.774 -0.2325 -0.2798 -0.0501
   48DOPE  H12X 6172   5.619   0.426   7.852  0.6364  0.5357 -1.2293
   48DOPE  H12Y 6173   5.545   0.432   7.690  2.2265 -1.5950 -1.9331
   48DOPE  C313 6174   5.682   0.273   7.718 -0.0387 -0.8992 -0.4621
   48DOPE  H13X 6175   5.655   0.215   7.627  1.6104  1.7894 -2.8092
   48DOPE  H13Y 6176   5.756   0.347   7.681 -2.2520  1.3055 -0.6705
   48DOPE  C314 6177   5.748   0.196   7.835  0.1374 -0.7060  0.1490
   48DOPE  H14X 6178   5.677   0.118   7.869  0.7461 -1.1669  0.3756
   48DOPE  H14Y 6179   5.774   0.270   7.914  0.2503  0.3185 -0.8265
   48DOPE  C315 6180   5.873   0.129   7.784 -0.6246 -0.6485 -0.3289
   48DOPE  H15X 6181   5.858   0.057   7.701 -3.1072  1.1391 -1.5651
   48DOPE  H15Y 6182   5.909   0.065   7.867  0.6397  1.1321  0.5637
   48DOPE  C316 6183   5.996   0.220   7.757 -0.2132  0.6446 -0.4301
   48DOPE  H16X 6184   6.023   0.277   7.848 -1.8121 -0.1700  0.6141
   48DOPE  H16Y 6185   5.962   0.297   7.685  0.6593  2.3092  0.8879
   48DOPE  C317 6186   6.110   0.150   7.685 -0.9751  0.8693 -1.2487
   48DOPE  H17X 6187   6.074   0.090   7.600  0.4453 -0.7533 -0.7624
   48DOPE  H17Y 6188   6.176   0.222   7.631 -0.3602  0.1971 -1.4070
   48DOPE  C318 6189   6.203   0.060   7.775  0.1065 -0.5680  0.1118
   48DOPE  H18X 6190   6.262   0.129   7.839  3.9730 -0.4517 -3.1816
   48DOPE  H18Y 6191   6.145  -0.012   7.837  1.1391 -2.1415 -0.7037
   48DOPE  H18Z 6192   6.277   0.006   7.713  1.4089  1.9085 -0.6429
   49DOPE     N 6193   0.947   4.174   6.286  0.2215  0.0398  0.0781
   49DOPE   HN1 6194   1.040   4.198   6.323  0.9461 -1.5532 -0.5954
   49DOPE   HN2 6195   0.960   4.085   6.234  0.1800  0.8008 -1.2860
   49DOPE   HN3 6196   0.911   4.248   6.222  0.6152  0.5164  0.4052
   49DOPE   C12 6197   0.837   4.130   6.381  0.0002  0.0558 -0.0596
   49DOPE  H12A 6198   0.816   4.223   6.439  1.5056 -0.6021  1.6184
   49DOPE  H12B 6199   0.878   4.052   6.448  0.2643  0.3114  0.0743
   49DOPE   C11 6200   0.716   4.089   6.304  0.5771 -0.2858 -0.0666
   49DOPE  H11A 6201   0.680   4.168   6.234 -1.4673 -1.6611 -0.6828
   49DOPE  H11B 6202   0.636   4.071   6.378  1.6959 -2.5937  0.6558
   49DOPE     P 6203   0.701   3.827   6.262  0.5554  0.2022 -0.1721
   49DOPE   O13 6204   0.804   3.741   6.201 -0.3051 -0.0023 -0.3865
   49DOPE   O14 6205   0.561   3.809   6.216 -0.3133 -0.1507 -0.6104
   49DOPE   O11 6206   0.718   3.837   6.421  0.0364 -0.4483  0.0493
   49DOPE   O12 6207   0.746   3.976   6.227  0.3510  0.0444 -0.0889
   49DOPE    C1 6208   0.831   3.791   6.495  0.3861  0.3866  0.2830
   49DOPE    HA 6209   0.875   3.870   6.560 -1.3364  0.1447  1.7886
   49DOPE    HB 6210   0.913   3.755   6.429 -0.2386  0.5368 -0.5916
   49DOPE    C2 6211   0.776   3.675   6.573  0.1812  0.1132 -0.0258
   49DOPE    HS 6212   0.711   3.619   6.501  0.3458  0.3387 -0.3555
   49DOPE   O21 6213   0.697   3.732   6.685 -0.5821  0.3274 -0.3340
   49DOPE   C21 6214   0.620   3.641   6.736  0.1990  0.0138  0.4690
   49DOPE   O22 6215   0.591   3.533   6.678  0.2965 -0.8499 -0.3522
   49DOPE   C22 6216   0.570   3.699   6.868  0.0619  0.2377  0.1491
   49DOPE   H2R 6217   0.477   3.750   6.837  0.5554 -0.0012 -1.8540
   49DOPE   H2S 6218   0.643   3.772   6.909  0.6575  0.8265 -1.8582
   49DOPE    C3 6219   0.896   3.597   6.629  0.3419 -0.2614 -0.2449
   49DOPE    HX 6220   0.958   3.680   6.669  1.2709 -1.2690  0.4377
   49DOPE    HY 6221   0.964   3.558   6.551  2.3025  1.2711  0.6324
   49DOPE   O31 6222   0.867   3.497   6.729 -0.2894  0.2041 -0.7856
   49DOPE   C31 6223   0.852   3.372   6.687  0.2230  0.2041  0.2326
   49DOPE   O32 6224   0.843   3.331   6.571 -0.0565  0.1021  0.5575
   49DOPE   C32 6225   0.828   3.279   6.809  0.7675  0.4913 -0.2866
   49DOPE   H2X 6226   0.927   3.269   6.859  0.2868 -0.8118  0.4696
   49DOPE   H2Y 6227   0.744   3.318   6.871  0.5734  0.3500 -0.4611
   49DOPE   C23 6228   0.555   3.587   6.971  0.2483  0.1908 -0.1899
   49DOPE   H3R 6229   0.641   3.590   7.041 -0.4599  1.0103  0.6822
   49DOPE   H3S 6230   0.556   3.483   6.931 -2.6805  0.3294 -0.8426
   49DOPE   C24 6231   0.424   3.612   7.045  0.0196  0.0325 -0.1981
   49DOPE   H4R 6232   0.336   3.597   6.979  0.6119  1.3642 -1.3530
   49DOPE   H4S 6233   0.424   3.713   7.090  0.0213 -0.6007  1.2634
   49DOPE   C25 6234   0.411   3.499   7.152  0.2038  0.2175 -0.0120
   49DOPE   H5R 6235   0.508   3.485   7.203 -0.0297  0.3600  0.4811
   49DOPE   H5S 6236   0.383   3.404   7.102 -1.1448 -0.1269  1.3162
   49DOPE   C26 6237   0.299   3.528   7.260  0.2984 -0.8269 -1.4361
   49DOPE   H6R 6238   0.204   3.544   7.206  0.1239  2.7976 -0.3188
   49DOPE   H6S 6239   0.322   3.620   7.317 -1.0559 -0.3226 -1.6665
   49DOPE   C27 6240   0.273   3.406   7.352 -0.0736  0.0728  0.4352
   49DOPE   H7R 6241   0.261   3.314   7.291 -2.0742 -0.9377  2.2281
   49DOPE   H7S 6242   0.174   3.407   7.402 -0.7830 -0.3733 -0.8903
   49DOPE   C28 6243   0.379   3.390   7.468 -0.3472  0.4285  0.4948
   49DOPE   H8R 6244   0.379   3.488   7.520 -2.6280  0.8116 -0.1443
   49DOPE   H8S 6245   0.476   3.368   7.418 -0.6762  1.8603 -0.8263
   49DOPE   C29 6246   0.339   3.276   7.559  0.2116 -0.5264 -0.1183
   49DOPE   H9R 6247   0.335   3.177   7.511  1.2856  0.1581 -1.6911
   49DOPE  C210 6248   0.314   3.290   7.690 -0.3465 -1.1851  0.0459
   49DOPE  H10R 6249   0.281   3.205   7.752 -1.9523 -0.4423  0.2774
   49DOPE  C211 6250   0.338   3.419   7.759  0.1354 -0.1764 -0.1910
   49DOPE  H11R 6251   0.294   3.414   7.861  0.4202 -0.1932 -0.0675
   49DOPE  H11S 6252   0.280   3.506   7.720  0.4785  0.7688  1.2945
   49DOPE  C212 6253   0.485   3.447   7.783 -0.8197  0.0726  0.0037
   49DOPE  H12R 6254   0.551   3.396   7.709 -0.5596 -2.5135  1.8626
   49DOPE  H12S 6255   0.505   3.390   7.877 -1.4635 -0.6844 -0.3111
   49DOPE  C213 6256   0.532   3.592   7.801  0.7191  0.8671 -0.3120
   49DOPE  H13R 6257   0.628   3.581   7.857 -0.9010 -0.8988  2.3371
   49DOPE  H13S 6258   0.464   3.655   7.862  0.5886  1.0594 -0.6565
   49DOPE  C214 6259   0.546   3.666   7.668 -0.9203  0.3551 -0.4855
   49DOPE  H14R 6260   0.572   3.773   7.688  0.7465 -0.0282 -0.4752
   49DOPE  H14S 6261   0.446   3.666   7.620 -0.3522 -0.3343 -1.6937
   49DOPE  C215 6262   0.650   3.613   7.558 -0.2745 -0.5609 -0.5879
   49DOPE  H15R 6263   0.654   3.691   7.479  1.6691  1.1621  1.0857
   49DOPE  H15S 6264   0.617   3.515   7.517 -0.2104 -1.0575  0.5028
   49DOPE  C216 6265   0.791   3.605   7.609  0.6865  0.7357  0.2590
   49DOPE  H16R 6266   0.810   3.506   7.655 -1.0325 -0.7544 -2.0152
   49DOPE  H16S 6267   0.803   3.689   7.681 -0.8840 -0.4359  1.9780
   49DOPE  C217 6268   0.896   3.620   7.500  0.5416 -0.7755  0.4098
   49DOPE  H17R 6269   0.864   3.696   7.426 -0.7511  0.0041  1.7062
   49DOPE  H17S 6270   0.903   3.526   7.441  0.7046 -0.3106 -0.3174
   49DOPE  C218 6271   1.027   3.668   7.568 -0.3366  0.1939  0.2761
   49DOPE  H18R 6272   0.998   3.753   7.632  2.1803  1.5574 -0.2675
   49DOPE  H18S 6273   1.106   3.705   7.499 -0.4277  0.5860  0.3844
   49DOPE  H18T 6274   1.067   3.586   7.631 -1.0362 -0.9181 -0.6788
   49DOPE   C33 6275   0.784   3.145   6.767 -0.0850 -0.2143  0.1411
   49DOPE   H3X 6276   0.705   3.154   6.689  0.8006 -1.1980 -0.8975
   49DOPE   H3Y 6277   0.747   3.091   6.857  0.4911  0.3021  0.6935
   49DOPE   C34 6278   0.896   3.059   6.712 -0.0989  0.5941  1.2961
   49DOPE   H4X 6279   0.858   2.955   6.702 -0.6848  0.9014  0.1965
   49DOPE   H4Y 6280   0.915   3.089   6.607 -0.0491 -1.4430  0.6709
   49DOPE   C35 6281   1.041   3.057   6.782  0.6355 -1.1674  1.5272
   49DOPE   H5X 6282   1.017   3.048   6.890 -0.8993 -0.9143  1.2281
   49DOPE   H5Y 6283   1.097   3.152   6.773  0.0618 -0.9441  0.2493
   49DOPE   C36 6284   1.142   2.950   6.733  0.2164 -0.0414 -0.2037
   49DOPE   H6X 6285   1.115   2.936   6.625 -1.2142 -0.3798  0.1697
   49DOPE   H6Y 6286   1.116   2.860   6.793  1.0462  1.3942  2.4269
   49DOPE   C37 6287   1.287   2.985   6.758  0.2965 -0.1064 -0.5005
   49DOPE   H7X 6288   1.359   2.923   6.701  3.5728  1.2429  1.8473
   49DOPE   H7Y 6289   1.305   3.089   6.725 -0.7947 -0.1023 -1.1584
   49DOPE   C38 6290   1.321   2.971   6.910  1.1703  0.2824 -0.2181
   49DOPE   H8X 6291   1.325   2.868   6.950 -3.2962  0.6536  1.7969
   49DOPE   H8Y 6292   1.234   3.014   6.964  1.2671  3.8090 -2.5301
   49DOPE   C39 6293   1.452   3.047   6.940 -0.5619  0.0638  0.6324
   49DOPE   H9X 6294   1.468   3.148   6.899  4.8064  0.3053  2.5500
   49DOPE  C310 6295   1.566   2.990   6.985  0.1318 -0.1183  0.3563
   49DOPE  H10X 6296   1.645   3.065   6.995 -0.1700  0.1279  0.9742
   49DOPE  C311 6297   1.582   2.843   7.026 -0.7307  0.0997 -0.3660
   49DOPE  H11X 6298   1.487   2.803   7.069 -0.7181  1.8596  1.4763
   49DOPE  H11Y 6299   1.619   2.781   6.942 -1.5271 -2.0264  0.7614
   49DOPE  C312 6300   1.691   2.819   7.132 -0.0783  0.0333 -0.1361
   49DOPE  H12X 6301   1.796   2.829   7.096 -0.1574 -1.6703 -0.9036
   49DOPE  H12Y 6302   1.682   2.714   7.165 -0.8088  0.1204 -0.0455
   49DOPE  C313 6303   1.675   2.903   7.259 -0.0355 -0.3110 -0.2584
   49DOPE  H13X 6304   1.747   2.876   7.338  1.6542  1.3459 -1.1580
   49DOPE  H13Y 6305   1.690   3.008   7.228  0.4069 -0.4915 -0.6597
   49DOPE  C314 6306   1.532   2.911   7.324 -0.1083 -0.3132  0.3154
   49DOPE  H14X 6307   1.481   2.818   7.291 -0.0857 -0.2067 -0.0227
   49DOPE  H14Y 6308   1.484   2.996   7.270  1.4112  1.1603  1.1837
   49DOPE  C315 6309   1.525   2.917   7.476 -0.0621  0.7351 -0.2506
   49DOPE  H15X 6310   1.560   2.820   7.519 -1.7053 -0.9361 -2.4123
   49DOPE  H15Y 6311   1.418   2.920   7.503  0.2155 -0.5776  1.1379
   49DOPE  C316 6312   1.585   3.040   7.535 -0.2585  0.1741 -0.4727
   49DOPE  H16X 6313   1.543   3.127   7.480 -1.5439  0.7256  1.2968
   49DOPE  H16Y 6314   1.693   3.030   7.514 -0.4050  0.0891 -1.2200
   49DOPE  C317 6315   1.537   3.071   7.684  0.4860 -0.6702  0.7384
   49DOPE  H17X 6316   1.584   3.168   7.713 -0.1419  0.0608 -0.5920
   49DOPE  H17Y 6317   1.429   3.094   7.671  1.0562  1.5448 -0.5441
   49DOPE  C318 6318   1.560   2.961   7.786  0.0907  0.2211 -0.4014
   49DOPE  H18X 6319   1.669   2.961   7.810  0.6800  1.9024 -2.7006
   49DOPE  H18Y 6320   1.512   2.980   7.884 -0.3565 -0.8050 -0.4181
   49DOPE  H18Z 6321   1.525   2.860   7.758 -0.8387 -0.0006  1.4219
   50DOPE     N 6322   6.329   3.464   6.402  0.5591  0.0544 -0.0154
   50DOPE   HN1 6323   6.371   3.537   6.341  0.9203 -0.8102 -0.8287
   50DOPE   HN2 6324   6.402   3.431   6.468 -0.2076  0.0639  0.8610
   50DOPE   HN3 6325   6.297   3.387   6.340  2.7203 -1.9815  1.2430
   50DOPE   C12 6326   6.208   3.509   6.475  0.7526  0.7759  0.2762
   50DOPE  H12A 6327   6.151   3.567   6.399  0.8331 -0.1708 -0.5260
   50DOPE  H12B 6328   6.240   3.583   6.552  2.2085 -0.0557  0.5114
   50DOPE   C11 6329   6.124   3.393   6.531 -0.3650  0.2015  0.5233
   50DOPE  H11A 6330   6.038   3.436   6.587 -0.4481 -0.0224  0.5691
   50DOPE  H11B 6331   6.192   3.346   6.606  0.9552  2.4705  0.8375
   50DOPE     P 6332   5.977   3.329   6.312 -0.7518  0.1313 -0.3352
   50DOPE   O13 6333   5.905   3.206   6.282  0.0550 -0.4332  0.7709
   50DOPE   O14 6334   6.044   3.395   6.199  0.0201  0.6768  0.5111
   50DOPE   O11 6335   5.875   3.427   6.375 -0.9632  0.4835 -0.5696
   50DOPE   O12 6336   6.084   3.304   6.425 -0.0220 -0.3441  0.2764
   50DOPE    C1 6337   5.746   3.390   6.418 -0.2009  0.1443  0.3281
   50DOPE    HA 6338   5.711   3.298   6.367  2.1770  0.8478 -2.9113
   50DOPE    HB 6339   5.667   3.461   6.387 -0.2799 -0.2428 -0.3659
   50DOPE    C2 6340   5.736   3.363   6.576 -0.0632  0.7734  0.5144
   50DOPE    HS 6341   5.629   3.367   6.603 -0.5253 -4.9132  0.7666
   50DOPE   O21 6342   5.818   3.449   6.654 -0.4139  0.2717 -0.2115
   50DOPE   C21 6343   5.770   3.572   6.670  0.1339 -1.1423 -0.0400
   50DOPE   O22 6344   5.664   3.615   6.627  0.3343  0.1689  0.5306
   50DOPE   C22 6345   5.868   3.653   6.756  0.8661 -0.2673  0.5969
   50DOPE   H2R 6346   5.968   3.648   6.708 -0.0234  0.6728 -1.4825
   50DOPE   H2S 6347   5.869   3.602   6.855  3.6727  0.2363  0.8938
   50DOPE    C3 6348   5.778   3.217   6.614  0.5198  0.2521 -0.1969
   50DOPE    HX 6349   5.886   3.195   6.611  0.0963 -2.0175 -0.7501
   50DOPE    HY 6350   5.714   3.160   6.542  0.0068  1.2736 -0.5645
   50DOPE   O31 6351   5.735   3.188   6.751  0.5066  0.6712  0.8028
   50DOPE   C31 6352   5.780   3.059   6.791  0.5291  0.2828 -0.6871
   50DOPE   O32 6353   5.838   2.984   6.713  0.4133 -0.0455 -0.0580
   50DOPE   C32 6354   5.753   3.031   6.938 -0.1866  0.0324  0.8256
   50DOPE   H2X 6355   5.661   3.083   6.973 -2.0881 -1.8238 -1.0940
   50DOPE   H2Y 6356   5.733   2.922   6.942 -0.3104  0.0026 -0.1750
   50DOPE   C23 6357   5.825   3.804   6.758  0.0726  0.3671 -0.4032
   50DOPE   H3R 6358   5.715   3.818   6.752  0.1191  0.4027 -1.2367
   50DOPE   H3S 6359   5.872   3.858   6.673 -1.8394 -0.9110 -2.3696
   50DOPE   C24 6360   5.865   3.861   6.897  0.1346 -0.3225 -0.0029
   50DOPE   H4R 6361   5.816   3.806   6.980 -0.7487  0.9448  0.3378
   50DOPE   H4S 6362   5.827   3.965   6.904 -0.2681 -0.5414  1.5070
   50DOPE   C25 6363   6.017   3.850   6.926  0.5152 -0.3604 -0.2607
   50DOPE   H5R 6364   6.051   3.902   6.834 -1.0471 -2.0940 -1.8858
   50DOPE   H5S 6365   6.051   3.744   6.928  1.0998 -0.3132 -3.2159
   50DOPE   C26 6366   6.070   3.919   7.046  0.0563  0.4767 -0.3201
   50DOPE   H6R 6367   6.045   4.028   7.046  1.3558  0.7948  0.1777
   50DOPE   H6S 6368   6.181   3.911   7.043  0.1107  0.8284  0.4983
   50DOPE   C27 6369   6.037   3.871   7.193  0.0855 -0.4247  0.8969
   50DOPE   H7R 6370   6.080   3.769   7.199  2.8760  0.7369  2.0738
   50DOPE   H7S 6371   5.927   3.881   7.205  0.0348  0.1137  0.0069
   50DOPE   C28 6372   6.104   3.961   7.301  0.4958 -0.1571 -0.0939
   50DOPE   H8R 6373   6.054   3.935   7.397 -0.7958  0.8766 -0.4606
   50DOPE   H8S 6374   6.073   4.066   7.281  2.8706  0.0703 -3.3277
   50DOPE   C29 6375   6.253   3.963   7.318  0.3086 -0.0296  0.4161
   50DOPE   H9R 6376   6.305   4.031   7.249  0.3305 -0.2822  0.1822
   50DOPE  C210 6377   6.334   3.904   7.414 -0.4804  0.3588 -0.0266
   50DOPE  H10R 6378   6.442   3.923   7.409 -0.0431 -1.6808  0.7144
   50DOPE  C211 6379   6.295   3.817   7.529  0.1783  0.1260  0.0497
   50DOPE  H11R 6380   6.319   3.713   7.497  0.1346  0.6367 -1.7783
   50DOPE  H11S 6381   6.194   3.831   7.573 -0.3149 -1.9416 -0.3006
   50DOPE  C212 6382   6.387   3.832   7.649  0.2048 -0.5099  0.2998
   50DOPE  H12R 6383   6.492   3.803   7.627  0.5838  0.2906  1.0254
   50DOPE  H12S 6384   6.364   3.755   7.726  0.0510 -0.2515  0.5142
   50DOPE  C213 6385   6.387   3.978   7.710  0.5469  0.1391  0.4204
   50DOPE  H13R 6386   6.286   4.021   7.728  0.2026 -0.7493  0.6650
   50DOPE  H13S 6387   6.433   4.050   7.639  1.6563  0.8036  1.7856
   50DOPE  C214 6388   6.450   3.989   7.850 -0.4500 -0.2213 -0.2492
   50DOPE  H14R 6389   6.459   4.094   7.886  1.8186  0.7340 -3.1744
   50DOPE  H14S 6390   6.553   3.947   7.846  0.5448  2.1592 -1.4484
   50DOPE  C215 6391   6.361   3.929   7.963  0.3155 -0.0146  0.1564
   50DOPE  H15R 6392   6.324   3.826   7.945 -0.2139  0.2753 -0.4832
   50DOPE  H15S 6393   6.278   4.001   7.982 -0.3745 -0.0626 -2.3028
   50DOPE  C216 6394   6.443   3.919   8.100 -0.0932  0.1908  0.1340
   50DOPE  H16R 6395   6.528   3.849   8.084 -1.2477 -0.7259 -2.4298
   50DOPE  H16S 6396   6.370   3.877   8.173  0.4595 -0.1177  0.5148
   50DOPE  C217 6397   6.488   4.055   8.146  0.1925  0.0341 -0.2529
   50DOPE  H17R 6398   6.399   4.120   8.162  0.9633  0.9064  0.5659
   50DOPE  H17S 6399   6.553   4.103   8.070 -0.2434 -0.1846 -0.7756
   50DOPE  C218 6400   6.566   4.060   8.280 -0.2309  0.1033  0.7769
   50DOPE  H18R 6401   6.516   3.993   8.353 -1.8173 -0.6178 -0.8964
   50DOPE  H18S 6402   6.589   4.156   8.331  0.5153 -0.5398  1.6667
   50DOPE  H18T 6403   6.661   4.010   8.254 -1.1689 -0.7914 -1.1784
   50DOPE   C33 6404   5.873   3.059   7.031 -0.8649 -0.0302 -0.2069
   50DOPE   H3X 6405   5.909   3.161   7.006  0.1188  0.3394  2.3732
   50DOPE   H3Y 6406   5.959   2.991   7.011  0.1476  0.3382  2.5246
   50DOPE   C34 6407   5.830   3.037   7.181 -0.4742  0.5131 -0.3622
   50DOPE   H4X 6408   5.768   3.125   7.209 -0.2192  1.5550 -2.7714
   50DOPE   H4Y 6409   5.767   2.945   7.184 -2.0457  1.5674  0.0350
   50DOPE   C35 6410   5.952   3.008   7.265 -0.0065 -0.3103  0.5534
   50DOPE   H5X 6411   6.029   3.085   7.244 -1.2642  0.4481 -1.6099
   50DOPE   H5Y 6412   5.994   2.912   7.229 -1.6435  0.3131 -3.5044
   50DOPE   C36 6413   5.927   2.994   7.416  0.0628  0.8347 -0.7354
   50DOPE   H6X 6414   6.025   2.988   7.469  0.9343 -2.2747 -2.4265
   50DOPE   H6Y 6415   5.877   2.898   7.439  0.9031  0.3180 -1.0078
   50DOPE   C37 6416   5.847   3.109   7.468  0.7567 -0.9665 -0.0521
   50DOPE   H7X 6417   5.908   3.198   7.441  1.5459 -1.2522  0.7480
   50DOPE   H7Y 6418   5.741   3.116   7.433  0.7698  2.1317  0.2649
   50DOPE   C38 6419   5.844   3.090   7.624  0.0754  0.2311  0.1049
   50DOPE   H8X 6420   5.948   3.071   7.658 -0.4460  1.0285  2.3280
   50DOPE   H8Y 6421   5.791   2.996   7.653 -0.5829  0.3149 -0.7833
   50DOPE   C39 6422   5.786   3.204   7.701 -0.6311 -0.4736  0.7151
   50DOPE   H9X 6423   5.676   3.209   7.698 -0.7174  0.2591 -4.5704
   50DOPE  C310 6424   5.851   3.301   7.762  0.1998  0.0086 -0.6612
   50DOPE  H10X 6425   5.790   3.371   7.821 -0.9008 -0.6642 -0.9718
   50DOPE  C311 6426   5.996   3.322   7.763 -0.5430 -0.7137 -0.1445
   50DOPE  H11X 6427   6.022   3.302   7.869 -2.3850 -2.8988 -0.0408
   50DOPE  H11Y 6428   6.052   3.249   7.700 -0.4687 -1.1771  0.4516
   50DOPE  C312 6429   6.024   3.475   7.723 -0.0764  0.4351 -0.1525
   50DOPE  H12X 6430   5.979   3.537   7.803  0.6321 -1.0168  1.4430
   50DOPE  H12Y 6431   5.961   3.499   7.635 -2.0690 -0.3567  0.9881
   50DOPE  C313 6432   6.168   3.517   7.707 -0.1930 -0.4901  0.3358
   50DOPE  H13X 6433   6.210   3.429   7.654 -0.3922 -0.2738 -0.1823
   50DOPE  H13Y 6434   6.171   3.604   7.638  0.7957 -1.9469 -1.5485
   50DOPE  C314 6435   6.237   3.547   7.838  0.2484  0.5234 -0.0951
   50DOPE  H14X 6436   6.185   3.510   7.929  0.1760 -0.5139 -0.5443
   50DOPE  H14Y 6437   6.231   3.657   7.849 -0.6526  0.4058  0.6507
   50DOPE  C315 6438   6.381   3.506   7.829 -0.0706 -0.2368 -0.7623
   50DOPE  H15X 6439   6.420   3.527   7.728 -0.6309  0.0005 -0.9338
   50DOPE  H15Y 6440   6.390   3.402   7.865  1.5050  1.4049  4.7173
   50DOPE  C316 6441   6.476   3.577   7.931  0.3457 -0.1782  0.4707
   50DOPE  H16X 6442   6.443   3.581   8.037 -0.1159  0.5927  0.3137
   50DOPE  H16Y 6443   6.476   3.686   7.908  0.0479  0.1085  1.7406
   50DOPE  C317 6444   6.618   3.524   7.914 -0.2677  0.4614  0.0018
   50DOPE  H17X 6445   6.612   3.432   7.975 -3.3561  0.2218 -0.4811
   50DOPE  H17Y 6446   6.646   3.495   7.811  0.4524  0.3630  0.2229
   50DOPE  C318 6447   6.731   3.610   7.974  0.2035 -0.2979 -0.9441
   50DOPE  H18X 6448   6.724   3.716   7.941 -0.0788  1.1902  3.3575
   50DOPE  H18Y 6449   6.724   3.609   8.084 -1.2376 -2.0317 -1.0089
   50DOPE  H18Z 6450   6.831   3.574   7.942  0.2950 -0.5823 -0.3448
   51DOPE     N 6451   3.642   5.885   5.874 -0.9086  0.1891  0.2020
   51DOPE   HN1 6452   3.541   5.881   5.851 -1.0864  2.3666  0.3998
   51DOPE   HN2 6453   3.690   5.809   5.821 -0.9001  0.2098  0.1799
   51DOPE   HN3 6454   3.650   5.848   5.971  1.8594  0.7517  0.2702
   51DOPE   C12 6455   3.701   6.022   5.860  0.9195  0.1892  0.1128
   51DOPE  H12A 6456   3.645   6.088   5.929  0.7621  0.4358 -0.2458
   51DOPE  H12B 6457   3.677   6.063   5.760  1.1194 -0.7346 -0.3230
   51DOPE   C11 6458   3.853   6.025   5.897  0.0550  0.0926  0.2659
   51DOPE  H11A 6459   3.884   6.130   5.917 -0.3902  0.1122  0.8792
   51DOPE  H11B 6460   3.910   5.990   5.808  2.4087  0.0717  1.7038
   51DOPE     P 6461   4.015   5.885   6.037  0.8093 -0.0167 -0.1233
   51DOPE   O13 6462   4.121   5.983   5.997 -0.1726  0.1413 -0.0511
   51DOPE   O14 6463   4.018   5.756   5.966 -0.0937 -0.3047  0.3344
   51DOPE   O11 6464   4.022   5.859   6.190 -0.6471 -0.5317 -0.1229
   51DOPE   O12 6465   3.872   5.946   6.017 -0.4727  0.0075 -0.2095
   51DOPE    C1 6466   3.902   5.815   6.257 -0.2485 -0.0267  0.1687
   51DOPE    HA 6467   3.855   5.725   6.210 -0.0790 -0.0341  0.0145
   51DOPE    HB 6468   3.827   5.897   6.254  0.3501  0.4963 -0.7527
   51DOPE    C2 6469   3.930   5.770   6.410  0.7244 -0.1679  0.1482
   51DOPE    HS 6470   3.830   5.757   6.457  0.7760 -1.2200  0.0004
   51DOPE   O21 6471   4.008   5.870   6.480  0.1044 -0.1258  0.3698
   51DOPE   C21 6472   3.958   5.990   6.495 -0.0770  0.1192  0.1048
   51DOPE   O22 6473   3.847   6.032   6.471  0.6879  0.1896 -0.5533
   51DOPE   C22 6474   4.072   6.082   6.539 -0.3710 -0.1799  0.8031
   51DOPE   H2R 6475   4.075   6.176   6.480 -0.2213  0.1445  1.3234
   51DOPE   H2S 6476   4.170   6.031   6.523  1.0187  2.1267  1.5705
   51DOPE    C3 6477   4.004   5.634   6.415  0.5739  0.3103  0.0485
   51DOPE    HX 6478   4.049   5.615   6.515 -0.0612  0.4912  0.3784
   51DOPE    HY 6479   4.085   5.636   6.339  0.6227  0.1913  0.0963
   51DOPE   O31 6480   3.922   5.522   6.372 -0.1646 -0.5142  0.1233
   51DOPE   C31 6481   3.862   5.455   6.467  0.5369 -0.2020 -0.1109
   51DOPE   O32 6482   3.870   5.482   6.587  0.2132 -0.6862 -0.3154
   51DOPE   C32 6483   3.756   5.369   6.391 -0.2207 -0.1429 -0.3742
   51DOPE   H2X 6484   3.678   5.441   6.357 -1.6008 -1.3831  0.0633
   51DOPE   H2Y 6485   3.801   5.320   6.302 -0.3115 -0.7390 -0.1018
   51DOPE   C23 6486   4.064   6.128   6.685  0.1204  0.4297 -0.3522
   51DOPE   H3R 6487   3.965   6.175   6.704  0.6928  1.1686  0.9292
   51DOPE   H3S 6488   4.147   6.200   6.702  0.1840  0.6619 -1.5464
   51DOPE   C24 6489   4.101   6.028   6.800 -0.5120 -0.7547 -0.0451
   51DOPE   H4R 6490   4.040   5.937   6.780 -0.6926 -0.3325 -1.5482
   51DOPE   H4S 6491   4.063   6.072   6.894  1.9013  0.7093  0.3036
   51DOPE   C25 6492   4.246   5.982   6.816  0.1561 -0.4907 -0.5636
   51DOPE   H5R 6493   4.313   6.070   6.825  2.1215 -1.9047 -0.7077
   51DOPE   H5S 6494   4.280   5.940   6.719 -1.0627  2.4160 -2.3865
   51DOPE   C26 6495   4.286   5.886   6.926 -0.0023  0.0559 -0.2795
   51DOPE   H6R 6496   4.371   5.830   6.882  0.6661  0.6915  0.1839
   51DOPE   H6S 6497   4.199   5.818   6.937  0.5687 -0.8668 -1.2362
   51DOPE   C27 6498   4.324   5.952   7.061  0.1997 -0.0722  0.0562
   51DOPE   H7R 6499   4.243   6.024   7.083 -0.0666 -0.7713  1.5289
   51DOPE   H7S 6500   4.410   6.021   7.055  1.6937 -1.9679 -2.0543
   51DOPE   C28 6501   4.334   5.849   7.172  0.3094 -0.3570 -0.4266
   51DOPE   H8R 6502   4.246   5.781   7.177  0.5430 -0.7010 -0.8270
   51DOPE   H8S 6503   4.344   5.911   7.263  1.9439 -1.5647  0.2903
   51DOPE   C29 6504   4.461   5.775   7.140 -0.5772  0.7923 -0.6002
   51DOPE   H9R 6505   4.498   5.786   7.037  1.5394  2.7121  0.2985
   51DOPE  C210 6506   4.490   5.664   7.214  0.3103 -0.4259 -0.6972
   51DOPE  H10R 6507   4.576   5.602   7.184 -0.2399 -1.1036 -0.8943
   51DOPE  C211 6508   4.432   5.619   7.349  0.1894 -0.1625  0.0714
   51DOPE  H11R 6509   4.399   5.514   7.340  1.5050 -0.5576 -0.3766
   51DOPE  H11S 6510   4.342   5.677   7.379 -0.3096  0.3050 -2.1471
   51DOPE  C212 6511   4.537   5.643   7.468  0.5567 -0.0554  0.4302
   51DOPE  H12R 6512   4.537   5.744   7.514 -0.1956 -0.3882  1.1885
   51DOPE  H12S 6513   4.643   5.619   7.444 -0.1090 -0.9888 -1.8095
   51DOPE  C213 6514   4.514   5.554   7.585  0.4062  0.1682  0.1667
   51DOPE  H13R 6515   4.524   5.448   7.554  2.1127  0.3864 -0.1051
   51DOPE  H13S 6516   4.410   5.573   7.618  0.1663 -0.4839 -0.1974
   51DOPE  C214 6517   4.613   5.576   7.706 -0.0091  0.6962  0.1596
   51DOPE  H14R 6518   4.609   5.683   7.734  0.0358  0.7500 -0.0354
   51DOPE  H14S 6519   4.717   5.565   7.668 -0.2565  0.5105 -0.4647
   51DOPE  C215 6520   4.588   5.497   7.834 -0.4533  0.1222 -0.3158
   51DOPE  H15R 6521   4.566   5.389   7.818  1.7019 -0.5269  0.5813
   51DOPE  H15S 6522   4.495   5.538   7.879 -2.2794 -0.1080 -3.5685
   51DOPE  C216 6523   4.715   5.517   7.925 -0.0921 -0.5033 -0.6119
   51DOPE  H16R 6524   4.732   5.626   7.930  0.3301 -0.5723 -0.4925
   51DOPE  H16S 6525   4.803   5.462   7.885 -0.9323 -0.5758 -2.4545
   51DOPE  C217 6526   4.675   5.454   8.063 -0.0026 -0.2237 -0.6803
   51DOPE  H17R 6527   4.645   5.348   8.047 -2.1626  0.3914 -0.9869
   51DOPE  H17S 6528   4.586   5.507   8.102  1.1374  0.6888  0.8070
   51DOPE  C218 6529   4.781   5.456   8.167  0.2000 -0.4757  0.0855
   51DOPE  H18R 6530   4.878   5.424   8.123 -0.1213 -2.7633  0.9021
   51DOPE  H18S 6531   4.749   5.403   8.259 -0.6148 -0.0679  0.0499
   51DOPE  H18T 6532   4.801   5.561   8.195 -0.4800  0.3378 -2.2178
   51DOPE   C33 6533   3.694   5.255   6.473 -0.3044  0.4129 -0.2177
   51DOPE   H3X 6534   3.773   5.188   6.513 -1.0408 -0.8170 -0.7512
   51DOPE   H3Y 6535   3.646   5.185   6.401  2.0253  0.3088 -1.7851
   51DOPE   C34 6536   3.579   5.299   6.568 -0.0391 -0.0199  0.1335
   51DOPE   H4X 6537   3.630   5.337   6.659 -0.7568 -0.3984  0.7025
   51DOPE   H4Y 6538   3.531   5.384   6.515  1.5331  0.2700 -0.8636
   51DOPE   C35 6539   3.490   5.186   6.599  0.0887 -0.4779  0.7127
   51DOPE   H5X 6540   3.538   5.102   6.654  0.5801  0.1504  1.2517
   51DOPE   H5Y 6541   3.450   5.153   6.501 -1.4103  1.6170  0.5691
   51DOPE   C36 6542   3.373   5.241   6.674  0.1561 -0.0744 -0.1037
   51DOPE   H6X 6543   3.320   5.323   6.621  1.5659 -0.3199 -1.9597
   51DOPE   H6Y 6544   3.414   5.283   6.769  0.0820 -0.8275  0.2736
   51DOPE   C37 6545   3.277   5.117   6.706 -0.5049 -0.5668 -0.3964
   51DOPE   H7X 6546   3.222   5.078   6.617 -1.2930  0.7591 -0.5213
   51DOPE   H7Y 6547   3.340   5.032   6.740 -0.3498  0.0404  0.8675
   51DOPE   C38 6548   3.176   5.139   6.826  0.7902 -0.3668  0.7476
   51DOPE   H8X 6549   3.241   5.154   6.915  1.5151 -0.3886  0.2272
   51DOPE   H8Y 6550   3.121   5.043   6.838  0.9618 -0.2350  3.2336
   51DOPE   C39 6551   3.090   5.256   6.819 -0.5002  0.2518 -0.6235
   51DOPE   H9X 6552   3.102   5.318   6.728 -0.9906  0.3847 -0.6033
   51DOPE  C310 6553   3.020   5.306   6.921  0.6783  0.2724  0.5808
   51DOPE  H10X 6554   2.972   5.404   6.908 -0.3185 -0.0370  1.7405
   51DOPE  C311 6555   2.992   5.250   7.059 -0.8831 -0.2923  0.2364
   51DOPE  H11X 6556   2.890   5.273   7.096 -1.2065 -0.0127 -0.8002
   51DOPE  H11Y 6557   3.007   5.140   7.057 -0.0872 -0.2674  2.2983
   51DOPE  C312 6558   3.091   5.304   7.169  1.0017 -0.0862 -0.2516
   51DOPE  H12X 6559   3.094   5.415   7.163  1.0350 -0.0689  0.0530
   51DOPE  H12Y 6560   3.195   5.268   7.153  0.6992 -0.8676 -0.4808
   51DOPE  C313 6561   3.034   5.275   7.313  0.2289 -0.1032  0.3724
   51DOPE  H13X 6562   2.931   5.316   7.323  1.2404  2.8496 -0.0996
   51DOPE  H13Y 6563   3.041   5.165   7.324  0.2598 -0.2673 -1.1501
   51DOPE  C314 6564   3.117   5.347   7.421 -0.0636  0.0119 -0.2677
   51DOPE  H14X 6565   3.116   5.456   7.399 -1.8471 -0.4284 -2.8977
   51DOPE  H14Y 6566   3.223   5.317   7.431  0.0651  0.3116 -0.6767
   51DOPE  C315 6567   3.064   5.323   7.571  0.1019 -0.1842  0.3623
   51DOPE  H15X 6568   3.127   5.238   7.603  1.9764  0.8985 -0.3190
   51DOPE  H15Y 6569   2.956   5.294   7.576 -0.2713  0.7297 -1.4628
   51DOPE  C316 6570   3.105   5.436   7.664 -0.2002  0.2281 -0.4014
   51DOPE  H16X 6571   3.053   5.531   7.639  1.1490  1.5121  1.3520
   51DOPE  H16Y 6572   3.214   5.452   7.652  0.1794 -1.8347 -0.0994
   51DOPE  C317 6573   3.080   5.394   7.810  0.0230 -0.0034  0.4457
   51DOPE  H17X 6574   3.044   5.490   7.853 -3.5227 -0.1987 -1.6880
   51DOPE  H17Y 6575   2.999   5.320   7.827 -0.7410  0.9971  1.3496
   51DOPE  C318 6576   3.198   5.342   7.889 -0.6131  0.3668  1.4066
   51DOPE  H18X 6577   3.275   5.421   7.901  0.8474 -0.4725 -1.5653
   51DOPE  H18Y 6578   3.170   5.303   7.990 -0.9974 -0.5427  0.9624
   51DOPE  H18Z 6579   3.238   5.261   7.824 -0.9133 -0.0388  1.7135
   52DOPE     N 6580   5.577   2.247   5.810  0.3787  0.0275 -0.3105
   52DOPE   HN1 6581   5.669   2.264   5.764  0.8641 -0.9834  0.2813
   52DOPE   HN2 6582   5.580   2.144   5.822  0.2105  0.1468  0.8017
   52DOPE   HN3 6583   5.497   2.279   5.751 -0.7319  0.6372  1.4686
   52DOPE   C12 6584   5.567   2.311   5.943 -0.8445 -0.4745 -0.0196
   52DOPE  H12A 6585   5.476   2.266   5.988 -1.3070 -1.0756 -1.4804
   52DOPE  H12B 6586   5.555   2.421   5.943 -2.7058 -0.6177  1.5335
   52DOPE   C11 6587   5.687   2.277   6.025  0.2355 -0.7055  0.1710
   52DOPE  H11A 6588   5.662   2.318   6.125  0.4211 -1.9839  0.7588
   52DOPE  H11B 6589   5.775   2.327   5.980  0.3657 -0.8840  0.2256
   52DOPE     P 6590   5.753   2.064   6.176  0.2100 -0.1290  0.2488
   52DOPE   O13 6591   5.893   2.093   6.205 -0.0748  0.0237  0.7873
   52DOPE   O14 6592   5.718   1.920   6.162  0.0626  0.1334 -0.2416
   52DOPE   O11 6593   5.661   2.132   6.280 -0.0400  0.5613  0.1897
   52DOPE   O12 6594   5.716   2.136   6.043 -0.0921 -0.6865  0.0289
   52DOPE    C1 6595   5.519   2.122   6.271  0.5307 -0.2505 -0.2266
   52DOPE    HA 6596   5.493   2.015   6.286  1.9121 -0.3459  1.9382
   52DOPE    HB 6597   5.486   2.153   6.169 -0.6174  0.1702  0.2628
   52DOPE    C2 6598   5.453   2.217   6.381 -0.0243 -0.4737  0.0854
   52DOPE    HS 6599   5.506   2.314   6.373 -0.2106 -0.1469  2.2970
   52DOPE   O21 6600   5.482   2.158   6.511 -0.2623  0.3834 -0.7935
   52DOPE   C21 6601   5.474   2.229   6.622  0.7952 -1.0610  0.3108
   52DOPE   O22 6602   5.473   2.352   6.615 -0.0626  0.1760  0.4353
   52DOPE   C22 6603   5.465   2.145   6.748  0.1588  0.9284  0.3840
   52DOPE   H2R 6604   5.543   2.065   6.743  1.0803  1.8662 -0.7317
   52DOPE   H2S 6605   5.372   2.086   6.737 -0.4020  2.1510 -2.0028
   52DOPE    C3 6606   5.304   2.243   6.349  0.3798 -0.9538  0.2000
   52DOPE    HX 6607   5.258   2.144   6.367 -0.9673 -0.3380  0.2344
   52DOPE    HY 6608   5.298   2.269   6.241 -0.2224  0.2851  0.5143
   52DOPE   O31 6609   5.248   2.343   6.434  0.4015 -0.0720  0.1628
   52DOPE   C31 6610   5.138   2.406   6.381 -0.5363 -0.2561 -0.8005
   52DOPE   O32 6611   5.099   2.396   6.269 -0.6197 -0.4101 -0.6919
   52DOPE   C32 6612   5.072   2.489   6.485 -0.2308  0.1676 -0.4570
   52DOPE   H2X 6613   5.143   2.567   6.522  0.3684 -0.8773  0.6798
   52DOPE   H2Y 6614   4.984   2.546   6.450  0.1270  2.2686  1.7980
   52DOPE   C23 6615   5.465   2.236   6.870  0.3802 -0.2781 -0.0074
   52DOPE   H3R 6616   5.428   2.183   6.960  1.7744 -1.5953 -0.1743
   52DOPE   H3S 6617   5.392   2.321   6.865 -2.6795 -2.7588 -0.5140
   52DOPE   C24 6618   5.603   2.301   6.892  0.5568 -0.1878  0.3670
   52DOPE   H4R 6619   5.624   2.374   6.811  1.1183 -1.2967 -0.5026
   52DOPE   H4S 6620   5.684   2.225   6.885  0.8875  0.0012  1.7789
   52DOPE   C25 6621   5.629   2.361   7.033 -0.8195  0.0908 -0.4764
   52DOPE   H5R 6622   5.666   2.291   7.110  0.8070  1.0330 -0.3462
   52DOPE   H5S 6623   5.529   2.393   7.071 -0.0055  0.3664  1.5541
   52DOPE   C26 6624   5.722   2.488   7.017 -0.2868  1.0992 -0.0939
   52DOPE   H6R 6625   5.656   2.551   6.954 -1.3503 -0.7052 -0.8414
   52DOPE   H6S 6626   5.809   2.462   6.954  0.5755 -0.1811  1.5308
   52DOPE   C27 6627   5.759   2.524   7.162 -0.6615  0.0539  0.5830
   52DOPE   H7R 6628   5.817   2.448   7.218 -2.9119 -1.4859  0.9513
   52DOPE   H7S 6629   5.665   2.534   7.222 -0.2040 -1.6664  1.6561
   52DOPE   C28 6630   5.818   2.667   7.172 -0.1617 -0.2875  0.4085
   52DOPE   H8R 6631   5.857   2.680   7.275  1.2116 -0.1174 -0.1165
   52DOPE   H8S 6632   5.733   2.735   7.153 -0.6318 -0.3140  2.2367
   52DOPE   C29 6633   5.914   2.701   7.061 -0.3794 -0.8701 -0.6843
   52DOPE   H9R 6634   5.865   2.713   6.963  0.0662 -1.1493 -0.9421
   52DOPE  C210 6635   6.047   2.700   7.071  0.5949 -0.0076  0.4251
   52DOPE  H10R 6636   6.102   2.728   6.980  0.3542 -0.3559  0.1739
   52DOPE  C211 6637   6.134   2.678   7.196 -0.2459 -0.0536  0.0242
   52DOPE  H11R 6638   6.178   2.576   7.187  4.2450  1.6258  0.2702
   52DOPE  H11S 6639   6.073   2.682   7.289  0.3459  1.0720  0.3723
   52DOPE  C212 6640   6.238   2.789   7.198  0.3156 -0.2318  0.2532
   52DOPE  H12R 6641   6.199   2.892   7.215  1.1082  0.8018 -3.3468
   52DOPE  H12S 6642   6.295   2.803   7.104  1.2326  0.5209  0.8972
   52DOPE  C213 6643   6.334   2.759   7.313 -0.0893  0.2063 -0.1591
   52DOPE  H13R 6644   6.266   2.740   7.398  0.5835  1.2910  0.6304
   52DOPE  H13S 6645   6.396   2.847   7.337  3.8224 -2.1179 -0.8427
   52DOPE  C214 6646   6.420   2.632   7.295  0.2906  0.2264 -0.8450
   52DOPE  H14R 6647   6.475   2.633   7.198 -1.4951 -0.0845 -1.9185
   52DOPE  H14S 6648   6.365   2.535   7.299  2.9690 -1.3968 -0.7482
   52DOPE  C215 6649   6.519   2.609   7.414  0.2288  0.2291  0.2632
   52DOPE  H15R 6650   6.457   2.619   7.507 -3.4501 -0.7819 -1.8653
   52DOPE  H15S 6651   6.586   2.697   7.425 -0.1236  0.5254  0.0752
   52DOPE  C216 6652   6.595   2.477   7.417 -0.3324  0.0377  0.0894
   52DOPE  H16R 6653   6.661   2.457   7.330 -0.9626 -0.7276 -0.2247
   52DOPE  H16S 6654   6.520   2.395   7.412 -0.7900  0.4011  0.9247
   52DOPE  C217 6655   6.661   2.469   7.556  1.4314  0.1257  0.5592
   52DOPE  H17R 6656   6.591   2.495   7.639  0.7578  2.3460 -0.6100
   52DOPE  H17S 6657   6.752   2.532   7.565  2.4516 -0.6713 -2.8361
   52DOPE  C218 6658   6.710   2.327   7.565  0.1953 -0.2438 -0.1868
   52DOPE  H18R 6659   6.785   2.307   7.485  1.7821  0.6934  1.0134
   52DOPE  H18S 6660   6.755   2.297   7.662 -0.2662  0.9170  0.3985
   52DOPE  H18T 6661   6.627   2.253   7.562  0.1581 -0.3611  2.0418
   52DOPE   C33 6662   5.032   2.407   6.607 -0.6273  0.3914 -0.1413
   52DOPE   H3X 6663   5.119   2.344   6.638 -1.7647 -1.6507 -0.9455
   52DOPE   H3Y 6664   4.961   2.331   6.571 -1.0768  0.4890  0.5186
   52DOPE   C34 6665   4.963   2.493   6.709 -0.4317  0.5888 -0.1790
   52DOPE   H4X 6666   5.044   2.558   6.747 -0.3351  0.0287  0.6099
   52DOPE   H4Y 6667   4.884   2.556   6.663  0.8134  2.1279 -0.3098
   52DOPE   C35 6668   4.882   2.426   6.821 -0.0561  0.4456 -0.1352
   52DOPE   H5X 6669   4.938   2.349   6.879 -0.3011  0.6092  0.3211
   52DOPE   H5Y 6670   4.797   2.369   6.779  0.0142 -1.0127  1.5670
   52DOPE   C36 6671   4.824   2.528   6.924 -0.5611  0.5684 -0.5913
   52DOPE   H6X 6672   4.805   2.621   6.867  0.6564  1.3917  0.2987
   52DOPE   H6Y 6673   4.906   2.561   6.991 -2.7513  1.7260  1.6468
   52DOPE   C37 6674   4.717   2.461   7.001 -0.1342 -0.7581  0.3305
   52DOPE   H7X 6675   4.642   2.433   6.923  1.4208  2.0869 -2.3857
   52DOPE   H7Y 6676   4.752   2.377   7.065  1.0732  0.2357  0.9988
   52DOPE   C38 6677   4.659   2.563   7.105  0.0124 -0.0615 -0.1319
   52DOPE   H8X 6678   4.638   2.659   7.052  0.6847  0.5426  0.6778
   52DOPE   H8Y 6679   4.739   2.584   7.178 -0.3524  0.7322  0.0501
   52DOPE   C39 6680   4.539   2.518   7.183  0.7615  0.0468 -0.0852
   52DOPE   H9X 6681   4.439   2.509   7.138 -0.3194  0.5380  2.0740
   52DOPE  C310 6682   4.533   2.471   7.305 -0.4050  0.2504 -0.0070
   52DOPE  H10X 6683   4.434   2.437   7.340 -0.7099 -0.1336 -1.2042
   52DOPE  C311 6684   4.645   2.455   7.407  0.4014 -0.3112 -0.0382
   52DOPE  H11X 6685   4.654   2.346   7.427  1.9807  0.0756  1.6544
   52DOPE  H11Y 6686   4.747   2.478   7.371  1.3814 -2.0616  1.4940
   52DOPE  C312 6687   4.622   2.544   7.534 -0.8784 -0.1457 -0.4437
   52DOPE  H12X 6688   4.651   2.650   7.519 -0.4159  0.4075  3.3511
   52DOPE  H12Y 6689   4.694   2.505   7.610 -0.0277 -0.4528 -1.3961
   52DOPE  C313 6690   4.482   2.537   7.602  0.3509  0.8341  0.5624
   52DOPE  H13X 6691   4.421   2.549   7.510  0.3832  1.3150  0.5999
   52DOPE  H13Y 6692   4.481   2.435   7.647  0.9125  1.4959  2.1357
   52DOPE  C314 6693   4.454   2.651   7.702  0.2353  0.2924 -0.4214
   52DOPE  H14X 6694   4.373   2.618   7.771  2.5295 -1.0330  1.8303
   52DOPE  H14Y 6695   4.429   2.742   7.644 -0.9237  1.1075  1.2420
   52DOPE  C315 6696   4.568   2.688   7.798 -0.7168  0.3509 -0.0136
   52DOPE  H15X 6697   4.644   2.752   7.748 -0.4203 -0.3421 -0.4786
   52DOPE  H15Y 6698   4.630   2.599   7.822 -3.6721 -1.9594 -0.3494
   52DOPE  C316 6699   4.521   2.750   7.926  0.1512  0.1976 -0.3458
   52DOPE  H16X 6700   4.451   2.832   7.899 -0.4573 -0.5102 -0.9536
   52DOPE  H16Y 6701   4.609   2.806   7.964  0.0784 -0.2536  0.5349
   52DOPE  C317 6702   4.473   2.649   8.039  0.2243 -0.1354 -0.2336
   52DOPE  H17X 6703   4.379   2.603   8.002 -1.3101  2.9725 -0.5620
   52DOPE  H17Y 6704   4.544   2.565   8.049 -1.0097 -1.0232  1.8565
   52DOPE  C318 6705   4.435   2.710   8.183 -0.3795 -0.1407 -0.3627
   52DOPE  H18X 6706   4.421   2.629   8.259 -1.4207  0.3655  0.0079
   52DOPE  H18Y 6707   4.517   2.779   8.212  0.4155 -0.2938 -2.1183
   52DOPE  H18Z 6708   4.341   2.766   8.164  0.5384  1.5035 -0.2455
   53DOPE     N 6709   4.366   4.840   6.281  0.4789 -0.1571  0.3887
   53DOPE   HN1 6710   4.266   4.826   6.258  0.9172  2.0919 -3.9503
   53DOPE   HN2 6711   4.371   4.943   6.271 -1.9147  0.0987  1.2906
   53DOPE   HN3 6712   4.437   4.793   6.221 -0.5795 -1.2224 -0.0769
   53DOPE   C12 6713   4.404   4.799   6.421 -0.2458  0.4664 -0.1259
   53DOPE  H12A 6714   4.380   4.889   6.480 -0.3494  0.8823 -0.7948
   53DOPE  H12B 6715   4.510   4.765   6.429  0.1774  1.7988  0.1083
   53DOPE   C11 6716   4.318   4.682   6.461  0.3032  0.1755 -0.0623
   53DOPE  H11A 6717   4.213   4.718   6.454  0.3464  0.3943  0.3993
   53DOPE  H11B 6718   4.325   4.669   6.571  1.3446 -0.7622 -0.2194
   53DOPE     P 6719   4.410   4.438   6.458  0.1038 -0.3951  0.4492
   53DOPE   O13 6720   4.550   4.477   6.460 -0.1898 -0.5848  0.3035
   53DOPE   O14 6721   4.366   4.311   6.405  0.0358 -0.5111  0.4514
   53DOPE   O11 6722   4.362   4.445   6.611  0.2209  0.3111 -0.0048
   53DOPE   O12 6723   4.338   4.562   6.383 -0.3112  0.0469  0.1701
   53DOPE    C1 6724   4.223   4.409   6.649  0.2972 -0.4654 -0.6755
   53DOPE    HA 6725   4.209   4.299   6.640 -0.5767 -0.6375  1.8916
   53DOPE    HB 6726   4.143   4.464   6.595  0.6399 -0.3355 -1.0481
   53DOPE    C2 6727   4.192   4.435   6.799  0.0300 -0.8072 -0.6333
   53DOPE    HS 6728   4.177   4.545   6.805  2.5283 -0.4670  0.4329
   53DOPE   O21 6729   4.294   4.379   6.881 -0.1098  0.1415 -0.5842
   53DOPE   C21 6730   4.310   4.425   7.008 -0.3623  0.1883  0.3534
   53DOPE   O22 6731   4.234   4.500   7.068 -0.8405 -0.1591 -0.0914
   53DOPE   C22 6732   4.415   4.346   7.086  0.4578  0.5297 -1.0205
   53DOPE   H2R 6733   4.499   4.417   7.102 -0.1693  1.0043  0.3846
   53DOPE   H2S 6734   4.441   4.259   7.023 -0.5799  1.7037 -3.2059
   53DOPE    C3 6735   4.053   4.370   6.833  0.6907  0.6405 -0.2964
   53DOPE    HX 6736   4.071   4.265   6.866 -1.6138  0.9853  2.3496
   53DOPE    HY 6737   3.984   4.351   6.748 -0.3746  0.8889  0.5049
   53DOPE   O31 6738   3.999   4.440   6.954 -0.6883  0.5708  0.2064
   53DOPE   C31 6739   3.928   4.549   6.926  0.5283  0.3388 -0.2634
   53DOPE   O32 6740   3.892   4.583   6.812  0.4501  0.4981  0.3173
   53DOPE   C32 6741   3.918   4.628   7.055  0.6890 -0.2969 -0.6821
   53DOPE   H2X 6742   3.992   4.604   7.134 -1.3806 -0.9771  1.1572
   53DOPE   H2Y 6743   3.920   4.738   7.041 -2.2508  0.2223  1.7728
   53DOPE   C23 6744   4.352   4.293   7.222  0.1382 -0.4278  0.9097
   53DOPE   H3R 6745   4.272   4.219   7.199 -0.9232  0.2161  2.3514
   53DOPE   H3S 6746   4.288   4.372   7.267 -2.7877 -1.8371 -0.5042
   53DOPE   C24 6747   4.448   4.232   7.323  0.1434  0.3845 -0.1150
   53DOPE   H4R 6748   4.519   4.311   7.356  0.6475 -0.4878  0.9501
   53DOPE   H4S 6749   4.505   4.150   7.276 -1.4918 -1.2492  0.6589
   53DOPE   C25 6750   4.387   4.179   7.456 -0.1547  0.4040  0.3140
   53DOPE   H5R 6751   4.315   4.097   7.436  0.7332 -0.9428  2.3110
   53DOPE   H5S 6752   4.321   4.252   7.506  0.7145  0.8412  0.8482
   53DOPE   C26 6753   4.495   4.143   7.561  0.2458 -0.0099 -0.7922
   53DOPE   H6R 6754   4.585   4.205   7.539  0.0223  0.0951 -1.4263
   53DOPE   H6S 6755   4.527   4.038   7.544  0.7558  0.2361 -1.4217
   53DOPE   C27 6756   4.441   4.148   7.704  0.1888  0.6629 -0.1423
   53DOPE   H7R 6757   4.334   4.116   7.699  0.4648 -0.1187 -2.3961
   53DOPE   H7S 6758   4.439   4.255   7.734 -1.6767  0.1733  1.7875
   53DOPE   C28 6759   4.520   4.076   7.813  0.4300  0.2024  0.8426
   53DOPE   H8R 6760   4.500   4.117   7.914 -0.8861  0.9434  0.3080
   53DOPE   H8S 6761   4.625   4.085   7.779  0.0714 -0.5763 -0.5608
   53DOPE   C29 6762   4.486   3.926   7.812  0.0460 -0.2938  0.8422
   53DOPE   H9R 6763   4.446   3.893   7.714 -0.8927 -0.8387  1.3974
   53DOPE  C210 6764   4.526   3.845   7.906  0.4862 -0.3158  0.1091
   53DOPE  H10R 6765   4.501   3.739   7.887 -0.5307  0.0385 -0.6034
   53DOPE  C211 6766   4.599   3.865   8.034 -0.0908  0.8087  0.1146
   53DOPE  H11R 6767   4.627   3.971   8.049  0.2874  0.7128  0.0978
   53DOPE  H11S 6768   4.690   3.801   8.038  0.4839  1.6374  0.8899
   53DOPE  C212 6769   4.522   3.812   8.158 -0.3824 -0.5101 -0.0899
   53DOPE  H12R 6770   4.469   3.721   8.121  2.6179 -1.8904 -1.3304
   53DOPE  H12S 6771   4.439   3.879   8.187  0.5452  0.3744  0.5909
   53DOPE  C213 6772   4.610   3.783   8.279  0.0265 -0.2093 -0.0993
   53DOPE  H13R 6773   4.664   3.878   8.303 -0.7506  0.0399  0.7093
   53DOPE  H13S 6774   4.687   3.706   8.258  0.2714  0.0721 -0.2415
   53DOPE  C214 6775   4.527   3.744   8.405  0.0212  0.2319  0.3341
   53DOPE  H14R 6776   4.475   3.647   8.391  0.6699  0.0356 -0.8246
   53DOPE  H14S 6777   4.446   3.820   8.407  1.0975  1.5294 -1.4832
   53DOPE  C215 6778   4.612   3.726   8.531  0.4888 -0.5129  0.1488
   53DOPE  H15R 6779   4.542   3.735   8.617  0.8075 -1.7063  0.5604
   53DOPE  H15S 6780   4.687   3.807   8.540 -0.2170  0.0339  1.3522
   53DOPE  C216 6781   4.699   3.597   8.531  0.7353 -0.1752  0.0506
   53DOPE  H16R 6782   4.771   3.606   8.447  3.6109 -1.4391  2.2234
   53DOPE  H16S 6783   4.634   3.510   8.508  0.4447  0.1099 -0.2171
   53DOPE  C217 6784   4.775   3.561   8.663 -0.4475 -0.2055 -0.1405
   53DOPE  H17R 6785   4.689   3.542   8.731 -1.9967 -0.5155 -2.0871
   53DOPE  H17S 6786   4.830   3.650   8.699 -0.6790  1.4585 -3.5392
   53DOPE  C218 6787   4.867   3.441   8.666  0.2091 -0.0864  0.3013
   53DOPE  H18R 6788   4.899   3.425   8.771  2.2195 -0.2647 -0.2917
   53DOPE  H18S 6789   4.956   3.456   8.600  1.3967 -2.6003  1.1805
   53DOPE  H18T 6790   4.806   3.351   8.640  0.7439 -0.4430  0.2516
   53DOPE   C33 6791   3.780   4.609   7.124 -0.1045 -1.0592 -0.5774
   53DOPE   H3X 6792   3.776   4.509   7.172  0.8931 -1.3420 -1.0593
   53DOPE   H3Y 6793   3.695   4.637   7.058 -0.6275 -1.8314 -0.2430
   53DOPE   C34 6794   3.764   4.700   7.255  0.0266  0.0897 -0.4206
   53DOPE   H4X 6795   3.764   4.809   7.232 -0.2577  0.4417  1.1701
   53DOPE   H4Y 6796   3.661   4.672   7.285 -0.8545  1.4074 -2.0846
   53DOPE   C35 6797   3.863   4.661   7.370 -0.6223  0.2596 -0.0329
   53DOPE   H5X 6798   3.970   4.687   7.352 -0.3747 -0.3588  0.5009
   53DOPE   H5Y 6799   3.842   4.555   7.396 -2.2508  0.6026  0.1059
   53DOPE   C36 6800   3.831   4.741   7.502  0.4340  0.0942 -0.5048
   53DOPE   H6X 6801   3.736   4.697   7.542  1.7628 -0.1608  2.6207
   53DOPE   H6Y 6802   3.826   4.848   7.475 -2.1271 -0.2537 -1.7365
   53DOPE   C37 6803   3.925   4.713   7.618  0.1948 -1.0011  0.4074
   53DOPE   H7X 6804   3.963   4.609   7.617  0.4261 -0.9202 -0.7216
   53DOPE   H7Y 6805   4.012   4.782   7.609 -1.2605  1.1312  1.6486
   53DOPE   C38 6806   3.870   4.730   7.755  0.0933 -1.1603 -0.8244
   53DOPE   H8X 6807   3.912   4.651   7.820 -1.1544 -2.4702 -1.5505
   53DOPE   H8Y 6808   3.760   4.711   7.757 -0.0506 -0.3254  0.3702
   53DOPE   C39 6809   3.901   4.876   7.800 -0.2253  0.0639  0.4071
   53DOPE   H9X 6810   3.911   4.944   7.714  0.9824  0.5843  0.9321
   53DOPE  C310 6811   3.896   4.921   7.928 -0.2004 -0.2051 -0.8209
   53DOPE  H10X 6812   3.905   5.026   7.960 -0.9089 -0.9206  2.0443
   53DOPE  C311 6813   3.855   4.832   8.040  0.3300 -0.3222  0.0355
   53DOPE  H11X 6814   3.758   4.785   8.014  0.2817 -0.3687  0.2934
   53DOPE  H11Y 6815   3.914   4.741   8.066 -0.0607 -0.3493  0.8454
   53DOPE  C312 6816   3.843   4.914   8.172 -0.9098 -0.1528 -0.1238
   53DOPE  H12X 6817   3.781   5.006   8.163 -0.2023  0.5800  1.8619
   53DOPE  H12Y 6818   3.940   4.954   8.208 -0.4488 -0.3296 -1.1256
   53DOPE  C313 6819   3.776   4.838   8.282 -0.1983 -0.0536 -0.9252
   53DOPE  H13X 6820   3.819   4.738   8.305 -1.3922 -0.1002  1.3688
   53DOPE  H13Y 6821   3.786   4.899   8.375 -1.5192 -0.8307 -0.2487
   53DOPE  C314 6822   3.620   4.819   8.259  0.4164  0.6972  0.1473
   53DOPE  H14X 6823   3.604   4.761   8.165  2.3728 -0.2645  0.3666
   53DOPE  H14Y 6824   3.565   4.913   8.235  2.3646  1.8294 -0.0264
   53DOPE  C315 6825   3.555   4.739   8.371 -0.3681 -0.4522  0.1955
   53DOPE  H15X 6826   3.571   4.781   8.472  2.4677 -2.1526  0.5930
   53DOPE  H15Y 6827   3.604   4.639   8.372 -0.4825 -0.6057 -2.3589
   53DOPE  C316 6828   3.402   4.740   8.353  0.3290 -0.1564  0.3390
   53DOPE  H16X 6829   3.369   4.736   8.247  0.0290 -1.3695  0.4577
   53DOPE  H16Y 6830   3.370   4.839   8.392  1.4759 -0.3053  1.7227
   53DOPE  C317 6831   3.328   4.637   8.436  0.3871 -0.1497  0.8015
   53DOPE  H17X 6832   3.366   4.537   8.407  0.0307  0.6862 -2.9707
   53DOPE  H17Y 6833   3.357   4.661   8.541 -0.1018  0.1717  0.8717
   53DOPE  C318 6834   3.172   4.650   8.417  0.0016  0.2917  0.5393
   53DOPE  H18X 6835   3.111   4.572   8.466  2.1016 -1.5676  0.3859
   53DOPE  H18Y 6836   3.141   4.750   8.454  0.6355  1.1840 -1.2036
   53DOPE  H18Z 6837   3.147   4.650   8.309 -0.2677 -0.3166  0.5945
   54DOPE     N 6838   5.893   2.942   6.217  1.0776 -0.0890  0.2711
   54DOPE   HN1 6839   5.903   3.045   6.227  0.0964 -0.1419  2.2180
   54DOPE   HN2 6840   5.985   2.922   6.173 -0.0352 -0.6139 -1.9910
   54DOPE   HN3 6841   5.815   2.921   6.152  0.3743  2.1235  0.2960
   54DOPE   C12 6842   5.864   2.897   6.360 -0.7238 -0.2330  0.2386
   54DOPE  H12A 6843   5.783   2.967   6.390 -0.6320 -0.1304  0.2454
   54DOPE  H12B 6844   5.961   2.914   6.409  0.9167 -2.1662 -2.0918
   54DOPE   C11 6845   5.821   2.749   6.367 -0.0062 -0.7339 -0.3691
   54DOPE  H11A 6846   5.725   2.740   6.311  0.3933  0.8577 -1.3587
   54DOPE  H11B 6847   5.803   2.717   6.472 -1.0225  0.5988 -0.1075
   54DOPE     P 6848   5.908   2.544   6.229 -0.7084 -0.2354  0.0320
   54DOPE   O13 6849   6.038   2.490   6.186  0.0899 -0.5360 -0.0665
   54DOPE   O14 6850   5.800   2.566   6.134  0.4903  0.7405 -0.4538
   54DOPE   O11 6851   5.853   2.457   6.354 -0.0632 -0.0403 -0.2073
   54DOPE   O12 6852   5.935   2.683   6.308  0.0856  0.2289 -0.7004
   54DOPE    C1 6853   5.936   2.454   6.470 -0.5972  0.2848  0.0946
   54DOPE    HA 6854   5.953   2.551   6.522 -3.3584  0.5327  0.6473
   54DOPE    HB 6855   6.036   2.410   6.449  0.0229  1.2066  1.0191
   54DOPE    C2 6856   5.869   2.363   6.585  0.6627 -0.5311  0.1240
   54DOPE    HS 6857   5.788   2.416   6.640  0.7557 -1.5892  1.3397
   54DOPE   O21 6858   5.970   2.339   6.683 -0.5712  0.5392 -0.0517
   54DOPE   C21 6859   6.017   2.435   6.763 -0.1738 -0.2534  0.1612
   54DOPE   O22 6860   5.978   2.551   6.764 -0.9705  0.1688 -0.0149
   54DOPE   C22 6861   6.127   2.372   6.854  0.7578 -0.3565  0.2475
   54DOPE   H2R 6862   6.142   2.435   6.944 -0.9359 -0.3729  0.5895
   54DOPE   H2S 6863   6.224   2.366   6.802  1.6567  0.9246  1.7043
   54DOPE    C3 6864   5.831   2.232   6.521  0.7101  0.4165 -0.5489
   54DOPE    HX 6865   5.924   2.210   6.465  1.0604  0.7202 -0.0831
   54DOPE    HY 6866   5.752   2.250   6.444  0.5432  1.1655 -0.2128
   54DOPE   O31 6867   5.789   2.136   6.617 -0.1736 -0.3482 -0.1310
   54DOPE   C31 6868   5.878   2.035   6.640  0.1336  0.3480 -0.2669
   54DOPE   O32 6869   5.986   2.025   6.591 -0.1600  0.2408  0.6811
   54DOPE   C32 6870   5.844   1.957   6.766  0.2557 -0.3678  0.9129
   54DOPE   H2X 6871   5.843   2.027   6.852 -1.9360  2.1226 -0.9773
   54DOPE   H2Y 6872   5.749   1.904   6.743  1.5657 -2.2868 -0.4973
   54DOPE   C23 6873   6.083   2.224   6.892 -0.1024 -0.5077 -0.4994
   54DOPE   H3R 6874   6.044   2.159   6.811 -0.1726 -1.4360  0.2622
   54DOPE   H3S 6875   6.008   2.219   6.974  0.7683 -1.1407  0.2847
   54DOPE   C24 6876   6.201   2.146   6.933  0.1368  0.2772 -0.5698
   54DOPE   H4R 6877   6.280   2.160   6.856  1.4324 -1.0524  0.4632
   54DOPE   H4S 6878   6.182   2.037   6.932 -0.3428  0.3437  0.1916
   54DOPE   C25 6879   6.264   2.181   7.066 -0.0991 -0.5275  0.9017
   54DOPE   H5R 6880   6.313   2.281   7.055 -0.0898 -0.6975 -0.8378
   54DOPE   H5S 6881   6.341   2.108   7.099 -0.9482 -2.7022 -1.6455
   54DOPE   C26 6882   6.161   2.202   7.181  0.2592  0.0653 -0.4266
   54DOPE   H6R 6883   6.113   2.104   7.201 -0.5798  0.4284 -0.6292
   54DOPE   H6S 6884   6.081   2.277   7.166  0.1802 -0.1091 -0.9019
   54DOPE   C27 6885   6.242   2.245   7.306  0.2351  0.1422  0.3326
   54DOPE   H7R 6886   6.285   2.347   7.288  0.8322  0.0531  1.2064
   54DOPE   H7S 6887   6.313   2.164   7.332  0.2326 -0.0437 -0.2328
   54DOPE   C28 6888   6.147   2.254   7.429  0.0433 -0.1432 -0.3911
   54DOPE   H8R 6889   6.092   2.157   7.437 -2.0797  1.1407  2.1487
   54DOPE   H8S 6890   6.056   2.311   7.400 -0.4982 -1.4099 -1.3289
   54DOPE   C29 6891   6.211   2.294   7.568 -0.3466 -0.0913  1.2848
   54DOPE   H9R 6892   6.315   2.263   7.588  0.2492  0.0761 -1.2302
   54DOPE  C210 6893   6.149   2.376   7.654 -0.1631  0.1860 -0.2047
   54DOPE  H10R 6894   6.210   2.408   7.740  0.4625  0.3500 -0.6958
   54DOPE  C211 6895   6.010   2.436   7.645 -0.9982 -0.1866 -0.1532
   54DOPE  H11R 6896   5.963   2.434   7.746  1.8164 -1.3455  1.2612
   54DOPE  H11S 6897   5.953   2.366   7.581 -0.2371  1.3449 -2.6655
   54DOPE  C212 6898   5.997   2.567   7.571  0.1818  0.2333  0.0171
   54DOPE  H12R 6899   5.887   2.581   7.564 -0.1254 -1.1005  1.6644
   54DOPE  H12S 6900   6.027   2.553   7.465  0.0414 -0.4239  0.0581
   54DOPE  C213 6901   6.066   2.684   7.636 -0.6579 -0.1038 -0.3131
   54DOPE  H13R 6902   6.088   2.763   7.561  0.6999 -1.0840 -0.9663
   54DOPE  H13S 6903   6.164   2.646   7.670 -1.1364 -1.1440 -0.0601
   54DOPE  C214 6904   5.989   2.748   7.752 -0.1984  0.0149  0.5164
   54DOPE  H14R 6905   5.927   2.673   7.806  0.3057 -2.3047 -1.8639
   54DOPE  H14S 6906   5.917   2.815   7.700  1.3249  0.2476 -1.4217
   54DOPE  C215 6907   6.080   2.824   7.854 -0.0539  0.0659  0.1287
   54DOPE  H15R 6908   6.138   2.901   7.800  0.5766  1.2326  2.3511
   54DOPE  H15S 6909   6.146   2.748   7.901 -2.3364 -1.9102  0.3387
   54DOPE  C216 6910   6.008   2.904   7.965 -0.2786 -0.3785 -0.3689
   54DOPE  H16R 6911   5.939   2.978   7.918  0.1182  1.1827  1.3772
   54DOPE  H16S 6912   6.086   2.956   8.026 -1.8154  0.5115  0.9190
   54DOPE  C217 6913   5.940   2.812   8.068  0.1035 -0.8323  0.4877
   54DOPE  H17R 6914   6.025   2.744   8.091  0.7902 -0.4030 -0.6864
   54DOPE  H17S 6915   5.854   2.759   8.023 -1.5608  1.2777  1.0538
   54DOPE  C218 6916   5.914   2.872   8.212  0.4913 -0.5543  0.1903
   54DOPE  H18R 6917   5.986   2.953   8.232  0.8978  0.0667 -3.1480
   54DOPE  H18S 6918   5.917   2.789   8.286 -1.0011 -0.7710  0.0378
   54DOPE  H18T 6919   5.813   2.918   8.208  0.6016 -0.3132  0.1586
   54DOPE   C33 6920   5.959   1.851   6.785  0.6898 -0.5888 -0.0982
   54DOPE   H3X 6921   6.060   1.898   6.784  0.0075  1.0138  1.0828
   54DOPE   H3Y 6922   5.958   1.790   6.693  0.3786  0.3788 -0.7562
   54DOPE   C34 6923   5.947   1.778   6.917 -0.7154  0.8452 -0.6064
   54DOPE   H4X 6924   5.934   1.851   7.000 -0.9478  1.1850 -0.9358
   54DOPE   H4Y 6925   5.848   1.727   6.912 -0.9009  1.3201 -2.5954
   54DOPE   C35 6926   6.068   1.687   6.960 -0.3396 -0.3836 -0.2598
   54DOPE   H5X 6927   6.150   1.758   6.982 -0.5995 -0.6442  1.7385
   54DOPE   H5Y 6928   6.107   1.623   6.878  0.3902 -1.8400  1.1631
   54DOPE   C36 6929   6.039   1.596   7.079 -0.0582  0.3350 -0.5553
   54DOPE   H6X 6930   6.004   1.654   7.168  0.9060  0.5097 -0.2816
   54DOPE   H6Y 6931   6.139   1.553   7.102 -0.9260 -1.5462 -0.0705
   54DOPE   C37 6932   5.939   1.485   7.060 -0.0820  0.2243 -0.6619
   54DOPE   H7X 6933   5.853   1.524   7.001  0.0671  1.7599  0.0804
   54DOPE   H7Y 6934   5.977   1.400   7.000  0.7413 -0.8253  1.2544
   54DOPE   C38 6935   5.889   1.441   7.196 -0.5039  0.1977  0.2946
   54DOPE   H8X 6936   5.970   1.442   7.273  0.4829  0.1663 -0.7076
   54DOPE   H8Y 6937   5.861   1.335   7.177 -2.0684  0.6642 -0.1189
   54DOPE   C39 6938   5.756   1.507   7.233 -0.1840 -0.0243 -0.1665
   54DOPE   H9X 6939   5.673   1.512   7.160 -2.0637  0.2971  1.8956
   54DOPE  C310 6940   5.727   1.587   7.337 -0.3834 -0.6188 -0.4022
   54DOPE  H10X 6941   5.628   1.635   7.329 -0.1360  0.2016  1.2183
   54DOPE  C311 6942   5.814   1.615   7.454  0.5104 -0.4571 -0.4091
   54DOPE  H11X 6943   5.749   1.599   7.543 -2.1556 -0.1364 -2.1843
   54DOPE  H11Y 6944   5.900   1.545   7.465 -0.4453 -1.3990  1.5888
   54DOPE  C312 6945   5.873   1.758   7.442  0.8693  0.2983  0.0098
   54DOPE  H12X 6946   5.924   1.772   7.344 -0.5427 -0.0214 -0.8001
   54DOPE  H12Y 6947   5.941   1.785   7.525 -1.7006  2.2865  1.6375
   54DOPE  C313 6948   5.748   1.857   7.457 -0.2117 -0.2433  0.5613
   54DOPE  H13X 6949   5.695   1.856   7.359  2.1197  1.4070 -0.8403
   54DOPE  H13Y 6950   5.677   1.812   7.529 -1.1793 -0.6867 -0.6242
   54DOPE  C314 6951   5.786   2.003   7.494  0.3885 -0.2061  0.0349
   54DOPE  H14X 6952   5.860   2.034   7.418 -1.2658  0.9058 -1.2026
   54DOPE  H14Y 6953   5.825   2.003   7.598 -2.4821  2.5042  1.3022
   54DOPE  C315 6954   5.676   2.114   7.496 -0.0702 -0.1074  0.0043
   54DOPE  H15X 6955   5.728   2.197   7.549 -1.9886  2.6378 -2.1357
   54DOPE  H15Y 6956   5.592   2.075   7.557 -0.5868  1.5038  0.3883
   54DOPE  C316 6957   5.628   2.139   7.352  0.2438 -0.1995 -0.2230
   54DOPE  H16X 6958   5.586   2.052   7.296  2.6341 -2.0115  0.6473
   54DOPE  H16Y 6959   5.720   2.168   7.297 -1.1005  0.3284 -2.3344
   54DOPE  C317 6960   5.533   2.263   7.361  0.2404 -0.3391 -0.5390
   54DOPE  H17X 6961   5.592   2.352   7.391 -0.7540 -0.0965  0.8010
   54DOPE  H17Y 6962   5.503   2.267   7.254  1.6930 -2.1371 -1.0753
   54DOPE  C318 6963   5.416   2.241   7.451  0.5922  0.1277  0.3210
   54DOPE  H18X 6964   5.442   2.224   7.558 -4.2135  0.1912  1.7618
   54DOPE  H18Y 6965   5.348   2.328   7.452  1.4890  0.8386  0.5860
   54DOPE  H18Z 6966   5.359   2.154   7.411  0.4145  1.2135 -1.8784
   55DOPE     N 6967   0.297   5.354   6.809 -0.1948  0.5355  0.0006
   55DOPE   HN1 6968   0.246   5.292   6.743 -1.6315  0.6523  0.9650
   55DOPE   HN2 6969   0.254   5.343   6.903  1.3368 -0.3031  0.6265
   55DOPE   HN3 6970   0.289   5.457   6.791  2.0842  0.7226 -0.2115
   55DOPE   C12 6971   0.436   5.311   6.845 -0.3537  1.0771 -0.0195
   55DOPE  H12A 6972   0.474   5.403   6.894  0.7048  0.7707 -0.2469
   55DOPE  H12B 6973   0.489   5.304   6.748  1.5446  3.0846  0.7792
   55DOPE   C11 6974   0.434   5.183   6.923  0.4487 -0.0190 -0.3319
   55DOPE  H11A 6975   0.387   5.190   7.023  0.9380 -0.5920 -0.0570
   55DOPE  H11B 6976   0.541   5.157   6.937  0.8094  1.7094  0.2389
   55DOPE     P 6977   0.425   4.974   6.760  0.3533  0.3043  0.2526
   55DOPE   O13 6978   0.505   5.037   6.654 -0.6977 -0.3226  0.1426
   55DOPE   O14 6979   0.321   4.882   6.721 -0.1183  0.1449  0.4363
   55DOPE   O11 6980   0.521   4.902   6.861 -0.5707  0.2257 -0.0442
   55DOPE   O12 6981   0.364   5.092   6.839  0.6603 -0.6917 -0.5499
   55DOPE    C1 6982   0.474   4.833   6.971  0.1192  0.0775 -0.2114
   55DOPE    HA 6983   0.411   4.747   6.941 -2.1838  1.5782  0.1215
   55DOPE    HB 6984   0.422   4.898   7.044  2.1471  0.2141  1.2066
   55DOPE    C2 6985   0.597   4.781   7.059 -0.1833  0.0604 -0.1365
   55DOPE    HS 6986   0.642   4.691   7.011  1.6513  1.8233 -1.8661
   55DOPE   O21 6987   0.541   4.736   7.188 -0.1063  0.0813 -0.6027
   55DOPE   C21 6988   0.609   4.638   7.250  0.1644  0.2818  0.1558
   55DOPE   O22 6989   0.714   4.596   7.215  0.4885 -0.4522  0.3228
   55DOPE   C22 6990   0.533   4.583   7.367 -0.6262 -0.2048 -0.4547
   55DOPE   H2R 6991   0.440   4.533   7.335  0.1896 -2.3152  0.3258
   55DOPE   H2S 6992   0.495   4.671   7.424 -0.7244  0.1147 -1.0035
   55DOPE    C3 6993   0.710   4.884   7.080  0.6749  0.2896 -0.1666
   55DOPE    HX 6994   0.761   4.916   6.987  0.2311 -1.7149 -1.1631
   55DOPE    HY 6995   0.801   4.841   7.127 -0.2350 -0.3383  1.0759
   55DOPE   O31 6996   0.663   5.002   7.153  0.1900  0.1644  0.1826
   55DOPE   C31 6997   0.762   5.078   7.197  0.2625 -0.2530 -0.5962
   55DOPE   O32 6998   0.882   5.066   7.189  0.2943 -0.1113  0.1158
   55DOPE   C32 6999   0.692   5.184   7.278 -0.5998  0.7403 -0.8521
   55DOPE   H2X 7000   0.601   5.221   7.227 -0.0277  0.6391 -1.9553
   55DOPE   H2Y 7001   0.667   5.136   7.375 -0.8829  0.2159 -1.1799
   55DOPE   C23 7002   0.610   4.481   7.453  0.2381  0.3362 -0.7844
   55DOPE   H3R 7003   0.703   4.525   7.494 -0.0877 -2.4859  3.6859
   55DOPE   H3S 7004   0.641   4.400   7.384 -1.2811  1.1593 -2.5195
   55DOPE   C24 7005   0.522   4.425   7.572  0.0178 -0.0388  0.1228
   55DOPE   H4R 7006   0.448   4.354   7.530  0.5820 -0.2728 -0.4955
   55DOPE   H4S 7007   0.485   4.517   7.623  0.5183 -0.6594  1.6843
   55DOPE   C25 7008   0.593   4.336   7.670 -0.4876  0.0303 -0.2192
   55DOPE   H5R 7009   0.692   4.372   7.708 -0.0608 -0.4862 -0.8133
   55DOPE   H5S 7010   0.631   4.256   7.604  1.2817  0.9133 -0.3348
   55DOPE   C26 7011   0.510   4.285   7.778  1.6712 -0.1192 -0.1455
   55DOPE   H6R 7012   0.420   4.240   7.730  0.4171  2.8429 -0.8178
   55DOPE   H6S 7013   0.478   4.359   7.854  0.7217 -0.0787 -0.5680
   55DOPE   C27 7014   0.599   4.179   7.853  0.2357  0.1409 -0.6387
   55DOPE   H7R 7015   0.693   4.228   7.885  1.1048 -1.4318 -0.6839
   55DOPE   H7S 7016   0.631   4.099   7.783 -0.8105 -0.7109 -0.1902
   55DOPE   C28 7017   0.545   4.106   7.979  0.3874 -0.2533 -0.5826
   55DOPE   H8R 7018   0.609   4.017   7.993 -2.4614 -2.5257 -0.9693
   55DOPE   H8S 7019   0.451   4.052   7.955  0.5268 -1.0093  0.4735
   55DOPE   C29 7020   0.517   4.196   8.097 -0.0188  0.2698  1.5503
   55DOPE   H9R 7021   0.419   4.243   8.109 -0.3106  0.1806 -0.2074
   55DOPE  C210 7022   0.604   4.209   8.196 -0.1990  0.2220  0.5144
   55DOPE  H10R 7023   0.563   4.255   8.287 -0.3185 -0.2703  0.7105
   55DOPE  C211 7024   0.748   4.150   8.220  0.5161  0.7543  0.8589
   55DOPE  H11R 7025   0.782   4.072   8.149  0.7125 -1.1664  2.9898
   55DOPE  H11S 7026   0.747   4.100   8.319 -0.8022 -0.8120  0.1062
   55DOPE  C212 7027   0.853   4.262   8.236  0.5592 -0.3750  0.5024
   55DOPE  H12R 7028   0.945   4.218   8.281 -0.2983 -1.1614  1.5203
   55DOPE  H12S 7029   0.820   4.332   8.316  1.6274  1.0362 -0.2456
   55DOPE  C213 7030   0.890   4.329   8.103 -0.0082  0.3393  0.7094
   55DOPE  H13R 7031   0.792   4.364   8.064  0.6062 -0.1435 -1.3912
   55DOPE  H13S 7032   0.934   4.260   8.028 -1.4188  0.2456 -0.0587
   55DOPE  C214 7033   0.994   4.449   8.109  0.2075 -0.5632  0.4921
   55DOPE  H14R 7034   1.052   4.439   8.203 -1.1972 -0.3252  1.4195
   55DOPE  H14S 7035   0.946   4.549   8.121  0.5498 -0.4040  0.5575
   55DOPE  C215 7036   1.094   4.456   7.990 -0.3193 -0.4715  0.2230
   55DOPE  H15R 7037   1.029   4.479   7.902  1.0767 -0.9993 -0.9901
   55DOPE  H15S 7038   1.137   4.354   7.986 -0.7248 -0.7686  2.3059
   55DOPE  C216 7039   1.185   4.579   8.009  0.6550 -0.6413  0.1667
   55DOPE  H16R 7040   1.262   4.565   8.087 -0.2798 -2.4405  0.8121
   55DOPE  H16S 7041   1.117   4.663   8.033 -0.3577 -1.3702 -0.0889
   55DOPE  C217 7042   1.253   4.616   7.879  0.1637 -1.0413  1.0134
   55DOPE  H17R 7043   1.170   4.631   7.808  0.6823 -0.2138  0.5594
   55DOPE  H17S 7044   1.319   4.528   7.861 -0.2929 -1.9140  3.2432
   55DOPE  C218 7045   1.335   4.741   7.903  0.4116 -0.1131 -0.0538
   55DOPE  H18R 7046   1.396   4.764   7.813 -1.8665  0.0720 -1.6389
   55DOPE  H18S 7047   1.411   4.737   7.984  0.6425  0.4080 -0.2440
   55DOPE  H18T 7048   1.266   4.826   7.921 -0.1357 -0.2501 -1.3629
   55DOPE   C33 7049   0.775   5.309   7.307 -0.0074 -0.1050  0.1418
   55DOPE   H3X 7050   0.803   5.364   7.215  0.7190  0.1734  0.5146
   55DOPE   H3Y 7051   0.871   5.276   7.353 -0.8966 -0.3334  1.9350
   55DOPE   C34 7052   0.696   5.418   7.395 -0.1511 -0.1191 -0.4445
   55DOPE   H4X 7053   0.609   5.453   7.336 -1.7235 -1.9633  0.6582
   55DOPE   H4Y 7054   0.658   5.364   7.484  0.0337 -1.5336 -1.1848
   55DOPE   C35 7055   0.781   5.542   7.435 -0.0878  0.7354 -0.0435
   55DOPE   H5X 7056   0.890   5.528   7.450  0.0457  0.2970 -1.2989
   55DOPE   H5Y 7057   0.736   5.584   7.528 -0.8758  1.4775 -0.7365
   55DOPE   C36 7058   0.768   5.655   7.331 -0.4039 -0.5555  0.3818
   55DOPE   H6X 7059   0.667   5.656   7.285  0.6029 -0.2018 -2.0064
   55DOPE   H6Y 7060   0.834   5.628   7.245 -0.8611 -1.7245  0.3855
   55DOPE   C37 7061   0.803   5.796   7.382 -0.6911  0.5814 -0.5872
   55DOPE   H7X 7062   0.805   5.875   7.305 -0.6363  2.5886  1.3652
   55DOPE   H7Y 7063   0.732   5.813   7.466  1.5576  0.3361  1.4820
   55DOPE   C38 7064   0.939   5.807   7.448 -0.4003 -0.2445  1.0465
   55DOPE   H8X 7065   1.020   5.770   7.383 -0.6520  3.5142 -1.7095
   55DOPE   H8Y 7066   0.940   5.750   7.544  1.7655 -2.0228  0.0404
   55DOPE   C39 7067   0.978   5.957   7.475  0.3515 -0.1753  0.1856
   55DOPE   H9X 7068   0.986   6.013   7.381  0.7033 -1.9372 -0.8744
   55DOPE  C310 7069   1.004   6.019   7.594 -0.0394 -0.0750  0.1181
   55DOPE  H10X 7070   1.006   6.129   7.591 -2.2827 -0.0029 -1.9450
   55DOPE  C311 7071   1.029   5.948   7.724 -0.3307 -0.4606 -0.3675
   55DOPE  H11X 7072   1.085   5.854   7.705 -0.7333 -0.7610 -0.1043
   55DOPE  H11Y 7073   1.092   6.015   7.786 -1.2792  0.6749 -0.5724
   55DOPE  C312 7074   0.899   5.910   7.801  0.3509 -0.2611 -0.0711
   55DOPE  H12X 7075   0.812   5.875   7.742  0.4086 -2.7756  1.1936
   55DOPE  H12Y 7076   0.873   6.010   7.843  1.3167  0.1954 -0.5431
   55DOPE  C313 7077   0.914   5.804   7.909  0.3591  0.0534  0.3806
   55DOPE  H13X 7078   0.998   5.836   7.974  0.2768  1.2049 -0.0598
   55DOPE  H13Y 7079   0.820   5.798   7.968  1.6312 -0.1831  2.4829
   55DOPE  C314 7080   0.935   5.667   7.843 -1.0807 -0.3226 -0.7426
   55DOPE  H14X 7081   1.034   5.662   7.794 -1.6441 -0.3662 -1.9137
   55DOPE  H14Y 7082   0.855   5.651   7.767 -1.3470  0.9140 -0.7427
   55DOPE  C315 7083   0.935   5.556   7.952 -0.5753 -0.0505 -0.1206
   55DOPE  H15X 7084   0.830   5.526   7.973 -0.5327 -0.3004 -0.2619
   55DOPE  H15Y 7085   0.976   5.602   8.044 -0.0633  0.5811 -0.6458
   55DOPE  C316 7086   1.019   5.427   7.910  0.4963  0.0320 -0.2988
   55DOPE  H16X 7087   1.023   5.353   7.993  0.7447  0.5383  0.1408
   55DOPE  H16Y 7088   1.121   5.464   7.886 -0.1454  1.4364 -0.9598
   55DOPE  C317 7089   0.965   5.357   7.785  0.4352  0.1280  0.1522
   55DOPE  H17X 7090   0.937   5.432   7.707 -2.1459 -2.0224 -1.1347
   55DOPE  H17Y 7091   1.030   5.282   7.735 -0.0259 -0.7871  0.9125
   55DOPE  C318 7092   0.839   5.283   7.823 -0.3988  0.1480  0.0082
   55DOPE  H18X 7093   0.762   5.349   7.869 -0.0315 -1.6366  3.4935
   55DOPE  H18Y 7094   0.794   5.229   7.736  0.7828 -1.0393  0.1074
   55DOPE  H18Z 7095   0.866   5.205   7.897 -1.4984  0.4345  0.7318
   56DOPE     N 7096   1.045   5.294   6.414 -0.5100  0.3397 -0.1693
   56DOPE   HN1 7097   1.002   5.209   6.373 -2.5162  0.2738  1.8997
   56DOPE   HN2 7098   1.002   5.292   6.508  2.5663 -4.0153  1.5053
   56DOPE   HN3 7099   1.018   5.377   6.357  0.4988  0.9803  0.2634
   56DOPE   C12 7100   1.190   5.284   6.439  0.0060  0.7708 -0.3490
   56DOPE  H12A 7101   1.247   5.297   6.344  1.9540  1.0055  0.7961
   56DOPE  H12B 7102   1.214   5.182   6.476 -0.3142 -0.1231 -2.4501
   56DOPE   C11 7103   1.224   5.392   6.544 -0.4326  0.7495  0.1826
   56DOPE  H11A 7104   1.331   5.381   6.571  0.0009  1.5245 -1.1653
   56DOPE  H11B 7105   1.163   5.371   6.635 -1.3219  1.1442 -0.3018
   56DOPE     P 7106   1.311   5.607   6.416  0.3221  0.5859 -0.4331
   56DOPE   O13 7107   1.264   5.679   6.299 -0.5092 -0.0215  0.0951
   56DOPE   O14 7108   1.430   5.528   6.410 -0.1026  0.1304  0.5220
   56DOPE   O11 7109   1.319   5.718   6.534 -0.4334  0.2271 -0.0984
   56DOPE   O12 7110   1.205   5.519   6.485  0.7553 -0.4245  0.7574
   56DOPE    C1 7111   1.394   5.687   6.653 -0.3098 -0.0956  0.7210
   56DOPE    HA 7112   1.487   5.749   6.658 -1.1848  1.4671 -1.2543
   56DOPE    HB 7113   1.437   5.585   6.649  0.1033  0.0843  0.4035
   56DOPE    C2 7114   1.307   5.685   6.783  0.0085 -0.1660 -0.3102
   56DOPE    HS 7115   1.220   5.618   6.763 -0.7143  0.1240  1.7280
   56DOPE   O21 7116   1.268   5.822   6.812  0.4667 -0.0403 -0.4629
   56DOPE   C21 7117   1.162   5.833   6.888  0.4194 -0.5512 -0.7015
   56DOPE   O22 7118   1.090   5.739   6.924 -0.1302 -0.0889  0.3252
   56DOPE   C22 7119   1.132   5.985   6.912 -0.5242 -0.3830  0.3592
   56DOPE   H2R 7120   1.082   6.028   6.822  1.0083  0.6845 -0.0246
   56DOPE   H2S 7121   1.231   6.030   6.934 -0.2485 -0.7776 -0.0544
   56DOPE    C3 7122   1.395   5.633   6.903 -0.0743  0.6216 -0.9448
   56DOPE    HX 7123   1.481   5.702   6.917  2.0342 -2.0247 -0.1612
   56DOPE    HY 7124   1.452   5.540   6.886  3.4371  2.0043  1.9019
   56DOPE   O31 7125   1.322   5.628   7.027  0.5266  0.1804 -0.6281
   56DOPE   C31 7126   1.233   5.525   7.041  0.5154  0.7743 -0.2592
   56DOPE   O32 7127   1.232   5.421   6.974  0.6957  0.2214  0.0111
   56DOPE   C32 7128   1.127   5.556   7.142  0.4543  0.9114 -0.0461
   56DOPE   H2X 7129   1.120   5.666   7.151 -1.4132  0.8525 -0.3867
   56DOPE   H2Y 7130   1.027   5.527   7.104  0.8555 -2.1833  0.9332
   56DOPE   C23 7131   1.030   5.999   7.028 -0.4635 -0.0642 -0.6730
   56DOPE   H3R 7132   1.092   5.998   7.121  0.5546 -0.6950 -1.3315
   56DOPE   H3S 7133   0.951   5.921   7.029 -1.2277  0.5912 -3.5695
   56DOPE   C24 7134   0.955   6.124   7.013  0.4503 -0.3921  0.4029
   56DOPE   H4R 7135   0.878   6.119   6.932  1.1108  3.4860 -0.6892
   56DOPE   H4S 7136   1.017   6.209   6.977  0.5385 -1.5185 -2.3732
   56DOPE   C25 7137   0.888   6.160   7.143 -0.0039 -0.1960  0.5172
   56DOPE   H5R 7138   0.965   6.186   7.219  1.0194 -0.5073 -0.3852
   56DOPE   H5S 7139   0.820   6.074   7.161 -0.3525 -1.2260 -4.3573
   56DOPE   C26 7140   0.796   6.289   7.145 -0.3437 -0.4740  1.1297
   56DOPE   H6R 7141   0.720   6.265   7.067  0.4572  1.0555 -0.1816
   56DOPE   H6S 7142   0.851   6.378   7.109 -2.1379  0.5084  0.7071
   56DOPE   C27 7143   0.724   6.300   7.280 -0.0914 -0.2698  0.6344
   56DOPE   H7R 7144   0.666   6.205   7.285 -0.7285  0.0087 -0.8090
   56DOPE   H7S 7145   0.657   6.389   7.278  0.5414  0.3321  2.9845
   56DOPE   C28 7146   0.817   6.304   7.403 -0.4941  0.0637  0.2555
   56DOPE   H8R 7147   0.901   6.231   7.409 -1.0823 -0.7170 -0.7246
   56DOPE   H8S 7148   0.749   6.283   7.488 -0.4043  2.3892  0.9534
   56DOPE   C29 7149   0.889   6.437   7.418  0.1186 -0.0178 -0.4427
   56DOPE   H9R 7150   0.915   6.476   7.319 -2.1247 -1.3021 -1.6104
   56DOPE  C210 7151   0.910   6.516   7.526  0.2337  0.3646  0.5761
   56DOPE  H10R 7152   0.957   6.613   7.503 -1.5196  1.0493 -0.3444
   56DOPE  C211 7153   0.891   6.475   7.670 -0.0298 -0.9670 -0.1114
   56DOPE  H11R 7154   0.886   6.364   7.665  1.9375 -1.0581 -0.8518
   56DOPE  H11S 7155   0.791   6.515   7.696 -0.4204 -1.3244 -1.0301
   56DOPE  C212 7156   1.009   6.507   7.764  0.3625  1.1149 -1.0544
   56DOPE  H12R 7157   1.032   6.616   7.769 -0.6456  1.3114 -0.3011
   56DOPE  H12S 7158   1.099   6.458   7.722 -1.3052 -0.6886 -2.7097
   56DOPE  C213 7159   0.990   6.462   7.907  0.3369 -0.3743  0.2423
   56DOPE  H13R 7160   0.891   6.497   7.942  1.4787  2.0513  1.2685
   56DOPE  H13S 7161   1.052   6.531   7.968 -1.0832  0.6750  0.5466
   56DOPE  C214 7162   1.016   6.312   7.934 -0.6135  0.3662  0.8014
   56DOPE  H14R 7163   1.117   6.283   7.897 -0.5807 -2.5079  2.8337
   56DOPE  H14S 7164   0.941   6.260   7.872 -1.2600  1.0591  0.9868
   56DOPE  C215 7165   1.009   6.284   8.082 -0.4287  0.7405 -0.7190
   56DOPE  H15R 7166   0.920   6.337   8.122  0.9132  0.0995  3.6685
   56DOPE  H15S 7167   1.104   6.319   8.129 -0.8448  0.6278  0.2346
   56DOPE  C216 7168   0.996   6.142   8.126 -0.3472  0.2646 -0.3861
   56DOPE  H16R 7169   1.073   6.081   8.074  0.4430  1.6099 -0.8351
   56DOPE  H16S 7170   0.898   6.097   8.096 -1.1922  0.7908  1.4411
   56DOPE  C217 7171   1.014   6.126   8.278 -0.4287  0.0879 -0.1768
   56DOPE  H17R 7172   1.112   6.161   8.317 -0.5248  1.3520 -1.0020
   56DOPE  H17S 7173   0.997   6.018   8.300  0.0069  0.5083  2.5624
   56DOPE  C218 7174   0.913   6.202   8.363 -0.4879 -0.6432 -0.4613
   56DOPE  H18R 7175   0.810   6.173   8.332 -1.5016  3.0275 -1.0749
   56DOPE  H18S 7176   0.930   6.306   8.328  0.7040 -0.3142  1.0176
   56DOPE  H18T 7177   0.939   6.196   8.470 -3.3886  0.6476  0.4249
   56DOPE   C33 7178   1.149   5.495   7.279 -0.2235  0.2462 -1.0374
   56DOPE   H3X 7179   1.063   5.536   7.336  0.3488 -0.5356  0.4454
   56DOPE   H3Y 7180   1.234   5.528   7.343 -2.0866 -0.1340  1.7999
   56DOPE   C34 7181   1.144   5.345   7.279  0.4325 -0.0851  0.4859
   56DOPE   H4X 7182   1.050   5.299   7.243  0.6041 -0.4818  0.5318
   56DOPE   H4Y 7183   1.230   5.301   7.224  2.0223 -0.3411  3.0020
   56DOPE   C35 7184   1.155   5.291   7.425 -0.3778 -0.9103 -0.0888
   56DOPE   H5X 7185   1.075   5.343   7.483  0.2429  0.5406 -0.5025
   56DOPE   H5Y 7186   1.248   5.323   7.477 -0.7139  0.4438 -0.2674
   56DOPE   C36 7187   1.146   5.140   7.424 -0.2215 -0.1345 -0.1069
   56DOPE   H6X 7188   1.217   5.117   7.342 -1.1353  1.4265 -1.3964
   56DOPE   H6Y 7189   1.048   5.115   7.377  0.6391  0.5032 -2.3931
   56DOPE   C37 7190   1.158   5.066   7.554 -0.5484  0.6407 -0.0181
   56DOPE   H7X 7191   1.254   5.103   7.596  0.8238 -1.2753 -1.2784
   56DOPE   H7Y 7192   1.071   5.088   7.619 -1.2232  1.7698 -1.2485
   56DOPE   C38 7193   1.167   4.913   7.537  0.1666 -0.5085  1.0060
   56DOPE   H8X 7194   1.198   4.869   7.635 -0.2755  0.7430  1.7269
   56DOPE   H8Y 7195   1.249   4.882   7.469 -2.3862 -0.3470 -2.3881
   56DOPE   C39 7196   1.044   4.841   7.485  0.2873  0.0221  0.1289
   56DOPE   H9X 7197   1.047   4.804   7.382  0.9825 -0.0523  0.1681
   56DOPE  C310 7198   0.924   4.858   7.543  0.6669 -0.2684 -0.3807
   56DOPE  H10X 7199   0.837   4.820   7.487  0.2761 -0.7462  0.5236
   56DOPE  C311 7200   0.878   4.922   7.677  0.0593  0.0059  0.3782
   56DOPE  H11X 7201   0.973   4.929   7.734 -0.0488  0.7938  0.4757
   56DOPE  H11Y 7202   0.838   5.026   7.679 -0.5244 -0.2269  1.0052
   56DOPE  C312 7203   0.776   4.845   7.756  0.1522  0.1321  0.1903
   56DOPE  H12X 7204   0.679   4.827   7.705  0.3675  1.0449 -0.5604
   56DOPE  H12Y 7205   0.755   4.899   7.850 -0.5467 -1.5511  1.0454
   56DOPE  C313 7206   0.822   4.704   7.797 -0.0017  0.7257  0.2014
   56DOPE  H13X 7207   0.839   4.635   7.712  1.7595 -0.5857  1.5648
   56DOPE  H13Y 7208   0.915   4.714   7.857  0.0122 -0.0866  0.3178
   56DOPE  C314 7209   0.706   4.630   7.884 -0.3869 -1.0696 -0.0692
   56DOPE  H14X 7210   0.760   4.533   7.896 -0.4109 -0.8414  2.2907
   56DOPE  H14Y 7211   0.615   4.611   7.823 -1.4210  3.2960 -0.2143
   56DOPE  C315 7212   0.660   4.707   8.009  0.0351 -0.4763  0.0140
   56DOPE  H15X 7213   0.605   4.797   7.975 -0.8279 -1.4250 -1.1798
   56DOPE  H15Y 7214   0.755   4.738   8.058  1.0407 -0.4254 -1.8673
   56DOPE  C316 7215   0.573   4.627   8.095 -0.1344  0.6078  0.0938
   56DOPE  H16X 7216   0.628   4.534   8.122 -1.6553 -0.3370  0.0514
   56DOPE  H16Y 7217   0.481   4.599   8.039 -0.3458  2.8888 -0.7962
   56DOPE  C317 7218   0.525   4.694   8.222  1.3217  0.5635  0.3003
   56DOPE  H17X 7219   0.504   4.802   8.204  3.4609  0.7700 -1.3090
   56DOPE  H17Y 7220   0.436   4.636   8.254  2.5203 -1.8905 -0.5693
   56DOPE  C318 7221   0.619   4.687   8.336 -0.4364  0.1982 -0.0553
   56DOPE  H18X 7222   0.653   4.583   8.358 -0.4808 -0.0881 -1.2687
   56DOPE  H18Y 7223   0.716   4.737   8.314  0.3446 -1.4190 -0.4874
   56DOPE  H18Z 7224   0.575   4.738   8.424  0.2269 -0.6778  0.8070
   57DOPE     N 7225   6.361   7.243   5.826  0.8334  0.0941 -0.6280
   57DOPE   HN1 7226   6.369   7.337   5.783  1.1830  0.9319  1.1949
   57DOPE   HN2 7227   6.434   7.182   5.784  0.9310  0.1500 -0.5396
   57DOPE   HN3 7228   6.270   7.200   5.800  0.0760 -0.5053  2.6145
   57DOPE   C12 7229   6.383   7.280   5.971 -0.0930  0.0219 -0.5185
   57DOPE  H12A 7230   6.482   7.329   5.964 -0.4570  0.8809  0.1775
   57DOPE  H12B 7231   6.371   7.189   6.034 -0.7896  0.6899  0.3439
   57DOPE   C11 7232   6.269   7.370   6.029 -0.7230 -0.6764 -0.2715
   57DOPE  H11A 7233   6.307   7.416   6.123  0.5814  1.7771 -1.8868
   57DOPE  H11B 7234   6.185   7.298   6.038 -2.7099  1.5066 -0.0688
   57DOPE     P 7235   6.116   7.569   5.978  0.3625 -0.4608 -0.0405
   57DOPE   O13 7236   6.001   7.480   6.006 -0.2021  0.2990 -0.3339
   57DOPE   O14 7237   6.099   7.664   5.865  0.4039 -0.7382 -0.3210
   57DOPE   O11 7238   6.173   7.642   6.112 -0.1942 -0.1810  0.2941
   57DOPE   O12 7239   6.236   7.474   5.941 -0.0019 -0.5581  0.7389
   57DOPE    C1 7240   6.095   7.637   6.233  0.4388  0.2267 -0.4423
   57DOPE    HA 7241   6.117   7.537   6.276 -0.1248 -0.4543 -1.6983
   57DOPE    HB 7242   5.987   7.651   6.214  0.6026  1.6474 -0.4621
   57DOPE    C2 7243   6.137   7.749   6.326 -0.0559 -0.7777  0.1589
   57DOPE    HS 7244   6.130   7.844   6.270  0.8909 -1.3455 -0.9784
   57DOPE   O21 7245   6.274   7.725   6.361  0.6018  0.0298  0.2282
   57DOPE   C21 7246   6.334   7.832   6.409  0.1130  0.3020  0.2111
   57DOPE   O22 7247   6.284   7.940   6.425  0.8545  0.0258 -0.3119
   57DOPE   C22 7248   6.473   7.795   6.453 -0.3501  0.2280 -0.0259
   57DOPE   H2R 7249   6.548   7.875   6.437  0.1810 -0.1824  0.3826
   57DOPE   H2S 7250   6.496   7.709   6.386 -1.4270  0.7864 -1.1579
   57DOPE    C3 7251   6.052   7.755   6.462  0.0953  0.0694  0.8160
   57DOPE    HX 7252   5.944   7.731   6.448  0.3532 -0.5359 -0.2889
   57DOPE    HY 7253   6.067   7.858   6.502  2.0039  0.4083 -0.6374
   57DOPE   O31 7254   6.120   7.673   6.561 -0.0102  0.2779 -0.4365
   57DOPE   C31 7255   6.064   7.562   6.584  0.2249  1.2610  0.3380
   57DOPE   O32 7256   5.967   7.515   6.527 -0.2977  0.5527 -0.2726
   57DOPE   C32 7257   6.144   7.492   6.686  0.5641  0.9588  0.2997
   57DOPE   H2X 7258   6.165   7.389   6.651  0.2600 -0.1120  3.0334
   57DOPE   H2Y 7259   6.239   7.546   6.705  0.2625  0.9708  2.0140
   57DOPE   C23 7260   6.475   7.752   6.605 -0.6457 -0.3435 -0.0458
   57DOPE   H3R 7261   6.552   7.676   6.631  1.0917  1.2133 -0.4378
   57DOPE   H3S 7262   6.381   7.709   6.645  0.2584 -1.5782  0.8376
   57DOPE   C24 7263   6.507   7.861   6.705 -0.7933 -0.3847 -0.3759
   57DOPE   H4R 7264   6.458   7.839   6.802 -0.4522 -0.2135 -0.1652
   57DOPE   H4S 7265   6.463   7.955   6.667 -1.9558 -0.6434  0.2927
   57DOPE   C25 7266   6.660   7.893   6.727 -0.1913  0.3893 -0.1117
   57DOPE   H5R 7267   6.710   7.928   6.634  0.6046 -2.1758 -0.7295
   57DOPE   H5S 7268   6.723   7.804   6.748 -1.2263 -0.9344 -2.2614
   57DOPE   C26 7269   6.687   8.009   6.829  0.6532 -0.9815  0.1079
   57DOPE   H6R 7270   6.635   7.970   6.919 -0.8769 -0.6612 -0.5989
   57DOPE   H6S 7271   6.629   8.098   6.796  1.3751 -0.1006  1.1329
   57DOPE   C27 7272   6.830   8.057   6.862  0.8214 -0.0111 -0.4184
   57DOPE   H7R 7273   6.826   8.164   6.888 -2.0738 -0.5471  1.8033
   57DOPE   H7S 7274   6.896   8.042   6.773  2.6662  1.8051  0.5706
   57DOPE   C28 7275   6.884   7.990   6.990 -0.1418 -0.6535 -0.5542
   57DOPE   H8R 7276   6.860   7.883   6.973 -0.0919 -0.8265  0.3823
   57DOPE   H8S 7277   6.813   8.019   7.071  0.8828 -0.7710  0.4183
   57DOPE   C29 7278   7.030   8.013   7.021 -0.0177 -0.4215 -0.1843
   57DOPE   H9R 7279   7.099   7.941   6.973  0.3260  1.8381 -3.4210
   57DOPE  C210 7280   7.080   8.110   7.096 -0.4579  0.1868 -0.0527
   57DOPE  H10R 7281   7.190   8.113   7.102 -0.5599  2.5037  1.9195
   57DOPE  C211 7282   7.004   8.212   7.171 -0.7256 -0.0626  0.0179
   57DOPE  H11R 7283   6.898   8.219   7.139 -1.8070  1.6481  3.4213
   57DOPE  H11S 7284   7.052   8.312   7.166 -1.9469  0.5189 -0.4618
   57DOPE  C212 7285   6.984   8.175   7.323 -0.0448 -0.1753  0.4662
   57DOPE  H12R 7286   6.920   8.084   7.325  1.3659 -1.2285 -0.3156
   57DOPE  H12S 7287   6.934   8.262   7.372 -0.9350 -0.6007  0.3361
   57DOPE  C213 7288   7.108   8.157   7.403  0.5865  0.6452 -0.0565
   57DOPE  H13R 7289   7.158   8.257   7.402  1.3593  0.2788 -2.1674
   57DOPE  H13S 7290   7.171   8.075   7.362  1.1338  0.6008  0.8495
   57DOPE  C214 7291   7.093   8.112   7.551  0.3000  0.4304 -0.0906
   57DOPE  H14R 7292   7.196   8.125   7.592  0.0306  0.0752  0.7077
   57DOPE  H14S 7293   7.067   8.004   7.546 -0.0913  0.5666 -1.1700
   57DOPE  C215 7294   7.000   8.204   7.630  0.1930  0.2334  0.4016
   57DOPE  H15R 7295   6.897   8.189   7.593  0.6878  1.3927 -1.5778
   57DOPE  H15S 7296   7.025   8.309   7.603 -1.5087  0.3459 -0.8529
   57DOPE  C216 7297   7.008   8.204   7.783 -0.5695  0.0790 -0.6032
   57DOPE  H16R 7298   7.116   8.224   7.801 -0.2204 -2.2631  0.2880
   57DOPE  H16S 7299   6.988   8.109   7.836  0.0379 -0.4500 -1.2941
   57DOPE  C217 7300   6.914   8.296   7.858 -0.6534 -0.5059  0.2679
   57DOPE  H17R 7301   6.943   8.289   7.965 -0.8188 -2.0048  0.2468
   57DOPE  H17S 7302   6.814   8.247   7.857 -0.7732 -0.3054 -1.8011
   57DOPE  C218 7303   6.911   8.437   7.809 -0.3171  0.4465  0.1506
   57DOPE  H18R 7304   6.844   8.490   7.880 -1.8256  1.7992 -2.1559
   57DOPE  H18S 7305   6.861   8.441   7.710  1.2133  1.3104 -0.6087
   57DOPE  H18T 7306   7.008   8.491   7.812  0.3645 -0.6873 -0.6155
   57DOPE   C33 7307   6.074   7.479   6.819 -0.2748  0.4145  0.0530
   57DOPE   H3X 7308   6.113   7.386   6.865 -1.3719 -0.1871 -0.2035
   57DOPE   H3Y 7309   5.964   7.474   6.808 -0.1234 -1.6644 -0.8865
   57DOPE   C34 7310   6.115   7.602   6.900 -0.0061 -0.2615  0.0860
   57DOPE   H4X 7311   6.221   7.591   6.928  0.0999  1.4574  0.4709
   57DOPE   H4Y 7312   6.106   7.687   6.829 -0.7090  0.7568  1.3283
   57DOPE   C35 7313   6.036   7.620   7.023  0.2897 -0.6122 -0.3785
   57DOPE   H5X 7314   6.083   7.694   7.092 -0.4360 -0.7241  0.2583
   57DOPE   H5Y 7315   6.033   7.522   7.075 -0.9861 -1.0479 -1.2249
   57DOPE   C36 7316   5.885   7.659   7.002 -0.1598  0.0513 -0.3076
   57DOPE   H6X 7317   5.832   7.565   6.974  1.3116 -0.7636 -0.4472
   57DOPE   H6Y 7318   5.866   7.724   6.914 -0.5062 -1.3361 -1.3012
   57DOPE   C37 7319   5.818   7.722   7.130 -0.0824 -0.0228  0.1864
   57DOPE   H7X 7320   5.837   7.649   7.212  2.6625  2.2194  1.7324
   57DOPE   H7Y 7321   5.887   7.805   7.157  1.4749 -1.0927 -0.3830
   57DOPE   C38 7322   5.674   7.764   7.131  0.4859  0.0206  0.1737
   57DOPE   H8X 7323   5.611   7.676   7.106 -0.2865  0.6251 -0.0455
   57DOPE   H8Y 7324   5.654   7.840   7.052 -1.0325 -0.7614 -0.2252
   57DOPE   C39 7325   5.633   7.812   7.264  0.2479  0.4552 -0.2002
   57DOPE   H9X 7326   5.625   7.739   7.347 -0.4550 -0.0022 -0.6581
   57DOPE  C310 7327   5.610   7.946   7.290 -0.1356  0.4742 -0.6035
   57DOPE  H10X 7328   5.585   7.965   7.396 -3.1829 -1.3283 -0.8967
   57DOPE  C311 7329   5.625   8.065   7.201 -0.9414 -0.0144  0.0055
   57DOPE  H11X 7330   5.693   8.040   7.117  0.2068  0.0442  0.8936
   57DOPE  H11Y 7331   5.524   8.095   7.166 -1.7499  0.5214  2.6027
   57DOPE  C312 7332   5.695   8.184   7.275 -0.1185  0.6565  0.2248
   57DOPE  H12X 7333   5.720   8.258   7.196  0.5038 -0.1736 -0.3883
   57DOPE  H12Y 7334   5.796   8.170   7.319 -0.3143  1.7663  1.0485
   57DOPE  C313 7335   5.599   8.254   7.377  0.1615  0.5756  0.2242
   57DOPE  H13X 7336   5.494   8.260   7.340  0.1671  1.3813  0.3225
   57DOPE  H13Y 7337   5.597   8.184   7.463  1.3086 -1.2655 -1.1644
   57DOPE  C314 7338   5.637   8.397   7.424  0.8345  0.3567 -0.0719
   57DOPE  H14X 7339   5.742   8.403   7.460  0.3760  0.8802  1.2365
   57DOPE  H14Y 7340   5.565   8.428   7.503  0.4195  0.3166 -0.4312
   57DOPE  C315 7341   5.603   8.494   7.309 -0.3386 -0.0614  0.2988
   57DOPE  H15X 7342   5.494   8.486   7.289 -0.0959  1.9792 -2.4674
   57DOPE  H15Y 7343   5.666   8.463   7.222  0.5054 -2.2087  1.5996
   57DOPE  C316 7344   5.618   8.639   7.336 -0.1885  0.5330 -1.2546
   57DOPE  H16X 7345   5.542   8.666   7.413  2.3409 -0.3055  1.7550
   57DOPE  H16Y 7346   5.603   8.710   7.252 -1.5257  1.2408 -0.4558
   57DOPE  C317 7347   5.753   8.668   7.410 -0.0751  0.1815 -0.2465
   57DOPE  H17X 7348   5.755   8.613   7.507 -2.3767 -0.4803 -0.5003
   57DOPE  H17Y 7349   5.837   8.638   7.345 -0.0213 -2.3383  0.8811
   57DOPE  C318 7350   5.772   8.815   7.455  0.2841  1.1085  0.3989
   57DOPE  H18X 7351   5.818   8.884   7.381 -1.3430  2.2303  0.3962
   57DOPE  H18Y 7352   5.679   8.864   7.491 -0.3167  1.7039 -1.8136
   57DOPE  H18Z 7353   5.832   8.818   7.549  0.0329 -2.0989  0.7560
   58DOPE     N 7354   4.298   3.870   6.126 -0.4409 -0.5797  0.6453
   58DOPE   HN1 7355   4.335   3.804   6.054  1.5283  0.3976  0.7074
   58DOPE   HN2 7356   4.194   3.863   6.124 -0.5230  0.4543  1.0139
   58DOPE   HN3 7357   4.325   3.962   6.087 -0.5116 -0.8286 -0.0092
   58DOPE   C12 7358   4.365   3.834   6.256  0.2536  0.6371 -0.2114
   58DOPE  H12A 7359   4.361   3.723   6.269 -0.2735  0.8655  1.9743
   58DOPE  H12B 7360   4.311   3.871   6.346  0.1317 -1.7386  0.7830
   58DOPE   C11 7361   4.509   3.884   6.251 -0.2482 -0.2244 -0.0540
   58DOPE  H11A 7362   4.550   3.814   6.175 -2.0750  0.4592 -1.7523
   58DOPE  H11B 7363   4.562   3.875   6.348 -0.9203 -1.8785  0.1803
   58DOPE     P 7364   4.652   4.087   6.183 -0.3247 -0.1941 -0.0772
   58DOPE   O13 7365   4.625   4.230   6.147  0.1697  0.0455  0.2455
   58DOPE   O14 7366   4.739   4.010   6.088  0.0787  0.5137 -0.0692
   58DOPE   O11 7367   4.721   4.092   6.322 -0.2823 -0.5731  0.7171
   58DOPE   O12 7368   4.515   4.019   6.213 -0.8035 -0.3877  0.3964
   58DOPE    C1 7369   4.684   4.178   6.423 -0.1540  0.0019 -0.6441
   58DOPE    HA 7370   4.574   4.170   6.436 -0.2983  0.5951 -1.4538
   58DOPE    HB 7371   4.720   4.282   6.410 -1.1184  0.9471  3.0239
   58DOPE    C2 7372   4.734   4.143   6.573  0.2071  0.1100 -0.1585
   58DOPE    HS 7373   4.837   4.182   6.587  0.1029 -0.1530  1.5388
   58DOPE   O21 7374   4.741   4.001   6.578  0.4034 -0.1974  0.0831
   58DOPE   C21 7375   4.812   3.947   6.666 -0.6641 -0.5489  0.2231
   58DOPE   O22 7376   4.898   4.003   6.739 -0.2058 -0.0510  0.8590
   58DOPE   C22 7377   4.778   3.797   6.661 -0.7396 -0.3038  0.1338
   58DOPE   H2R 7378   4.748   3.756   6.562  0.1887  0.2996 -0.4160
   58DOPE   H2S 7379   4.693   3.785   6.731 -1.8817  0.8453 -1.0115
   58DOPE    C3 7380   4.636   4.208   6.673 -0.0627 -1.5100  0.2402
   58DOPE    HX 7381   4.532   4.173   6.651 -0.3495 -1.8101  1.9178
   58DOPE    HY 7382   4.627   4.319   6.668 -1.4658 -1.5571  1.0165
   58DOPE   O31 7383   4.671   4.172   6.811  0.5723 -0.8232 -0.1471
   58DOPE   C31 7384   4.754   4.252   6.879  0.1670  0.7918 -0.6208
   58DOPE   O32 7385   4.804   4.349   6.825  0.4032  0.7680 -0.0025
   58DOPE   C32 7386   4.763   4.209   7.024 -0.3552  0.3994  0.1480
   58DOPE   H2X 7387   4.679   4.252   7.081  0.0777  3.0109 -1.0494
   58DOPE   H2Y 7388   4.765   4.098   7.028 -1.2559  0.2902 -1.4847
   58DOPE   C23 7389   4.903   3.709   6.705  0.0391 -0.1545 -0.2852
   58DOPE   H3R 7390   4.998   3.742   6.659 -0.4092  0.7848 -0.5627
   58DOPE   H3S 7391   4.881   3.604   6.677  0.8196 -0.2135 -0.7031
   58DOPE   C24 7392   4.944   3.717   6.854  0.1183 -0.2716 -0.2431
   58DOPE   H4R 7393   4.965   3.821   6.887  0.0050 -0.4576  0.4154
   58DOPE   H4S 7394   5.030   3.646   6.867 -0.1410 -0.1612  2.8810
   58DOPE   C25 7395   4.834   3.688   6.950 -0.3784 -0.1996 -0.6358
   58DOPE   H5R 7396   4.776   3.599   6.920  0.4302 -1.2472  0.7971
   58DOPE   H5S 7397   4.770   3.779   6.958 -0.8999 -0.5873 -0.3676
   58DOPE   C26 7398   4.884   3.653   7.096  0.1678  0.2475 -0.4499
   58DOPE   H6R 7399   4.805   3.677   7.170 -0.9282  1.1765 -1.8744
   58DOPE   H6S 7400   4.970   3.723   7.104 -1.5470  2.2984  1.1842
   58DOPE   C27 7401   4.918   3.498   7.110 -1.0294  0.4975 -0.3068
   58DOPE   H7R 7402   4.988   3.468   7.030 -2.5561 -1.6655 -0.9126
   58DOPE   H7S 7403   4.829   3.433   7.103 -1.5001  0.6248  3.0010
   58DOPE   C28 7404   5.000   3.463   7.239  0.2512 -0.0443  0.0607
   58DOPE   H8R 7405   5.081   3.537   7.256 -0.7405  0.8857  0.7745
   58DOPE   H8S 7406   5.054   3.366   7.230 -2.3105 -1.5243 -0.4506
   58DOPE   C29 7407   4.917   3.464   7.366  0.4319 -0.1598 -0.4800
   58DOPE   H9R 7408   4.836   3.539   7.366  0.1376 -0.4138  1.6018
   58DOPE  C210 7409   4.922   3.374   7.464 -0.2324  0.1874  0.4068
   58DOPE  H10R 7410   4.849   3.385   7.546 -1.2861 -0.5725 -0.4122
   58DOPE  C211 7411   5.025   3.273   7.489 -0.3753  0.6131  0.9636
   58DOPE  H11R 7412   5.096   3.259   7.405 -0.9347  0.1013  0.5663
   58DOPE  H11S 7413   4.979   3.172   7.498 -0.4490  0.4032 -1.3071
   58DOPE  C212 7414   5.103   3.301   7.613 -0.1519 -0.9824 -0.0712
   58DOPE  H12R 7415   5.024   3.315   7.691  0.6516  1.7480  0.3255
   58DOPE  H12S 7416   5.163   3.394   7.610  0.4109 -1.1936  2.3775
   58DOPE  C213 7417   5.186   3.183   7.659  0.1065  0.5064 -0.1576
   58DOPE  H13R 7418   5.274   3.184   7.591  0.6086  1.0124  0.4875
   58DOPE  H13S 7419   5.116   3.096   7.655  0.5513  0.1487 -0.2209
   58DOPE  C214 7420   5.234   3.193   7.808 -0.1081  0.2133 -0.1492
   58DOPE  H14R 7421   5.147   3.217   7.873 -0.6195 -1.0794 -0.3202
   58DOPE  H14S 7422   5.302   3.281   7.805  1.1620 -0.7339 -0.1631
   58DOPE  C215 7423   5.326   3.081   7.851  0.4789 -0.0968  0.4760
   58DOPE  H15R 7424   5.412   3.072   7.782 -1.5748 -0.8434 -2.1406
   58DOPE  H15S 7425   5.283   2.978   7.860 -0.8991  0.0984 -2.5305
   58DOPE  C216 7426   5.391   3.101   7.992 -0.3411  0.6213  0.6581
   58DOPE  H16R 7427   5.313   3.134   8.064  0.4603  2.3770  0.7681
   58DOPE  H16S 7428   5.476   3.171   7.978 -0.8335  0.8673 -1.2737
   58DOPE  C217 7429   5.458   2.970   8.036  0.2352 -0.1668  0.0872
   58DOPE  H17R 7430   5.522   2.925   7.956 -0.7442 -1.2830 -0.0859
   58DOPE  H17S 7431   5.373   2.899   8.046 -0.6198  0.9665  1.1092
   58DOPE  C218 7432   5.536   2.977   8.165 -0.0749 -0.4888 -0.5334
   58DOPE  H18R 7433   5.612   3.058   8.167  0.0986 -0.6568 -0.3437
   58DOPE  H18S 7434   5.591   2.881   8.178  0.0139 -0.2092  1.5258
   58DOPE  H18T 7435   5.467   2.986   8.252  1.4321  0.9140  0.5715
   58DOPE   C33 7436   4.893   4.270   7.086  0.1212  0.0671 -0.1902
   58DOPE   H3X 7437   4.877   4.379   7.070  0.3528 -0.0254 -1.1661
   58DOPE   H3Y 7438   4.986   4.245   7.031 -0.8077 -0.5874 -1.5282
   58DOPE   C34 7439   4.903   4.231   7.231  0.9393 -0.7067  0.1912
   58DOPE   H4X 7440   4.998   4.269   7.275  0.8918 -1.0820  0.6172
   58DOPE   H4Y 7441   4.817   4.282   7.280 -1.2730 -1.6879 -2.4368
   58DOPE   C35 7442   4.909   4.076   7.244 -0.0088 -0.3374 -0.5631
   58DOPE   H5X 7443   4.989   4.043   7.174 -0.0904 -0.0297 -0.8026
   58DOPE   H5Y 7444   4.815   4.023   7.217  1.0086 -2.4915 -0.0861
   58DOPE   C36 7445   4.945   4.023   7.380 -0.1993  0.3037 -0.2264
   58DOPE   H6X 7446   4.866   4.048   7.454  0.4256  0.0996  0.5168
   58DOPE   H6Y 7447   5.041   4.069   7.413 -0.1607 -0.2975  0.5194
   58DOPE   C37 7448   4.966   3.869   7.370  0.6458 -0.1280 -0.2909
   58DOPE   H7X 7449   4.875   3.826   7.324  0.9200 -1.1113  0.0612
   58DOPE   H7Y 7450   5.042   3.845   7.293  0.0529 -1.0372 -0.6017
   58DOPE   C38 7451   4.998   3.806   7.512 -0.5166 -0.6309 -0.0534
   58DOPE   H8X 7452   5.100   3.843   7.535 -0.5676 -0.0690 -0.7080
   58DOPE   H8Y 7453   5.009   3.698   7.485  2.8954 -0.2512 -0.7493
   58DOPE   C39 7454   4.899   3.848   7.615 -0.4072  0.0840 -0.5184
   58DOPE   H9X 7455   4.802   3.883   7.576  0.1162  1.7221 -0.4244
   58DOPE  C310 7456   4.916   3.824   7.748  0.2043 -0.3514  0.1198
   58DOPE  H10X 7457   4.825   3.838   7.809 -0.1674 -1.3564 -0.1886
   58DOPE  C311 7458   5.037   3.758   7.807 -0.0806 -0.0243  0.4313
   58DOPE  H11X 7459   5.123   3.765   7.737 -0.5900 -1.2082 -0.3612
   58DOPE  H11Y 7460   5.070   3.814   7.897  1.2131  1.7086 -1.0493
   58DOPE  C312 7461   5.013   3.607   7.842  0.1533 -0.5170 -0.1224
   58DOPE  H12X 7462   5.111   3.573   7.881  1.0749  2.3122  0.2458
   58DOPE  H12Y 7463   4.998   3.550   7.748  2.9014  0.5807 -1.3279
   58DOPE  C313 7464   4.896   3.584   7.936  0.0065  0.4541 -0.4016
   58DOPE  H13X 7465   4.896   3.668   8.008 -1.9144 -0.1455  0.3656
   58DOPE  H13Y 7466   4.800   3.591   7.880  0.0678 -1.0290 -0.7391
   58DOPE  C314 7467   4.905   3.454   8.016  0.1834  0.4896  0.0167
   58DOPE  H14X 7468   4.900   3.370   7.945 -0.0338 -0.1592  0.7849
   58DOPE  H14Y 7469   4.817   3.456   8.083 -1.5305  0.9035 -2.1368
   58DOPE  C315 7470   5.034   3.437   8.102  0.1452 -0.2371  0.6919
   58DOPE  H15X 7471   5.040   3.529   8.163  0.0202  2.3358 -2.8994
   58DOPE  H15Y 7472   5.113   3.449   8.026  0.6968  1.1328  1.4567
   58DOPE  C316 7473   5.037   3.306   8.175 -0.3592 -0.2059 -0.1820
   58DOPE  H16X 7474   5.106   3.232   8.129 -0.9177 -0.7427 -0.1667
   58DOPE  H16Y 7475   4.942   3.250   8.167  0.6019 -1.8186 -0.7683
   58DOPE  C317 7476   5.065   3.335   8.320 -0.1544  0.0115 -0.2113
   58DOPE  H17X 7477   5.173   3.359   8.333  0.4238  0.2143 -4.1131
   58DOPE  H17Y 7478   5.006   3.422   8.355  1.6233  0.8786  0.7813
   58DOPE  C318 7479   5.036   3.209   8.410  1.2655 -0.6181  0.5093
   58DOPE  H18X 7480   5.015   3.244   8.513 -1.1990  1.4751 -0.5929
   58DOPE  H18Y 7481   4.944   3.156   8.377  0.4184 -0.1814  2.0948
   58DOPE  H18Z 7482   5.117   3.135   8.394  1.7783  0.3995 -2.0515
   59DOPE     N 7483   6.305   6.637   6.327 -0.4329  0.2569 -1.0976
   59DOPE   HN1 7484   6.377   6.587   6.383 -0.7746  1.9670  0.9847
   59DOPE   HN2 7485   6.228   6.570   6.306 -1.1599  0.9379 -0.6333
   59DOPE   HN3 7486   6.341   6.655   6.230 -0.9601  0.8383 -1.1931
   59DOPE   C12 7487   6.249   6.764   6.395  0.8136  0.4860  0.3605
   59DOPE  H12A 7488   6.164   6.730   6.457  0.4495 -0.4592 -0.6058
   59DOPE  H12B 7489   6.203   6.830   6.318  1.1874 -1.3265 -1.5330
   59DOPE   C11 7490   6.356   6.829   6.479  0.0088 -0.1608 -0.1764
   59DOPE  H11A 7491   6.370   6.756   6.561  0.9121  1.5233  1.2210
   59DOPE  H11B 7492   6.316   6.926   6.514  1.3567  0.8349 -1.2543
   59DOPE     P 7493   6.585   6.955   6.453 -0.2479 -0.2297  0.3256
   59DOPE   O13 7494   6.526   7.088   6.415  0.1285  0.1968 -0.0982
   59DOPE   O14 7495   6.717   6.919   6.397  0.5666 -0.2413 -0.2761
   59DOPE   O11 7496   6.598   6.946   6.611  0.0057  0.5232  0.4131
   59DOPE   O12 7497   6.482   6.844   6.415  0.0500 -0.3789 -0.0179
   59DOPE    C1 7498   6.723   6.954   6.673 -0.9699 -0.2452  0.1394
   59DOPE    HA 7499   6.801   7.000   6.608 -1.4039 -1.3561 -1.2282
   59DOPE    HB 7500   6.763   6.853   6.696  2.2417  0.2595 -2.3584
   59DOPE    C2 7501   6.728   7.031   6.807  0.5117  0.9534  0.2335
   59DOPE    HS 7502   6.661   6.974   6.876 -0.3143  1.6099 -0.0036
   59DOPE   O21 7503   6.670   7.159   6.777 -0.2468  0.4416 -0.8778
   59DOPE   C21 7504   6.541   7.183   6.808  0.0283 -0.0264 -0.3036
   59DOPE   O22 7505   6.464   7.103   6.861  0.0357 -0.1015  0.5502
   59DOPE   C22 7506   6.503   7.323   6.757  0.4221 -0.0702  0.6043
   59DOPE   H2R 7507   6.395   7.346   6.768  0.1190 -0.3363 -1.3824
   59DOPE   H2S 7508   6.528   7.331   6.649  3.3084  0.6520  1.2395
   59DOPE    C3 7509   6.871   7.054   6.845  0.9999 -0.6115  0.4569
   59DOPE    HX 7510   6.885   7.107   6.942  1.2124 -0.6984  0.4724
   59DOPE    HY 7511   6.916   7.119   6.767  2.4660 -1.3236  0.6814
   59DOPE   O31 7512   6.952   6.935   6.836  0.0996 -0.1593 -0.2939
   59DOPE   C31 7513   6.933   6.854   6.945 -0.1249 -0.4024 -0.7590
   59DOPE   O32 7514   6.868   6.887   7.043  0.5640  0.1919  0.0303
   59DOPE   C32 7515   7.000   6.721   6.923 -0.5085 -0.1454  0.1934
   59DOPE   H2X 7516   6.929   6.664   6.860 -0.1945 -1.3703  0.9034
   59DOPE   H2Y 7517   7.095   6.733   6.866 -1.2381 -3.0260 -1.7972
   59DOPE   C23 7518   6.578   7.442   6.829  0.1556 -0.4061  0.1065
   59DOPE   H3R 7519   6.576   7.536   6.769 -0.6447 -0.1658  0.4947
   59DOPE   H3S 7520   6.683   7.408   6.840  0.3451 -0.1950 -0.9417
   59DOPE   C24 7521   6.512   7.468   6.960  0.2883  0.3804 -0.0459
   59DOPE   H4R 7522   6.523   7.383   7.031 -1.4005  1.3954  1.5273
   59DOPE   H4S 7523   6.403   7.474   6.939  0.4893  0.6018 -1.0670
   59DOPE   C25 7524   6.565   7.585   7.042 -0.7395 -0.1945  0.1452
   59DOPE   H5R 7525   6.558   7.666   6.967 -1.4508 -0.4393 -0.0626
   59DOPE   H5S 7526   6.673   7.568   7.060 -0.9655 -0.8735  0.9392
   59DOPE   C26 7527   6.489   7.608   7.166  0.5744 -0.4738  0.0989
   59DOPE   H6R 7528   6.481   7.518   7.231 -3.4000 -1.4012 -1.4254
   59DOPE   H6S 7529   6.381   7.613   7.140  0.2087 -1.6384  1.3205
   59DOPE   C27 7530   6.532   7.734   7.245 -0.3054  0.2170 -0.0173
   59DOPE   H7R 7531   6.518   7.831   7.192 -1.9145  0.2549  0.4295
   59DOPE   H7S 7532   6.640   7.722   7.269 -0.0383 -1.3575 -1.7540
   59DOPE   C28 7533   6.438   7.742   7.374  0.1748  0.2296 -0.3989
   59DOPE   H8R 7534   6.473   7.816   7.449 -1.8040 -0.7055  1.5602
   59DOPE   H8S 7535   6.453   7.647   7.431 -1.9282 -0.5158 -1.0027
   59DOPE   C29 7536   6.289   7.769   7.344 -0.7640  0.0787 -0.8867
   59DOPE   H9R 7537   6.267   7.872   7.313  1.4733  1.5915  2.0527
   59DOPE  C210 7538   6.191   7.679   7.358 -0.0673 -0.0732  0.1009
   59DOPE  H10R 7539   6.095   7.715   7.317  0.0475 -0.7894 -0.8168
   59DOPE  C211 7540   6.204   7.530   7.397 -0.3243  0.6874  0.6229
   59DOPE  H11R 7541   6.274   7.517   7.482  0.1581 -1.9331 -0.0800
   59DOPE  H11S 7542   6.243   7.466   7.315 -1.0850 -0.3754  1.0689
   59DOPE  C212 7543   6.070   7.455   7.434 -0.6147 -0.3412 -0.2292
   59DOPE  H12R 7544   6.096   7.347   7.433  2.4343  0.2893 -1.8067
   59DOPE  H12S 7545   5.985   7.477   7.366 -1.0151  0.0635  0.3880
   59DOPE  C213 7546   6.019   7.484   7.575  0.1459 -0.1310 -0.0733
   59DOPE  H13R 7547   5.983   7.589   7.585 -0.6157 -0.4506  0.6823
   59DOPE  H13S 7548   6.102   7.469   7.648  0.3262 -1.4327 -0.5298
   59DOPE  C214 7549   5.910   7.388   7.629 -0.8984 -0.1184  0.4937
   59DOPE  H14R 7550   5.950   7.285   7.622 -0.5175 -0.0738  1.6643
   59DOPE  H14S 7551   5.816   7.404   7.572  0.2836  1.2942 -1.1795
   59DOPE  C215 7552   5.882   7.426   7.781 -0.9021  0.5779  0.3716
   59DOPE  H15R 7553   5.844   7.530   7.791 -1.5726  0.3349  0.4310
   59DOPE  H15S 7554   5.977   7.426   7.839 -1.5832 -1.4129  1.5817
   59DOPE  C216 7555   5.770   7.346   7.854 -0.7830 -0.1520  1.0989
   59DOPE  H16R 7556   5.792   7.238   7.836  1.1193  0.4915 -0.9560
   59DOPE  H16S 7557   5.675   7.373   7.803 -0.7052  0.1833  1.1311
   59DOPE  C217 7558   5.776   7.371   8.003 -0.0601 -0.3161 -0.3649
   59DOPE  H17R 7559   5.870   7.341   8.055 -1.2837 -0.8401  1.6483
   59DOPE  H17S 7560   5.699   7.301   8.044  2.1536 -0.4402  4.3123
   59DOPE  C218 7561   5.729   7.510   8.067  0.4737  0.4568  0.0352
   59DOPE  H18R 7562   5.801   7.578   8.015 -0.0603 -1.3199 -3.2994
   59DOPE  H18S 7563   5.734   7.514   8.178 -2.0319 -2.8968  0.4186
   59DOPE  H18T 7564   5.628   7.542   8.034 -1.0863 -0.8386  3.1283
   59DOPE   C33 7565   7.032   6.653   7.064 -0.7610  0.1592  0.9779
   59DOPE   H3X 7566   6.939   6.630   7.121 -1.8160  0.3455 -0.6227
   59DOPE   H3Y 7567   7.095   6.723   7.124  0.1021  0.5882 -0.3910
   59DOPE   C34 7568   7.113   6.520   7.045  0.4682 -0.2095 -0.0832
   59DOPE   H4X 7569   7.054   6.448   6.985 -1.7000  0.6941  0.8409
   59DOPE   H4Y 7570   7.204   6.544   6.987 -0.7010  0.5376 -1.6783
   59DOPE   C35 7571   7.161   6.455   7.180  0.0193 -0.0604  0.7394
   59DOPE   H5X 7572   7.075   6.403   7.228 -0.1506 -2.4219 -1.8775
   59DOPE   H5Y 7573   7.197   6.538   7.244  0.8915  0.0661  0.1007
   59DOPE   C36 7574   7.269   6.351   7.148  0.0791 -0.5302 -0.2527
   59DOPE   H6X 7575   7.356   6.397   7.097  1.1010  0.1671  2.0214
   59DOPE   H6Y 7576   7.219   6.272   7.087 -3.5593  2.1526 -1.1203
   59DOPE   C37 7577   7.327   6.304   7.281  0.5814  0.5596  0.4402
   59DOPE   H7X 7578   7.425   6.255   7.263  0.4412  0.5355 -0.2727
   59DOPE   H7Y 7579   7.350   6.393   7.344 -0.0413  1.9837 -1.2707
   59DOPE   C38 7580   7.233   6.209   7.364  0.1433 -0.5583  0.6173
   59DOPE   H8X 7581   7.223   6.110   7.314  0.6532 -0.8791  1.1236
   59DOPE   H8Y 7582   7.131   6.247   7.385 -0.7227 -2.4722  0.1067
   59DOPE   C39 7583   7.303   6.174   7.489 -0.6422 -0.5040 -0.4362
   59DOPE   H9X 7584   7.392   6.110   7.477 -0.3082  0.0167 -0.8000
   59DOPE  C310 7585   7.266   6.197   7.617  0.3985 -0.9444 -0.3580
   59DOPE  H10X 7586   7.326   6.163   7.702 -0.9048  3.7422  2.8559
   59DOPE  C311 7587   7.135   6.272   7.663 -1.0358 -0.6086  1.0425
   59DOPE  H11X 7588   7.070   6.293   7.575 -1.6497 -0.9460  1.4111
   59DOPE  H11Y 7589   7.076   6.221   7.742 -0.9219 -0.4784  1.2098
   59DOPE  C312 7590   7.175   6.416   7.702 -0.3029  0.3643 -0.3605
   59DOPE  H12X 7591   7.226   6.476   7.623  0.5399  0.7832  0.4855
   59DOPE  H12Y 7592   7.255   6.410   7.778 -1.1906  1.3682  0.6814
   59DOPE  C313 7593   7.055   6.503   7.738 -0.1653 -0.7265  0.0247
   59DOPE  H13X 7594   6.986   6.499   7.651 -1.1222  2.9926  0.4161
   59DOPE  H13Y 7595   6.999   6.484   7.832  0.3291  3.7838  1.5137
   59DOPE  C314 7596   7.097   6.649   7.752 -0.3214  0.0514 -0.5362
   59DOPE  H14X 7597   7.166   6.669   7.667 -0.8632  0.0694 -0.9749
   59DOPE  H14Y 7598   7.163   6.667   7.839 -0.8732  2.1764 -0.5172
   59DOPE  C315 7599   6.981   6.750   7.756  0.6522 -0.4779 -0.5031
   59DOPE  H15X 7600   6.932   6.751   7.855 -0.6901  0.8553 -1.1433
   59DOPE  H15Y 7601   6.899   6.719   7.687  0.8788 -2.4890  0.0725
   59DOPE  C316 7602   7.023   6.897   7.738  0.2952  0.2076  0.4536
   59DOPE  H16X 7603   7.076   6.925   7.644 -0.1467 -0.5402 -0.0258
   59DOPE  H16Y 7604   7.108   6.906   7.809  0.6791 -0.6531  0.1298
   59DOPE  C317 7605   6.914   6.992   7.771 -0.4694  0.4531  0.3703
   59DOPE  H17X 7606   6.825   6.986   7.705 -1.2780  0.7444  1.4096
   59DOPE  H17Y 7607   6.879   6.954   7.869 -1.1937 -0.6561 -0.2897
   59DOPE  C318 7608   6.956   7.135   7.759  0.3599  0.1250 -0.1993
   59DOPE  H18X 7609   6.978   7.164   7.654  0.9443 -0.3009 -0.1992
   59DOPE  H18Y 7610   6.881   7.203   7.804  1.2754  1.0456 -0.0498
   59DOPE  H18Z 7611   7.044   7.150   7.825  0.4532  0.4530 -0.3969
   60DOPE     N 7612   7.589   5.573   6.379  0.5153  0.4010 -0.1572
   60DOPE   HN1 7613   7.661   5.639   6.414 -1.0697  2.6936 -0.9846
   60DOPE   HN2 7614   7.535   5.619   6.302  0.3827 -1.5400 -1.3024
   60DOPE   HN3 7615   7.532   5.541   6.459  1.8546 -1.1570  0.2317
   60DOPE   C12 7616   7.652   5.457   6.318  0.4627 -0.2696  0.0105
   60DOPE  H12A 7617   7.702   5.486   6.224  0.8890 -1.6429 -0.2084
   60DOPE  H12B 7618   7.577   5.379   6.290  0.8138 -0.6712  0.1801
   60DOPE   C11 7619   7.747   5.391   6.415  0.0764 -0.3983 -0.3922
   60DOPE  H11A 7620   7.811   5.463   6.471 -1.7390  0.1332  1.0906
   60DOPE  H11B 7621   7.807   5.324   6.351  1.1532 -0.1435  0.3173
   60DOPE     P 7622   7.735   5.226   6.616 -0.2094 -0.0315  0.0375
   60DOPE   O13 7623   7.880   5.220   6.589  0.0982  0.4711  0.1989
   60DOPE   O14 7624   7.667   5.098   6.633 -0.0602 -0.1172 -0.0050
   60DOPE   O11 7625   7.722   5.317   6.747  0.3585 -0.0050  0.0322
   60DOPE   O12 7626   7.664   5.322   6.508 -0.1528 -0.1611  0.3002
   60DOPE    C1 7627   7.599   5.378   6.793  1.1056  0.2542  0.7455
   60DOPE    HA 7628   7.519   5.302   6.804  2.0897 -0.4711  3.9621
   60DOPE    HB 7629   7.567   5.453   6.717  1.0247  1.5150  1.9786
   60DOPE    C2 7630   7.617   5.447   6.929 -0.5770  0.5670 -0.1843
   60DOPE    HS 7631   7.717   5.495   6.927  0.7037 -1.9367  0.1583
   60DOPE   O21 7632   7.598   5.348   7.038 -0.3419  0.1732 -0.0019
   60DOPE   C21 7633   7.709   5.282   7.062  0.1805  0.6860 -0.2295
   60DOPE   O22 7634   7.823   5.310   7.028 -0.3667 -0.1254 -0.1402
   60DOPE   C22 7635   7.666   5.156   7.134  0.0415 -0.4572  0.3724
   60DOPE   H2R 7636   7.677   5.069   7.067 -0.9864 -1.0368  0.9344
   60DOPE   H2S 7637   7.557   5.165   7.154 -0.4482 -1.0645 -1.7837
   60DOPE    C3 7638   7.511   5.558   6.952 -0.7441 -0.0783 -0.0965
   60DOPE    HX 7639   7.411   5.512   6.950 -1.4280  1.3167  0.3909
   60DOPE    HY 7640   7.515   5.624   6.863  0.2240  2.1186  1.4672
   60DOPE   O31 7641   7.535   5.622   7.081  0.6708  0.0560 -0.5268
   60DOPE   C31 7642   7.601   5.739   7.080  0.0131  0.2008  0.3025
   60DOPE   O32 7643   7.654   5.786   6.984  0.0205 -0.0064  0.2698
   60DOPE   C32 7644   7.579   5.801   7.213 -0.1755 -0.0142  0.0732
   60DOPE   H2X 7645   7.485   5.859   7.201  0.1480  0.5883  0.4082
   60DOPE   H2Y 7646   7.570   5.723   7.291  0.7429  0.0121  0.2131
   60DOPE   C23 7647   7.750   5.109   7.251 -0.5704 -0.3025 -0.7454
   60DOPE   H3R 7648   7.682   5.046   7.313  0.0607 -0.7218 -0.4714
   60DOPE   H3S 7649   7.781   5.192   7.318 -0.6196 -0.3077 -0.7163
   60DOPE   C24 7650   7.873   5.019   7.209 -0.4586  0.0691 -0.1311
   60DOPE   H4R 7651   7.922   5.050   7.114 -1.7668 -1.3166 -1.3183
   60DOPE   H4S 7652   7.837   4.917   7.183 -0.6087  0.5934 -2.1581
   60DOPE   C25 7653   7.983   5.017   7.308  0.4401  0.8851 -0.4932
   60DOPE   H5R 7654   8.005   5.119   7.346 -0.5712  0.6504  0.8099
   60DOPE   H5S 7655   8.076   4.976   7.264  0.3978  0.8404 -0.5402
   60DOPE   C26 7656   7.960   4.933   7.434  0.6572 -0.7547  0.2749
   60DOPE   H6R 7657   7.945   4.828   7.400  1.9838 -0.6761 -0.6011
   60DOPE   H6S 7658   7.863   4.973   7.469 -0.8035 -1.8056 -2.3060
   60DOPE   C27 7659   8.069   4.946   7.534 -0.1400  0.0650 -0.4883
   60DOPE   H7R 7660   8.082   5.054   7.559  2.2700 -0.4423  0.7738
   60DOPE   H7S 7661   8.165   4.905   7.495  0.8101  1.4630  0.2865
   60DOPE   C28 7662   8.015   4.862   7.648 -0.5694  0.0786 -0.2503
   60DOPE   H8R 7663   8.101   4.856   7.719  1.4257 -1.0105 -2.5945
   60DOPE   H8S 7664   8.003   4.757   7.611  0.7767  0.3595 -1.6049
   60DOPE   C29 7665   7.894   4.918   7.723  0.2092 -0.0020 -0.3665
   60DOPE   H9R 7666   7.809   4.957   7.664 -0.1258 -2.0737 -1.3282
   60DOPE  C210 7667   7.883   4.955   7.854 -0.2498  0.2710 -0.2221
   60DOPE  H10R 7668   7.781   4.978   7.888 -0.1623 -2.5813  2.3685
   60DOPE  C211 7669   8.000   4.953   7.948 -0.6450 -0.7587 -0.3566
   60DOPE  H11R 7670   8.087   4.892   7.915 -0.8887 -3.0883  2.7705
   60DOPE  H11S 7671   7.968   4.913   8.047 -0.4769 -0.9047 -0.3605
   60DOPE  C212 7672   8.059   5.095   7.987 -0.2221 -1.1096  0.2521
   60DOPE  H12R 7673   8.085   5.147   7.892  0.5664 -0.9800  0.5290
   60DOPE  H12S 7674   8.164   5.090   8.025  1.9373  1.0613 -4.6088
   60DOPE  C213 7675   7.965   5.200   8.056  0.3105  0.9289 -0.1976
   60DOPE  H13R 7676   7.950   5.173   8.163 -0.1140  1.0308 -0.2280
   60DOPE  H13S 7677   7.868   5.187   8.003  0.7275  2.0295 -1.2533
   60DOPE  C214 7678   8.003   5.349   8.056 -1.3094  0.4207  0.4050
   60DOPE  H14R 7679   8.097   5.342   8.115 -1.7669 -0.0024  1.0991
   60DOPE  H14S 7680   7.928   5.410   8.110 -2.0667  0.2299 -0.4095
   60DOPE  C215 7681   8.043   5.414   7.919  0.0391 -0.0791 -0.3023
   60DOPE  H15R 7682   7.947   5.437   7.869 -0.1544  0.9586  0.5061
   60DOPE  H15S 7683   8.111   5.345   7.865  0.5058  0.6955 -0.7237
   60DOPE  C216 7684   8.126   5.546   7.938 -0.4723 -0.7240 -0.0667
   60DOPE  H16R 7685   8.234   5.520   7.944  0.2825  2.2537  0.7817
   60DOPE  H16S 7686   8.104   5.592   8.037 -3.0927 -0.7602 -0.5623
   60DOPE  C217 7687   8.102   5.651   7.833 -0.3494 -0.1190 -0.6884
   60DOPE  H17R 7688   7.996   5.686   7.839 -1.1157 -2.2774 -0.6847
   60DOPE  H17S 7689   8.121   5.615   7.730 -1.7756 -2.4068 -0.2340
   60DOPE  C218 7690   8.200   5.764   7.856 -0.5157 -0.6190 -0.5440
   60DOPE  H18R 7691   8.200   5.846   7.780 -1.4778 -0.9571 -0.9167
   60DOPE  H18S 7692   8.306   5.731   7.851  0.0277  1.0673 -0.6915
   60DOPE  H18T 7693   8.166   5.819   7.945 -0.8306  0.4225 -1.2909
   60DOPE   C33 7694   7.689   5.901   7.258  0.2566  0.0612 -0.6138
   60DOPE   H3X 7695   7.702   5.972   7.174  2.3907 -0.4426 -0.7530
   60DOPE   H3Y 7696   7.783   5.842   7.259  0.6762  0.7085 -0.8258
   60DOPE   C34 7697   7.658   5.967   7.395  0.2735  0.1410 -0.9818
   60DOPE   H4X 7698   7.715   6.062   7.409  0.6286 -0.2506  0.4576
   60DOPE   H4Y 7699   7.551   5.998   7.391  0.3908  0.5811 -0.8492
   60DOPE   C35 7700   7.657   5.871   7.518  0.5403 -0.0706  0.3698
   60DOPE   H5X 7701   7.754   5.817   7.531  1.1046  0.8667  0.0806
   60DOPE   H5Y 7702   7.581   5.792   7.498  0.5376  0.0604 -0.1268
   60DOPE   C36 7703   7.615   5.941   7.647  0.0192  0.4756 -0.1975
   60DOPE   H6X 7704   7.605   5.869   7.730 -1.3669 -1.1414 -1.7039
   60DOPE   H6Y 7705   7.513   5.985   7.644 -0.1235  0.1768  0.1869
   60DOPE   C37 7706   7.702   6.062   7.686  0.1938 -0.0381  0.0874
   60DOPE   H7X 7707   7.809   6.039   7.670  0.3040  1.3347 -1.3765
   60DOPE   H7Y 7708   7.686   6.153   7.625  3.2032  0.8116  0.3983
   60DOPE   C38 7709   7.691   6.103   7.840  0.2917  0.2618 -0.0485
   60DOPE   H8X 7710   7.774   6.167   7.876  2.1035 -2.3729  0.8165
   60DOPE   H8Y 7711   7.705   6.010   7.900 -0.1440 -0.1664 -0.6037
   60DOPE   C39 7712   7.567   6.171   7.892 -0.1419 -0.2733 -0.2070
   60DOPE   H9X 7713   7.472   6.124   7.862  0.0498 -0.0793 -1.1446
   60DOPE  C310 7714   7.560   6.291   7.958 -0.3143 -0.0901 -0.0642
   60DOPE  H10X 7715   7.463   6.310   8.007 -0.1299 -0.8158  0.5920
   60DOPE  C311 7716   7.663   6.399   7.984 -0.0261 -0.0279  0.0205
   60DOPE  H11X 7717   7.666   6.434   8.090  2.4681  1.1919 -0.3641
   60DOPE  H11Y 7718   7.768   6.365   7.971  0.3013  0.8541  0.2558
   60DOPE  C312 7719   7.651   6.526   7.896 -0.7622 -0.4157  0.4508
   60DOPE  H12X 7720   7.736   6.596   7.916  0.6759 -1.5088 -1.4440
   60DOPE  H12Y 7721   7.553   6.576   7.905 -0.2204  1.1510 -1.5184
   60DOPE  C313 7722   7.662   6.482   7.744  0.0576  0.7320 -0.1506
   60DOPE  H13X 7723   7.600   6.393   7.722 -0.7270  0.7610  1.7504
   60DOPE  H13Y 7724   7.620   6.560   7.677  0.1825 -0.8011 -2.1425
   60DOPE  C314 7725   7.801   6.450   7.681 -0.3695 -0.1253  0.4391
   60DOPE  H14X 7726   7.796   6.396   7.584  0.4713 -1.2639  0.9959
   60DOPE  H14Y 7727   7.854   6.381   7.751  0.0562  1.1999  1.4555
   60DOPE  C315 7728   7.895   6.576   7.668  1.2153  0.7316  0.3904
   60DOPE  H15X 7729   7.908   6.625   7.767  1.1322  0.4359  0.5523
   60DOPE  H15Y 7730   7.852   6.654   7.602 -0.9152 -0.2987  0.4847
   60DOPE  C316 7731   8.025   6.524   7.601 -0.6260 -0.5924 -0.9684
   60DOPE  H16X 7732   8.000   6.478   7.503 -1.1975  2.0249 -2.1436
   60DOPE  H16Y 7733   8.075   6.443   7.657  0.3439 -0.3669 -1.4891
   60DOPE  C317 7734   8.117   6.641   7.564  0.5923  0.3872 -0.2246
   60DOPE  H17X 7735   8.067   6.705   7.488  1.2500  1.1921  0.0033
   60DOPE  H17Y 7736   8.127   6.704   7.655 -1.1943 -0.1699  0.3898
   60DOPE  C318 7737   8.251   6.608   7.517 -0.0487  0.3598  0.2848
   60DOPE  H18X 7738   8.284   6.529   7.588  1.1123  1.0397  0.5316
   60DOPE  H18Y 7739   8.248   6.565   7.415 -1.3995 -1.9904  1.2323
   60DOPE  H18Z 7740   8.320   6.695   7.523  3.3412 -1.6391 -4.1501
   6123SM     N 7741   1.625   2.425  10.472  0.3159 -0.6433 -0.8679
   6123SM   C15 7742   1.589   2.570  10.466  0.0301 -0.4511  0.5296
   6123SM  H15A 7743   1.579   2.613  10.564 -1.4391  1.0661 -0.2473
   6123SM  H15B 7744   1.511   2.591  10.394  1.7730 -1.0534 -1.6747
   6123SM  H15C 7745   1.673   2.622  10.423 -0.0400  0.3646  1.3579
   6123SM   C14 7746   1.737   2.400  10.572 -0.4244  0.4994 -0.4724
   6123SM  H14A 7747   1.810   2.480  10.580 -0.6661  0.6038  0.9072
   6123SM  H14B 7748   1.789   2.308  10.549 -0.2111  0.6942 -0.7918
   6123SM  H14C 7749   1.683   2.392  10.665 -0.0392 -0.1901 -0.3023
   6123SM   C13 7750   1.499   2.365  10.539 -0.2043  0.8448  0.0570
   6123SM  H13A 7751   1.478   2.410  10.635  2.2060  1.5612  0.3162
   6123SM  H13B 7752   1.508   2.258  10.555  0.6285  0.6449 -1.5861
   6123SM  H13C 7753   1.411   2.369  10.477 -1.0270 -0.0149  1.1192
   6123SM   C12 7754   1.645   2.370  10.332 -0.0207 -0.3907  0.1260
   6123SM  H12A 7755   1.655   2.263  10.340 -1.3845 -0.6124 -0.6987
   6123SM  H12B 7756   1.744   2.399  10.298  0.8607  0.8228  3.3714
   6123SM   C11 7757   1.536   2.406  10.229 -0.2129  0.8532  0.8486
   6123SM  H11A 7758   1.577   2.365  10.134  1.5804  0.4342  1.7547
   6123SM  H11B 7759   1.521   2.514  10.208 -3.0477  0.4554  0.3959
   6123SM     P 7760   1.385   2.188  10.223  0.0764 -0.2001  0.1954
   6123SM   O13 7761   1.510   2.131  10.162 -0.0039 -0.1755  0.3079
   6123SM   O14 7762   1.334   2.122  10.343 -0.2084 -0.7072  0.5255
   6123SM   O11 7763   1.267   2.203  10.118 -0.0279  0.4852 -0.1347
   6123SM   O12 7764   1.411   2.341  10.257  0.5310  0.3393  0.5642
   6123SM   C1S 7765   1.242   2.308  10.033  0.9348 -0.6719 -0.1639
   6123SM   H1S 7766   1.287   2.405  10.063 -2.2735  1.6784 -2.2726
   6123SM   H1T 7767   1.133   2.329  10.028  0.9142 -0.9651 -1.5368
   6123SM    NF 7768   1.262   2.392   9.794  0.1695 -0.2405  0.4287
   6123SM   HNF 7769   1.188   2.380   9.729 -0.5003  0.6857  0.9902
   6123SM   C2S 7770   1.285   2.282   9.887 -0.7841  0.0601  0.1562
   6123SM   H2S 7771   1.396   2.272   9.889 -0.4075  2.6438 -2.5381
   6123SM   C3S 7772   1.226   2.145   9.837 -0.5622  0.2927  0.8069
   6123SM   H3S 7773   1.118   2.153   9.860 -1.0570 -0.9733 -0.8748
   6123SM    O3 7774   1.276   2.041   9.920 -0.3830 -0.1818  0.2340
   6123SM   HO3 7775   1.313   2.084   9.997 -1.1240 -1.1234  1.1294
   6123SM   C4S 7776   1.254   2.124   9.687  0.4379  0.0156 -0.1900
   6123SM   H4S 7777   1.162   2.141   9.628 -0.1946 -1.6486  0.2650
   6123SM   C5S 7778   1.363   2.080   9.617 -0.3479 -0.0507 -0.4427
   6123SM   H5S 7779   1.460   2.055   9.663  0.3303 -0.4525 -2.0272
   6123SM   C6S 7780   1.349   2.051   9.473 -0.2944  0.5049 -0.4334
   6123SM   H6S 7781   1.275   1.970   9.460 -0.1273  0.4370 -1.0306
   6123SM   H6T 7782   1.444   2.025   9.422  0.5201  2.7559 -0.1949
   6123SM   C7S 7783   1.303   2.169   9.391 -0.3761 -0.0751 -0.3619
   6123SM   H7S 7784   1.358   2.264   9.411 -1.6000  0.7478 -0.7612
   6123SM   H7T 7785   1.204   2.197   9.433  0.1685  0.5806  0.5168
   6123SM   C8S 7786   1.291   2.166   9.237  0.8679 -0.5551 -0.8141
   6123SM   H8S 7787   1.205   2.102   9.206  0.0233  0.8814 -1.5436
   6123SM   H8T 7788   1.379   2.120   9.188  0.7712 -1.0508 -0.5259
   6123SM   C9S 7789   1.283   2.306   9.167  1.2337  0.5434  0.2210
   6123SM   H9S 7790   1.386   2.349   9.166  0.2966  2.9018  0.4011
   6123SM   H9T 7791   1.226   2.363   9.243  1.0929 -1.6187  1.8129
   6123SM  C10S 7792   1.211   2.293   9.035 -0.4447  0.2819 -0.0702
   6123SM  H10S 7793   1.117   2.237   9.052 -0.1887  0.4483  2.1007
   6123SM  H10T 7794   1.271   2.228   8.967 -0.5130 -0.0580  0.1951
   6123SM  C11S 7795   1.181   2.425   8.950 -0.3280 -0.3921 -0.1041
   6123SM  H11S 7796   1.098   2.475   9.005  1.4908  0.5545  1.9171
   6123SM  H11T 7797   1.129   2.403   8.854  0.3396 -1.6534 -0.2086
   6123SM  C12S 7798   1.292   2.525   8.923  0.3599 -0.2051  0.4038
   6123SM  H12S 7799   1.382   2.464   8.903  1.2235  0.8058  1.1060
   6123SM  H12T 7800   1.313   2.592   9.009  2.9075  0.6762 -0.8076
   6123SM  C13S 7801   1.268   2.606   8.790  0.2612 -0.4090 -0.2424
   6123SM  H13S 7802   1.242   2.549   8.698  1.4200 -0.8006 -0.3456
   6123SM  H13T 7803   1.351   2.675   8.765 -0.9423  2.3669  2.7608
   6123SM  C14S 7804   1.142   2.704   8.813  1.2819  0.3710  0.1030
   6123SM  H14S 7805   1.191   2.792   8.859  0.0867  0.6771  0.8494
   6123SM  H14T 7806   1.081   2.663   8.897 -0.2942  2.5128  0.0864
   6123SM  C15S 7807   1.056   2.731   8.681  0.5328  0.1563 -0.2897
   6123SM  H15S 7808   0.964   2.779   8.719  0.7370  0.2040  0.1581
   6123SM  H15T 7809   1.025   2.630   8.649 -0.8653  0.8026 -1.0459
   6123SM  C16S 7810   1.124   2.805   8.566 -0.2914  0.0692  0.4953
   6123SM  H16S 7811   1.179   2.722   8.517 -1.3701 -0.1546 -0.4014
   6123SM  H16T 7812   1.186   2.886   8.609 -0.3316  0.9328 -1.0202
   6123SM  C17S 7813   1.031   2.859   8.460  0.9160 -0.6895  0.3087
   6123SM  H17S 7814   1.078   2.936   8.395 -0.9688  1.1782  1.0734
   6123SM  H17T 7815   0.957   2.922   8.513  2.6971  1.3682  0.4892
   6123SM  C18S 7816   0.960   2.761   8.365 -0.1146  0.0792  0.2111
   6123SM  H18S 7817   0.890   2.705   8.431 -1.8281 -0.3402 -1.8418
   6123SM  H18T 7818   1.020   2.683   8.314 -2.1306 -0.6093 -1.2558
   6123SM  H18U 7819   0.895   2.809   8.289  0.9475 -1.6762 -1.9134
   6123SM   C1F 7820   1.320   2.508   9.803 -0.7073  0.0972  0.1282
   6123SM    OF 7821   1.429   2.524   9.863  0.5925 -0.1012  0.0105
   6123SM   C2F 7822   1.263   2.616   9.726 -1.1283 -0.0018  0.2230
   6123SM   H2F 7823   1.254   2.705   9.792 -1.4344 -1.2567  1.9328
   6123SM   H2G 7824   1.162   2.590   9.689 -0.8101 -0.0648 -0.6261
   6123SM   C3F 7825   1.353   2.656   9.610 -0.1698 -0.7458 -0.5784
   6123SM   H3F 7826   1.395   2.564   9.563 -0.2566  0.3103 -2.8636
   6123SM   H3G 7827   1.439   2.716   9.645 -0.1044 -1.2932  0.2186
   6123SM   C4F 7828   1.282   2.728   9.496 -0.4041 -1.0690  0.1572
   6123SM   H4F 7829   1.357   2.745   9.416  0.1397  1.1564  1.0722
   6123SM   H4G 7830   1.251   2.830   9.526 -0.0917 -0.3640 -1.7624
   6123SM   C5F 7831   1.177   2.642   9.423  1.0406  0.1112 -0.0698
   6123SM   H5F 7832   1.084   2.615   9.478  1.3305  0.4610  0.6113
   6123SM   H5G 7833   1.219   2.547   9.384 -0.9537  0.0251 -2.2225
   6123SM   C6F 7834   1.140   2.724   9.296 -0.2884 -0.0223  0.8701
   6123SM   H6F 7835   1.100   2.660   9.215  0.0633  1.9582 -0.9814
   6123SM   H6G 7836   1.228   2.771   9.246 -0.8745  1.2284  0.9598
   6123SM   C7F 7837   1.024   2.827   9.312 -0.5105 -0.3516 -0.2579
   6123SM   H7F 7838   1.052   2.898   9.393 -1.6997 -1.0758  0.8208
   6123SM   H7G 7839   0.931   2.783   9.352  0.1438 -1.6577 -0.1125
   6123SM   C8F 7840   1.006   2.905   9.185  0.5470 -0.6801  0.1463
   6123SM   H8F 7841   1.019   2.836   9.099 -1.5978  0.8703 -1.5238
   6123SM   H8G 7842   1.082   2.983   9.164 -0.3607  0.3618  0.6253
   6123SM   C9F 7843   0.868   2.969   9.177 -0.3098 -0.0625  0.0892
   6123SM   H9F 7844   0.854   3.032   9.267 -1.8868  0.2960 -0.3718
   6123SM   H9G 7845   0.790   2.890   9.185  0.8433 -1.5557 -2.2081
   6123SM  C10F 7846   0.853   3.040   9.049 -0.1133  0.6509 -0.3094
   6123SM  H10F 7847   0.892   2.982   8.963  1.9251  2.3064 -0.5641
   6123SM  H10G 7848   0.914   3.133   9.053  0.3051  0.3364  1.5677
   6123SM  C11F 7849   0.712   3.087   9.018 -0.0444  0.4335 -0.7891
   6123SM  H11F 7850   0.682   3.168   9.087 -1.8970 -1.5601  0.9068
   6123SM  H11G 7851   0.641   3.002   9.026  0.2800  0.3759  3.0537
   6123SM  C12F 7852   0.700   3.145   8.880  0.1909 -0.1526 -0.0203
   6123SM  H12F 7853   0.708   3.052   8.820 -0.8888 -1.1351  1.3020
   6123SM  H12G 7854   0.786   3.206   8.844 -1.0396  0.7677 -1.5734
   6123SM  C13F 7855   0.565   3.211   8.830  0.2055  0.2429 -0.2832
   6123SM  H13F 7856   0.525   3.292   8.896  2.9957  0.9280  0.7299
   6123SM  H13G 7857   0.487   3.133   8.838  1.2385 -0.6275  2.5919
   6123SM  C14F 7858   0.561   3.252   8.689  0.5604 -0.0740  1.2076
   6123SM  H14F 7859   0.576   3.161   8.628  1.6793  0.8077  0.1111
   6123SM  H14G 7860   0.635   3.327   8.655 -0.6760 -0.0326 -1.7406
   6123SM  C15F 7861   0.427   3.318   8.650 -0.3552 -0.5835 -0.0348
   6123SM  H15F 7862   0.423   3.418   8.698  1.6823  0.3128 -1.5652
   6123SM  H15G 7863   0.347   3.248   8.682 -1.4495  0.9382  0.6760
   6123SM  C16F 7864   0.408   3.348   8.499 -0.1617 -0.2656 -0.4969
   6123SM  H16F 7865   0.441   3.267   8.431  0.8608 -0.5375  0.2955
   6123SM  H16G 7866   0.485   3.421   8.465 -0.8526  1.1735  0.8850
   6123SM  C17F 7867   0.264   3.390   8.469  0.7091  0.1649 -0.0737
   6123SM  H17F 7868   0.234   3.491   8.502 -0.1924 -0.3317  0.6765
   6123SM  H17G 7869   0.190   3.332   8.527  0.2359  2.3567  1.6400
   6123SM  C18F 7870   0.232   3.376   8.321  0.0442 -0.5760  0.8665
   6123SM  H18F 7871   0.132   3.417   8.297  0.8154  0.8629 -0.0149
   6123SM  H18G 7872   0.239   3.267   8.301  2.5364 -0.4215  0.5687
   6123SM  C19F 7873   0.320   3.463   8.227 -0.2794  0.2751 -0.2866
   6123SM  H19F 7874   0.285   3.441   8.124  0.2588  0.9998 -0.6293
   6123SM  H19G 7875   0.428   3.434   8.228  0.9263  4.2343 -0.4087
   6123SM  C20F 7876   0.310   3.622   8.241  0.1667 -0.1092  0.0251
   6123SM  H20F 7877   0.343   3.642   8.345 -1.0486 -0.9214  0.5975
   6123SM  H20G 7878   0.205   3.658   8.233  0.8454  2.1247  0.4787
   6123SM  C21F 7879   0.390   3.705   8.149 -0.6042  0.0763 -0.2861
   6123SM  H21F 7880   0.386   3.807   8.194 -0.6441 -0.8785  2.0427
   6123SM  H21G 7881   0.351   3.712   8.045  0.3542  3.9313 -0.5502
   6123SM  C22F 7882   0.540   3.667   8.156  0.8040 -0.0443  0.7223
   6123SM  H22F 7883   0.558   3.587   8.081  1.8045  0.0366  0.8593
   6123SM  H22G 7884   0.573   3.637   8.258  2.0458  0.8476  0.6021
   6123SM  C23F 7885   0.624   3.784   8.110 -0.5677  0.1965 -0.1425
   6123SM  H23F 7886   0.579   3.880   8.141 -0.6605  0.3043 -0.5968
   6123SM  H23G 7887   0.624   3.784   7.999  0.3539 -2.2285 -0.2094
   6123SM  H23H 7888   0.729   3.775   8.143 -0.2044  1.1092 -0.9847
   6223SM     N 7889   0.226   1.474  10.443 -0.2362 -0.0082 -0.8884
   6223SM   C15 7890   0.271   1.434  10.580 -1.4634  0.4359  0.0909
   6223SM  H15A 7891   0.220   1.491  10.657 -2.3488 -2.4599  1.8155
   6223SM  H15B 7892   0.378   1.444  10.585 -1.4432  0.8054 -1.0314
   6223SM  H15C 7893   0.231   1.334  10.592  0.3411 -1.0538 -4.3957
   6223SM   C14 7894   0.304   1.391  10.345  0.6688  0.0752 -0.1821
   6223SM  H14A 7895   0.271   1.415  10.245 -0.9337  0.7124  0.4574
   6223SM  H14B 7896   0.290   1.285  10.360  1.1817  0.0425  0.1107
   6223SM  H14C 7897   0.409   1.406  10.365  1.0257 -2.8344  0.6205
   6223SM   C13 7898   0.082   1.426  10.435  0.5515 -0.3778 -0.0132
   6223SM  H13A 7899   0.042   1.463  10.341  0.5988  1.5561  0.6742
   6223SM  H13B 7900   0.018   1.476  10.506  1.1733  1.6487 -0.7790
   6223SM  H13C 7901   0.059   1.321  10.440  0.1079 -0.2382  1.0842
   6223SM   C12 7902   0.236   1.627  10.419 -0.0660  0.4590  0.5998
   6223SM  H12A 7903   0.335   1.653  10.382 -2.2720  3.0743 -4.5749
   6223SM  H12B 7904   0.210   1.682  10.508 -1.4215  0.9692 -0.0825
   6223SM   C11 7905   0.148   1.693  10.307  0.2709  0.0606  0.1126
   6223SM  H11A 7906   0.179   1.799  10.316 -0.4904  0.2736  0.2604
   6223SM  H11B 7907   0.041   1.693  10.335  0.6327  3.0170  1.8879
   6223SM     P 7908   0.296   1.691  10.099  0.0267 -0.2334  0.1757
   6223SM   O13 7909   0.419   1.686  10.179 -0.4945  0.0051 -0.1886
   6223SM   O14 7910   0.296   1.636   9.962 -1.0047  0.2454 -0.4185
   6223SM   O11 7911   0.248   1.843  10.097  0.1805  0.0873  0.1402
   6223SM   O12 7912   0.169   1.639  10.173 -0.3890 -0.3276 -0.4156
   6223SM   C1S 7913   0.232   1.899   9.972 -0.0000 -0.0562 -0.3168
   6223SM   H1S 7914   0.307   1.861   9.899  0.5936  0.3935  0.0545
   6223SM   H1T 7915   0.258   2.006   9.983  1.0159 -0.2424 -0.7867
   6223SM    NF 7916   0.068   1.944   9.778  0.4367 -0.4110  0.0689
   6223SM   HNF 7917   0.009   2.024   9.779 -0.2213 -0.8914  0.6438
   6223SM   C2S 7918   0.091   1.888   9.911 -0.0136 -0.8386  0.7539
   6223SM   H2S 7919   0.083   1.777   9.906  1.4358 -1.0579  2.2164
   6223SM   C3S 7920  -0.014   1.951  10.005  0.6282  0.2675 -0.9244
   6223SM   H3S 7921   0.003   2.058  10.031  2.3985 -0.8391  3.5173
   6223SM    O3 7922  -0.003   1.896  10.139 -0.0355  0.1915  0.2623
   6223SM   HO3 7923   0.080   1.847  10.136 -0.0353  0.1821  0.4149
   6223SM   C4S 7924  -0.157   1.918   9.964 -0.4963  0.2988  0.1808
   6223SM   H4S 7925  -0.178   1.810   9.960  0.6145  0.0900 -0.6525
   6223SM   C5S 7926  -0.255   2.004   9.929  0.0817 -0.2653  0.4289
   6223SM   H5S 7927  -0.225   2.110   9.926  1.5615 -0.6844 -0.9765
   6223SM   C6S 7928  -0.386   1.960   9.880  0.5070  0.0565  0.3195
   6223SM   H6S 7929  -0.461   1.998   9.952 -0.1255 -0.1561 -0.2260
   6223SM   H6T 7930  -0.398   1.849   9.876  0.0689 -0.0089  2.3919
   6223SM   C7S 7931  -0.423   2.025   9.747  0.0836  0.3662  0.1407
   6223SM   H7S 7932  -0.356   1.983   9.668 -1.4037 -1.5597 -0.1719
   6223SM   H7T 7933  -0.402   2.133   9.759  0.8017  0.4602 -1.5962
   6223SM   C8S 7934  -0.562   2.005   9.692 -0.7664 -0.1636  0.0367
   6223SM   H8S 7935  -0.640   2.045   9.759  0.7522  0.0297  1.7832
   6223SM   H8T 7936  -0.574   1.896   9.674  1.2715 -0.7090  1.6321
   6223SM   C9S 7937  -0.565   2.078   9.550  0.3440 -0.0292  0.4659
   6223SM   H9S 7938  -0.516   2.012   9.476  0.1050 -0.8812  1.0474
   6223SM   H9T 7939  -0.512   2.175   9.541 -0.0233  0.2371  1.0527
   6223SM  C10S 7940  -0.708   2.104   9.503  0.1352 -0.1006  0.2665
   6223SM  H10S 7941  -0.755   2.182   9.567  0.7909  2.9035 -2.6378
   6223SM  H10T 7942  -0.767   2.011   9.490 -0.4400  0.2135  0.5954
   6223SM  C11S 7943  -0.705   2.162   9.358 -0.4622 -0.3790  0.9815
   6223SM  H11S 7944  -0.640   2.103   9.290 -0.6117 -0.7810  1.1870
   6223SM  H11T 7945  -0.669   2.267   9.361 -1.9620  0.2109  0.0566
   6223SM  C12S 7946  -0.832   2.187   9.282  0.6130  0.1689 -0.3496
   6223SM  H12S 7947  -0.879   2.270   9.339  0.6075  0.4322 -0.7358
   6223SM  H12T 7948  -0.905   2.104   9.275  0.1730  0.4580  0.6842
   6223SM  C13S 7949  -0.809   2.238   9.139  0.6074  0.4561 -0.1825
   6223SM  H13S 7950  -0.711   2.199   9.105  1.1418  2.7838 -1.5055
   6223SM  H13T 7951  -0.802   2.348   9.134  0.5088  0.5316  1.0307
   6223SM  C14S 7952  -0.920   2.187   9.033 -0.4812 -0.2740  0.6292
   6223SM  H14S 7953  -0.912   2.264   8.953 -0.9162  1.1789  1.9269
   6223SM  H14T 7954  -1.021   2.202   9.078 -1.2204  1.0697 -1.3336
   6223SM  C15S 7955  -0.894   2.045   8.977 -0.8909  0.7559 -0.3596
   6223SM  H15S 7956  -0.883   1.979   9.066 -3.1983  0.2146 -0.4194
   6223SM  H15T 7957  -0.798   2.043   8.920  0.1814 -0.0448  1.3674
   6223SM  C16S 7958  -1.006   1.983   8.895  0.5466  0.6472 -0.4247
   6223SM  H16S 7959  -1.003   2.026   8.793  1.5389  1.0604 -0.2265
   6223SM  H16T 7960  -1.097   2.010   8.953  0.4605 -0.7704  0.1502
   6223SM  C17S 7961  -0.998   1.826   8.899 -0.3283  0.0007 -0.1676
   6223SM  H17S 7962  -1.087   1.776   8.855 -0.6821 -1.3098  1.8869
   6223SM  H17T 7963  -1.000   1.787   9.003  1.6505 -1.1610 -0.5033
   6223SM  C18S 7964  -0.876   1.765   8.831 -0.4906  0.7908  0.9653
   6223SM  H18S 7965  -0.881   1.655   8.823  1.5797  0.6951  0.4979
   6223SM  H18T 7966  -0.783   1.785   8.888  0.5384 -1.1371  0.0689
   6223SM  H18U 7967  -0.871   1.800   8.725 -0.0310 -0.4680  0.5567
   6223SM   C1F 7968   0.134   1.910   9.668  0.2229 -0.1815  0.5808
   6223SM    OF 7969   0.195   1.806   9.657  0.2357 -0.9019  0.8191
   6223SM   C2F 7970   0.130   2.010   9.553 -0.2420  0.3963  0.0393
   6223SM   H2F 7971   0.192   2.098   9.579  0.0443 -0.1373  1.2258
   6223SM   H2G 7972   0.026   2.048   9.545  0.2814  1.7277 -0.6019
   6223SM   C3F 7973   0.175   1.955   9.410 -0.5964 -0.6197  0.1369
   6223SM   H3F 7974   0.109   1.878   9.366  0.8292 -3.6601  2.9478
   6223SM   H3G 7975   0.265   1.893   9.422 -0.4222 -0.2319  0.9353
   6223SM   C4F 7976   0.202   2.063   9.306 -0.1175  0.3826 -0.2665
   6223SM   H4F 7977   0.300   2.109   9.332 -1.0413  0.9796  2.5140
   6223SM   H4G 7978   0.125   2.143   9.318 -0.1271  0.2068  1.0065
   6223SM   C5F 7979   0.201   2.022   9.152 -0.3396 -0.2353  0.5921
   6223SM   H5F 7980   0.120   1.950   9.128 -0.4149  0.4963 -1.5719
   6223SM   H5G 7981   0.289   1.954   9.145 -1.2555 -1.5533  1.4041
   6223SM   C6F 7982   0.190   2.127   9.047 -0.1794 -0.1725 -0.1955
   6223SM   H6F 7983   0.266   2.204   9.072 -0.2827 -0.4823  1.1587
   6223SM   H6G 7984   0.088   2.171   9.046  0.5038  1.6030  1.2907
   6223SM   C7F 7985   0.248   2.085   8.912  0.2778  0.6067  1.0312
   6223SM   H7F 7986   0.198   1.991   8.880 -1.5543  1.9849 -0.4073
   6223SM   H7G 7987   0.357   2.068   8.923  0.6088  1.7245 -0.1937
   6223SM   C8F 7988   0.232   2.188   8.794 -0.6369 -0.3251 -0.5809
   6223SM   H8F 7989   0.301   2.272   8.815 -2.5370  1.4349 -1.0906
   6223SM   H8G 7990   0.131   2.231   8.810  0.0972  0.8973  0.9400
   6223SM   C9F 7991   0.263   2.129   8.659 -0.2926 -1.1402 -0.1570
   6223SM   H9F 7992   0.203   2.037   8.648 -1.8250 -0.2522  0.4793
   6223SM   H9G 7993   0.372   2.106   8.666  0.0112  0.3347  0.4363
   6223SM  C10F 7994   0.235   2.232   8.544 -0.1544  0.1213  0.1367
   6223SM  H10F 7995   0.321   2.302   8.554  0.6699 -0.7945 -0.4035
   6223SM  H10G 7996   0.146   2.292   8.570 -1.0189 -0.9930 -0.1720
   6223SM  C11F 7997   0.240   2.169   8.404  0.1177  0.3465  0.1496
   6223SM  H11F 7998   0.164   2.089   8.405 -1.9273  2.1749  0.0808
   6223SM  H11G 7999   0.343   2.129   8.406  0.2321  0.5636  2.6159
   6223SM  C12F 8000   0.197   2.261   8.293 -0.5452 -0.0447 -0.0809
   6223SM  H12F 8001   0.267   2.347   8.285 -0.2733 -0.2536  0.0330
   6223SM  H12G 8002   0.096   2.301   8.318 -1.5111 -0.6108 -2.7288
   6223SM  C13F 8003   0.204   2.187   8.162  0.3671 -0.2649 -0.0473
   6223SM  H13F 8004   0.128   2.107   8.170 -0.7703  0.5043 -2.2095
   6223SM  H13G 8005   0.306   2.144   8.158  0.7615  0.7041 -1.1250
   6223SM  C14F 8006   0.189   2.280   8.042  0.5019  0.1123  0.1250
   6223SM  H14F 8007   0.252   2.371   8.050 -1.7568  1.6345  1.8577
   6223SM  H14G 8008   0.088   2.326   8.040 -0.7372 -2.2292  2.5368
   6223SM  C15F 8009   0.210   2.214   7.909 -0.1365  0.1647 -0.2730
   6223SM  H15F 8010   0.140   2.130   7.889 -0.3232  0.5781 -1.4405
   6223SM  H15G 8011   0.312   2.172   7.908 -0.4023 -0.6694  1.8712
   6223SM  C16F 8012   0.191   2.328   7.795 -0.2110  0.3255  0.6128
   6223SM  H16F 8013   0.251   2.418   7.819  0.0976  0.8161 -1.7021
   6223SM  H16G 8014   0.081   2.343   7.798 -0.8285 -3.0269 -0.3494
   6223SM  C17F 8015   0.247   2.290   7.663 -0.3930  0.7629  0.7395
   6223SM  H17F 8016   0.254   2.179   7.664  1.3387  0.7841 -1.3313
   6223SM  H17G 8017   0.346   2.332   7.634  0.5506 -0.9933  1.2357
   6223SM  C18F 8018   0.152   2.315   7.544  0.5656 -0.0094 -0.3415
   6223SM  H18F 8019   0.106   2.416   7.551  0.0783 -0.3026  0.9725
   6223SM  H18G 8020   0.067   2.243   7.547  0.6833 -0.2472 -1.7755
   6223SM  C19F 8021   0.212   2.311   7.400  0.3402  0.0579 -0.6618
   6223SM  H19F 8022   0.134   2.336   7.325  0.9283 -1.7252 -1.9245
   6223SM  H19G 8023   0.237   2.203   7.386 -2.3419 -0.4320 -2.2850
   6223SM  C20F 8024   0.341   2.406   7.386 -0.8822 -0.4238  0.1681
   6223SM  H20F 8025   0.430   2.377   7.446  0.4780  3.7635  0.5065
   6223SM  H20G 8026   0.309   2.507   7.418  1.9012 -0.0126  1.9973
   6223SM  C21F 8027   0.386   2.411   7.240 -0.6050  0.1098  0.2694
   6223SM  H21F 8028   0.301   2.428   7.170 -1.9260  0.8954  1.9957
   6223SM  H21G 8029   0.433   2.313   7.216 -0.7223  0.0649  0.2207
   6223SM  C22F 8030   0.477   2.521   7.208 -0.5607 -0.3150 -0.7836
   6223SM  H22F 8031   0.537   2.507   7.115  0.0118 -0.2058 -0.4350
   6223SM  H22G 8032   0.542   2.527   7.298 -1.9085 -0.7204  0.2497
   6223SM  C23F 8033   0.410   2.659   7.211  0.1037 -0.6931  0.1185
   6223SM  H23F 8034   0.485   2.738   7.192 -0.4153  0.5835  2.8884
   6223SM  H23G 8035   0.370   2.677   7.313  1.1905 -0.2663  0.4754
   6223SM  H23H 8036   0.327   2.674   7.138 -1.5125  0.7379  2.1172
   6323SM     N 8037   3.449   4.386  10.364  0.3745 -0.1559  0.0292
   6323SM   C15 8038   3.458   4.270  10.267  0.2823  0.3075  0.4193
   6323SM  H15A 8039   3.407   4.288  10.174 -0.7230 -1.5319  0.5882
   6323SM  H15B 8040   3.412   4.180  10.306 -1.1402  0.9893  0.3821
   6323SM  H15C 8041   3.561   4.264  10.236 -0.2849  1.0222 -1.7530
   6323SM   C14 8042   3.304   4.408  10.398 -0.5713  0.3355 -0.0935
   6323SM  H14A 8043   3.276   4.320  10.455  3.3679 -0.8439  0.3040
   6323SM  H14B 8044   3.234   4.416  10.316 -0.7625 -1.7676 -0.2120
   6323SM  H14C 8045   3.292   4.492  10.465 -3.1430 -1.8019  2.3996
   6323SM   C13 8046   3.516   4.346  10.497  0.0020  0.0962  0.3256
   6323SM  H13A 8047   3.623   4.340  10.480  0.2914  1.2020  1.6205
   6323SM  H13B 8048   3.484   4.248  10.526 -0.7340  0.1770 -0.1800
   6323SM  H13C 8049   3.501   4.416  10.578  0.5088 -0.4534  0.9069
   6323SM   C12 8050   3.513   4.504  10.310  0.8251  0.3475 -0.1741
   6323SM  H12A 8051   3.492   4.582  10.383 -1.1400 -0.9832  0.7832
   6323SM  H12B 8052   3.464   4.536  10.219 -0.3294  0.9466  0.6211
   6323SM   C11 8053   3.662   4.487  10.278  0.0618 -0.7709  0.3154
   6323SM  H11A 8054   3.697   4.565  10.207 -1.7767 -1.4249 -1.4271
   6323SM  H11B 8055   3.684   4.399  10.212 -0.0299 -1.0317  0.6298
   6323SM     P 8056   3.787   4.615  10.461  0.1498  0.0500  0.0057
   6323SM   O13 8057   3.683   4.725  10.444  0.0123  0.1458  0.8279
   6323SM   O14 8058   3.827   4.591  10.601  0.4733 -0.1655 -0.3798
   6323SM   O11 8059   3.911   4.659  10.377 -0.3649 -0.2561 -0.1925
   6323SM   O12 8060   3.743   4.475  10.398 -0.7807  0.6394  0.3502
   6323SM   C1S 8061   4.010   4.562  10.337 -0.1883 -0.2968 -0.2421
   6323SM   H1S 8062   4.013   4.470  10.398  0.4139  0.4148  0.8521
   6323SM   H1T 8063   4.113   4.605  10.340  0.2153 -0.9016 -3.0684
   6323SM    NF 8064   4.099   4.429  10.145  0.1329 -0.1619  0.1139
   6323SM   HNF 8065   4.176   4.469  10.096 -0.8591  0.8423 -0.6983
   6323SM   C2S 8066   4.007   4.538  10.182 -0.1928  0.2621 -0.0638
   6323SM   H2S 8067   3.904   4.509  10.152  0.0223  0.9790 -1.5465
   6323SM   C3S 8068   4.045   4.669  10.114 -0.5954 -0.2985 -0.1237
   6323SM   H3S 8069   4.154   4.686  10.112 -0.6395  0.4538  1.9183
   6323SM    O3 8070   3.996   4.793  10.174  0.3898 -0.2001  0.2534
   6323SM   HO3 8071   3.956   4.765  10.257 -2.3505 -1.0943 -1.2660
   6323SM   C4S 8072   4.019   4.664   9.969 -0.6917 -0.4550  0.2177
   6323SM   H4S 8073   4.109   4.661   9.906 -1.6584  1.9440 -1.4265
   6323SM   C5S 8074   3.897   4.665   9.909  0.1259 -0.1089  0.1478
   6323SM   H5S 8075   3.809   4.679   9.973 -0.4443 -0.4931 -0.5360
   6323SM   C6S 8076   3.867   4.653   9.758 -0.0470 -0.1811  0.2915
   6323SM   H6S 8077   3.963   4.648   9.702  0.3360  2.0336  0.6285
   6323SM   H6T 8078   3.810   4.745   9.733  1.4058  0.0542 -2.6201
   6323SM   C7S 8079   3.787   4.524   9.723 -0.4844  0.2154  0.0492
   6323SM   H7S 8080   3.696   4.516   9.786  0.0729 -0.6175  0.7631
   6323SM   H7T 8081   3.847   4.434   9.748  0.8252  1.0137 -0.1207
   6323SM   C8S 8082   3.732   4.519   9.573 -0.6893  0.0536 -0.3261
   6323SM   H8S 8083   3.678   4.423   9.563  0.2609 -0.5901  0.4755
   6323SM   H8T 8084   3.820   4.529   9.506 -1.4397 -1.2773 -1.5501
   6323SM   C9S 8085   3.630   4.632   9.544 -0.8892  0.3719 -0.9558
   6323SM   H9S 8086   3.685   4.728   9.544 -0.1644 -0.0339 -0.2950
   6323SM   H9T 8087   3.556   4.633   9.626 -0.3163  2.0134 -0.4207
   6323SM  C10S 8088   3.564   4.621   9.411  0.2952  0.1413  0.4622
   6323SM  H10S 8089   3.493   4.705   9.403 -0.3619 -0.5287 -1.2824
   6323SM  H10T 8090   3.507   4.525   9.406  0.4467  0.0363  0.7224
   6323SM  C11S 8091   3.647   4.612   9.287 -0.0802 -0.0337 -0.3123
   6323SM  H11S 8092   3.707   4.519   9.290  1.2091  0.7994  0.4871
   6323SM  H11T 8093   3.720   4.694   9.301 -0.0618 -0.2823  1.2490
   6323SM  C12S 8094   3.567   4.615   9.155 -0.3525 -1.0238  0.1628
   6323SM  H12S 8095   3.516   4.712   9.138 -1.9970 -1.3290  2.8394
   6323SM  H12T 8096   3.484   4.540   9.163 -1.3056  0.0432  0.5101
   6323SM  C13S 8097   3.645   4.590   9.021 -0.7664  0.0454 -0.6499
   6323SM  H13S 8098   3.711   4.501   9.030 -1.1775 -0.1565  0.4606
   6323SM  H13T 8099   3.708   4.681   9.005 -1.9330  1.3615  1.6983
   6323SM  C14S 8100   3.552   4.567   8.894  0.1269  0.2925 -0.7750
   6323SM  H14S 8101   3.481   4.652   8.884  0.0826  0.3591  0.0075
   6323SM  H14T 8102   3.488   4.478   8.911  0.5989  0.6251  3.9460
   6323SM  C15S 8103   3.633   4.541   8.763  0.2157  0.1765 -0.1269
   6323SM  H15S 8104   3.727   4.599   8.771  0.6239 -0.4742 -0.1755
   6323SM  H15T 8105   3.564   4.580   8.684 -0.6654 -0.8653  0.1026
   6323SM  C16S 8106   3.653   4.390   8.733 -0.2013  0.6632 -0.5840
   6323SM  H16S 8107   3.557   4.336   8.747 -1.7869  2.8587 -2.3368
   6323SM  H16T 8108   3.731   4.344   8.798 -0.1745 -0.0547 -1.1121
   6323SM  C17S 8109   3.689   4.371   8.588 -0.0178  0.2933  0.1049
   6323SM  H17S 8110   3.615   4.432   8.533  1.0999  2.1160  0.5589
   6323SM  H17T 8111   3.692   4.264   8.558  0.5940 -0.1007  1.4758
   6323SM  C18S 8112   3.819   4.438   8.555 -0.2670 -0.4256  0.0148
   6323SM  H18S 8113   3.850   4.406   8.454 -0.1940  1.4817 -0.5989
   6323SM  H18T 8114   3.904   4.421   8.624 -0.1639  1.2968  0.3601
   6323SM  H18U 8115   3.802   4.544   8.529 -0.0178 -1.2351 -4.1318
   6323SM   C1F 8116   4.082   4.300  10.158 -0.4719 -0.0258 -0.6965
   6323SM    OF 8117   3.970   4.255  10.180  0.0834 -0.0280 -0.2652
   6323SM   C2F 8118   4.193   4.207  10.143  0.6739  0.5383 -0.3623
   6323SM   H2F 8119   4.187   4.138  10.230  0.4400 -2.0378 -2.2878
   6323SM   H2G 8120   4.290   4.260  10.151  0.8032  0.1558  0.7866
   6323SM   C3F 8121   4.196   4.115  10.019  0.6444  0.0707  0.3037
   6323SM   H3F 8122   4.105   4.052  10.024  0.0073  1.0415  1.8816
   6323SM   H3G 8123   4.290   4.058  10.011  0.7263 -0.0883  2.0121
   6323SM   C4F 8124   4.173   4.197   9.887 -0.1221  0.3891  0.7142
   6323SM   H4F 8125   4.239   4.283   9.911  0.0444  0.5701 -0.3365
   6323SM   H4G 8126   4.067   4.227   9.881 -0.4258 -0.7328  0.0557
   6323SM   C5F 8127   4.211   4.112   9.765  0.0230 -0.3861 -0.3946
   6323SM   H5F 8128   4.180   4.008   9.786  0.2942 -0.2083  0.9889
   6323SM   H5G 8129   4.321   4.102   9.770  0.1519 -3.5917 -4.6577
   6323SM   C6F 8130   4.165   4.163   9.628  0.2005 -0.6451 -0.4226
   6323SM   H6F 8131   4.056   4.138   9.630  0.6142 -2.5756  0.5439
   6323SM   H6G 8132   4.209   4.101   9.547  0.2623  0.2095 -1.0567
   6323SM   C7F 8133   4.193   4.310   9.599  1.0196  0.1531 -0.1546
   6323SM   H7F 8134   4.296   4.328   9.560  1.3311  3.0680  1.6942
   6323SM   H7G 8135   4.189   4.375   9.689 -1.0173  0.7514 -0.6282
   6323SM   C8F 8136   4.100   4.379   9.496  0.6694  0.0623  0.6808
   6323SM   H8F 8137   4.130   4.484   9.478  0.9252 -0.1546 -0.1655
   6323SM   H8G 8138   3.996   4.365   9.531  0.1632  0.2914 -0.6789
   6323SM   C9F 8139   4.100   4.297   9.364  0.0088  0.0600  0.1353
   6323SM   H9F 8140   4.064   4.192   9.376  1.0040 -0.5880 -2.0724
   6323SM   H9G 8141   4.206   4.295   9.331  0.0605  0.3479  0.2818
   6323SM  C10F 8142   4.029   4.358   9.246 -0.3551 -0.1774 -0.2193
   6323SM  H10F 8143   4.039   4.468   9.259 -1.8840  0.1231 -1.2715
   6323SM  H10G 8144   3.920   4.334   9.253 -0.7374  1.2135 -1.0134
   6323SM  C11F 8145   4.088   4.327   9.111 -0.1002 -0.7121  0.0011
   6323SM  H11F 8146   4.092   4.219   9.085 -0.3310 -0.8045  0.3475
   6323SM  H11G 8147   4.194   4.361   9.115 -0.8646  2.4212 -2.3327
   6323SM  C12F 8148   4.025   4.402   8.988 -0.6114 -0.2498 -0.2636
   6323SM  H12F 8149   3.915   4.393   9.006 -1.1827 -1.9303 -3.8207
   6323SM  H12G 8150   4.047   4.343   8.896  1.9678 -1.3969  0.9943
   6323SM  C13F 8151   4.057   4.551   8.980  0.3717 -0.5807  0.2903
   6323SM  H13F 8152   4.014   4.610   9.064  0.5051 -1.6914  1.1810
   6323SM  H13G 8153   4.004   4.583   8.888 -0.9351 -0.6927  0.9762
   6323SM  C14F 8154   4.201   4.602   8.985 -0.1528  0.5101 -0.3103
   6323SM  H14F 8155   4.245   4.573   9.083 -1.4844 -0.0289  0.1428
   6323SM  H14G 8156   4.205   4.713   8.993  0.5648  0.3637  3.0264
   6323SM  C15F 8157   4.289   4.561   8.859 -0.0333  0.6918 -0.9032
   6323SM  H15F 8158   4.231   4.570   8.764  0.8618  0.4719 -1.4874
   6323SM  H15G 8159   4.309   4.452   8.871 -1.1651  0.1158 -3.4690
   6323SM  C16F 8160   4.420   4.636   8.849  1.2884 -0.5877  0.1647
   6323SM  H16F 8161   4.394   4.743   8.836  0.3933 -0.6780  1.1647
   6323SM  H16G 8162   4.467   4.604   8.753  0.0840 -1.1803 -0.2367
   6323SM  C17F 8163   4.521   4.609   8.961  0.3316 -0.3230  0.1012
   6323SM  H17F 8164   4.529   4.498   8.959 -0.5223 -0.4260  1.4288
   6323SM  H17G 8165   4.498   4.636   9.066 -0.5735  2.7817 -0.7915
   6323SM  C18F 8166   4.662   4.656   8.937 -0.3127  0.0161  0.7692
   6323SM  H18F 8167   4.643   4.762   8.907 -1.2516 -0.6671 -1.2692
   6323SM  H18G 8168   4.708   4.603   8.850 -1.2284 -0.2910  0.4564
   6323SM  C19F 8169   4.756   4.643   9.056  0.0698 -0.6917 -0.8738
   6323SM  H19F 8170   4.767   4.537   9.086 -0.0132 -0.6427 -0.6678
   6323SM  H19G 8171   4.713   4.714   9.130  2.0157 -1.2802  0.9054
   6323SM  C20F 8172   4.902   4.698   9.031 -1.5461  0.3630  1.0749
   6323SM  H20F 8173   4.891   4.803   8.996 -0.8655  0.0395 -0.1847
   6323SM  H20G 8174   4.948   4.643   8.945 -0.3252  2.1481  0.5252
   6323SM  C21F 8175   4.989   4.687   9.153  0.1618  0.2372  0.2053
   6323SM  H21F 8176   5.096   4.693   9.124  0.5230 -2.0731  0.8539
   6323SM  H21G 8177   4.975   4.588   9.202 -0.6735 -0.0736 -0.6286
   6323SM  C22F 8178   4.958   4.788   9.265 -0.1855 -0.2797  0.1097
   6323SM  H22F 8179   4.850   4.774   9.290 -0.5664 -1.0188 -1.7823
   6323SM  H22G 8180   4.975   4.895   9.241 -1.4249 -0.2139 -0.5953
   6323SM  C23F 8181   5.027   4.747   9.397 -0.2731  0.3554 -0.1412
   6323SM  H23F 8182   4.990   4.810   9.481 -1.6148 -0.0712 -0.3870
   6323SM  H23G 8183   5.130   4.784   9.378 -1.2866  3.3088 -0.4292
   6323SM  H23H 8184   5.012   4.640   9.419 -0.2373  0.4492  0.3493
   6423SM     N 8185   3.787   3.033  10.829  0.0485  0.1488  0.0017
   6423SM   C15 8186   3.927   3.037  10.886  0.6272 -0.1028  0.4372
   6423SM  H15A 8187   3.940   3.129  10.941 -1.0189 -0.6477  1.8192
   6423SM  H15B 8188   4.001   3.044  10.806  2.0102 -3.2924  1.2605
   6423SM  H15C 8189   3.949   2.959  10.957  0.0123  1.1660  2.0725
   6423SM   C14 8190   3.690   3.013  10.936 -0.0406  0.0006 -0.6626
   6423SM  H14A 8191   3.591   3.016  10.893 -0.4627  2.3444  0.3381
   6423SM  H14B 8192   3.709   3.084  11.015 -0.2093  0.5727 -1.1282
   6423SM  H14C 8193   3.712   2.916  10.978 -0.2313  0.8450  1.4833
   6423SM   C13 8194   3.766   3.164  10.763  0.5715  0.1993  0.0381
   6423SM  H13A 8195   3.659   3.178  10.760  0.5220 -0.0911  0.3566
   6423SM  H13B 8196   3.798   3.172  10.660  0.2234 -1.1921 -0.2023
   6423SM  H13C 8197   3.805   3.242  10.827  1.6057 -1.4260  1.4888
   6423SM   C12 8198   3.773   2.926  10.724  0.3592 -0.5181  0.2924
   6423SM  H12A 8199   3.805   2.834  10.769 -3.1288 -1.6597  0.7154
   6423SM  H12B 8200   3.856   2.948  10.657  2.6092 -4.9474  1.2424
   6423SM   C11 8201   3.650   2.921  10.637  0.6973  0.9956  0.3624
   6423SM  H11A 8202   3.669   2.858  10.548 -2.1130 -0.5657  0.7439
   6423SM  H11B 8203   3.617   3.023  10.607 -1.1368  0.7890  1.5313
   6423SM     P 8204   3.398   2.897  10.716 -0.3098  0.2002  0.5294
   6423SM   O13 8205   3.323   2.780  10.760 -0.8511  0.3940  0.1481
   6423SM   O14 8206   3.379   3.023  10.793 -0.6391  0.5025 -0.5184
   6423SM   O11 8207   3.356   2.930  10.562 -0.2123 -0.3003  0.1635
   6423SM   O12 8208   3.552   2.853  10.721 -0.1220  0.8102 -0.3684
   6423SM   C1S 8209   3.382   2.828  10.468  0.6153  0.2260 -0.2622
   6423SM   H1S 8210   3.295   2.760  10.481  0.1102  0.8595 -0.2405
   6423SM   H1T 8211   3.476   2.772  10.488  0.3802  0.1197  0.5843
   6423SM    NF 8212   3.414   2.766  10.236  0.0486  0.3084 -0.4586
   6423SM   HNF 8213   3.511   2.749  10.221 -0.2136 -0.9862 -0.7455
   6423SM   C2S 8214   3.387   2.877  10.323  0.0112  0.4792 -0.1952
   6423SM   H2S 8215   3.287   2.915  10.293 -0.5697  0.3623  1.4751
   6423SM   C3S 8216   3.488   2.993  10.307 -0.1524 -1.2870 -0.2407
   6423SM   H3S 8217   3.595   2.965  10.319  0.7151  1.9566  0.5331
   6423SM    O3 8218   3.470   3.103  10.401 -0.1634  0.1143  0.4121
   6423SM   HO3 8219   3.405   3.055  10.453 -0.3693 -0.3693 -0.2732
   6423SM   C4S 8220   3.484   3.050  10.165  0.2634 -0.5461 -0.3126
   6423SM   H4S 8221   3.386   3.094  10.142  1.4395  3.4061  1.2838
   6423SM   C5S 8222   3.594   3.075  10.087 -0.3927  0.3099  0.3518
   6423SM   H5S 8223   3.690   3.047  10.133 -0.1368  4.1095  2.5731
   6423SM   C6S 8224   3.592   3.145   9.951  0.3519  0.1482 -0.2818
   6423SM   H6S 8225   3.588   3.253   9.976 -3.3829  0.1728 -0.4865
   6423SM   H6T 8226   3.495   3.111   9.909 -0.2732  0.1243  1.1077
   6423SM   C7S 8227   3.712   3.110   9.862 -0.4609  0.2269  0.7795
   6423SM   H7S 8228   3.717   2.999   9.865  0.2879  0.2507  0.5504
   6423SM   H7T 8229   3.803   3.152   9.909  0.3719 -0.2388 -0.3652
   6423SM   C8S 8230   3.701   3.159   9.719 -0.2170 -0.3164  0.0195
   6423SM   H8S 8231   3.787   3.115   9.665 -1.5879 -0.4335 -2.2150
   6423SM   H8T 8232   3.710   3.270   9.717 -1.8249 -0.1464  0.2734
   6423SM   C9S 8233   3.588   3.118   9.630 -0.9120 -0.6374  0.2687
   6423SM   H9S 8234   3.502   3.171   9.676  1.1011  0.7206  2.6560
   6423SM   H9T 8235   3.578   3.007   9.629  0.4044 -0.7879 -1.4711
   6423SM  C10S 8236   3.602   3.154   9.481 -0.3884 -0.9007  0.0544
   6423SM  H10S 8237   3.698   3.109   9.447  0.3512  0.0564  0.8157
   6423SM  H10T 8238   3.617   3.263   9.468 -0.2836 -0.8703  0.4316
   6423SM  C11S 8239   3.476   3.109   9.416  0.6462 -0.0929  0.0630
   6423SM  H11S 8240   3.375   3.141   9.450 -0.0718 -1.8132 -0.3417
   6423SM  H11T 8241   3.469   3.000   9.439 -2.6657  0.5949  3.2430
   6423SM  C12S 8242   3.470   3.122   9.265 -0.7939 -0.3797 -0.0141
   6423SM  H12S 8243   3.384   3.065   9.225  0.0856 -0.8335 -1.3343
   6423SM  H12T 8244   3.563   3.082   9.218 -1.2118 -1.1609 -0.1870
   6423SM  C13S 8245   3.468   3.267   9.219  0.2261 -0.3804  0.2304
   6423SM  H13S 8246   3.532   3.328   9.286  2.2032 -0.4181 -1.5181
   6423SM  H13T 8247   3.362   3.298   9.227  0.4548  0.6595 -0.5872
   6423SM  C14S 8248   3.499   3.299   9.070 -0.2599 -0.2411  0.3267
   6423SM  H14S 8249   3.606   3.270   9.058 -0.1814 -1.4783  3.1368
   6423SM  H14T 8250   3.483   3.409   9.070 -1.2178 -0.3806  0.2456
   6423SM  C15S 8251   3.396   3.229   8.980 -0.4875 -0.3049 -0.2561
   6423SM  H15S 8252   3.299   3.232   9.035 -1.1545 -2.7925 -1.1496
   6423SM  H15T 8253   3.415   3.122   8.961  0.0637 -0.2035 -0.2900
   6423SM  C16S 8254   3.377   3.298   8.842 -0.4356 -0.0299 -0.1711
   6423SM  H16S 8255   3.475   3.334   8.803 -1.3541  0.9233 -1.7058
   6423SM  H16T 8256   3.316   3.389   8.862 -0.1872  0.0369  0.3015
   6423SM  C17S 8257   3.337   3.203   8.730 -0.0265  0.6854  0.1951
   6423SM  H17S 8258   3.407   3.117   8.729  1.4081  1.7880 -1.9394
   6423SM  H17T 8259   3.354   3.261   8.637  2.5671 -1.1477 -0.5922
   6423SM  C18S 8260   3.190   3.169   8.725 -0.0452  0.0106 -0.3371
   6423SM  H18S 8261   3.170   3.099   8.641 -2.7931  0.6156 -0.2748
   6423SM  H18T 8262   3.132   3.261   8.701 -0.3451 -0.3442 -0.9967
   6423SM  H18U 8263   3.146   3.119   8.813 -1.7560  0.3255 -0.9836
   6423SM   C1F 8264   3.325   2.667  10.212  0.5552 -0.0654  0.4237
   6423SM    OF 8265   3.214   2.667  10.270  0.2620  0.1732  0.6567
   6423SM   C2F 8266   3.376   2.568  10.120  0.1295  0.1024 -0.3428
   6423SM   H2F 8267   3.472   2.534  10.166 -0.0316 -2.0568 -1.4490
   6423SM   H2G 8268   3.398   2.605  10.017  0.0049 -1.3862 -0.9353
   6423SM   C3F 8269   3.279   2.446  10.113  0.2317  0.2130 -0.1844
   6423SM   H3F 8270   3.173   2.479  10.105  0.6582  2.1779  1.4654
   6423SM   H3G 8271   3.279   2.396  10.213 -0.1961  0.1845 -0.1960
   6423SM   C4F 8272   3.311   2.339  10.011 -0.0580  0.0678 -0.4734
   6423SM   H4F 8273   3.231   2.264  10.030 -0.4732  1.1931  3.0278
   6423SM   H4G 8274   3.407   2.294  10.043 -1.5285 -2.7232  0.4078
   6423SM   C5F 8275   3.302   2.391   9.869  0.1850  0.1162 -0.3658
   6423SM   H5F 8276   3.390   2.455   9.845  3.1765 -3.0840  1.0694
   6423SM   H5G 8277   3.209   2.448   9.852  0.5676  0.3241 -1.9607
   6423SM   C6F 8278   3.320   2.282   9.765 -0.0103 -0.0206  0.7758
   6423SM   H6F 8279   3.242   2.205   9.783 -0.3900 -0.0530 -0.8709
   6423SM   H6G 8280   3.416   2.228   9.775  0.6929  1.1449  0.5711
   6423SM   C7F 8281   3.303   2.320   9.622 -0.0102  0.4356 -0.6248
   6423SM   H7F 8282   3.372   2.405   9.604  0.5258 -0.0732 -1.0153
   6423SM   H7G 8283   3.199   2.355   9.612  0.3625  2.0954  0.8821
   6423SM   C8F 8284   3.327   2.202   9.525  0.7089 -0.0264  0.1274
   6423SM   H8F 8285   3.254   2.121   9.546  0.8452  0.2900  1.9988
   6423SM   H8G 8286   3.430   2.162   9.538  0.4475 -0.9215 -0.4754
   6423SM   C9F 8287   3.316   2.244   9.377  0.5151 -0.5564  0.2995
   6423SM   H9F 8288   3.373   2.337   9.357 -0.3870  0.3822  1.9079
   6423SM   H9G 8289   3.211   2.278   9.364  0.7373 -0.2963 -0.9988
   6423SM  C10F 8290   3.343   2.129   9.285 -0.4045 -0.5818  0.3075
   6423SM  H10F 8291   3.257   2.059   9.283 -1.4540  0.6345  1.4475
   6423SM  H10G 8292   3.424   2.082   9.344 -1.1834 -3.1143 -0.5108
   6423SM  C11F 8293   3.391   2.164   9.147  0.5509 -0.2924 -0.3026
   6423SM  H11F 8294   3.462   2.249   9.155 -0.1552  0.1171  3.6020
   6423SM  H11G 8295   3.306   2.197   9.084 -1.0558 -0.5380  1.6372
   6423SM  C12F 8296   3.451   2.047   9.076 -0.2593 -0.8987  0.5908
   6423SM  H12F 8297   3.380   1.961   9.072 -1.2896 -0.3932  4.1423
   6423SM  H12G 8298   3.536   2.006   9.135 -0.8676 -0.7792  1.5691
   6423SM  C13F 8299   3.497   2.094   8.937 -0.2337  0.1236  0.7447
   6423SM  H13F 8300   3.563   2.183   8.949 -1.7173  1.3362  0.2728
   6423SM  H13G 8301   3.407   2.117   8.877  0.5621 -0.5362 -0.7456
   6423SM  C14F 8302   3.566   1.984   8.858  0.5397 -0.3836  0.0573
   6423SM  H14F 8303   3.495   1.898   8.854 -1.9064  1.5493 -0.7907
   6423SM  H14G 8304   3.653   1.944   8.915 -0.0166 -1.9857 -0.1490
   6423SM  C15F 8305   3.599   2.019   8.707 -0.1604  0.0369  0.2519
   6423SM  H15F 8306   3.669   2.104   8.715  0.1177 -0.0161 -1.3109
   6423SM  H15G 8307   3.506   2.048   8.653  0.8920  1.7987 -0.6811
   6423SM  C16F 8308   3.655   1.905   8.631 -0.3420 -0.1392  0.2927
   6423SM  H16F 8309   3.579   1.825   8.616  1.1447 -1.1816 -2.3110
   6423SM  H16G 8310   3.739   1.857   8.685 -1.1139  1.0561  2.7086
   6423SM  C17F 8311   3.682   1.951   8.487  0.2603  0.4965  0.3513
   6423SM  H17F 8312   3.751   2.037   8.481  0.9889 -0.1780 -2.1948
   6423SM  H17G 8313   3.587   1.977   8.435  0.0602 -1.0950 -0.1220
   6423SM  C18F 8314   3.740   1.842   8.397  0.8441 -0.2509 -0.2071
   6423SM  H18F 8315   3.669   1.758   8.381 -1.9907  1.6214  1.5978
   6423SM  H18G 8316   3.832   1.811   8.450  0.2697 -0.3359  0.7524
   6423SM  C19F 8317   3.778   1.886   8.249 -0.1020 -0.0629 -0.0136
   6423SM  H19F 8318   3.858   1.963   8.256  1.3231 -1.4070 -0.8611
   6423SM  H19G 8319   3.690   1.926   8.194  0.3577  1.5937  0.4001
   6423SM  C20F 8320   3.838   1.769   8.170  0.4184 -0.0166  0.3556
   6423SM  H20F 8321   3.761   1.690   8.185  0.2170  0.2891  0.9434
   6423SM  H20G 8322   3.933   1.734   8.214 -0.1007 -2.6329 -0.3926
   6423SM  C21F 8323   3.857   1.797   8.019 -0.8465  0.1603 -0.4113
   6423SM  H21F 8324   3.767   1.853   7.988 -1.0888  0.7876  1.3150
   6423SM  H21G 8325   3.875   1.708   7.955 -1.8009 -0.9293  0.7813
   6423SM  C22F 8326   3.982   1.892   8.002  0.1758  0.1724  0.3443
   6423SM  H22F 8327   4.071   1.858   8.058  2.2974  3.1579 -0.9451
   6423SM  H22G 8328   3.953   1.991   8.045  0.3212  0.1235  0.5525
   6423SM  C23F 8329   4.030   1.920   7.857  0.2972  0.2140 -0.2980
   6423SM  H23F 8330   3.946   1.943   7.788 -0.9926 -0.7704  0.8741
   6423SM  H23G 8331   4.081   1.836   7.806 -2.5710 -2.8526  1.4704
   6423SM  H23H 8332   4.099   2.005   7.870  1.3099 -0.8191  1.4622
   6523SM     N 8333   3.705   2.072  10.630 -0.0590 -0.1144  0.3700
   6523SM   C15 8334   3.827   1.987  10.637  0.0546  0.4866  0.6834
   6523SM  H15A 8335   3.808   1.884  10.664 -1.4467  0.2619 -0.9821
   6523SM  H15B 8336   3.901   2.026  10.705  1.8490 -1.1031 -0.2573
   6523SM  H15C 8337   3.885   1.987  10.546  0.8048  0.0891  1.1494
   6523SM   C14 8338   3.608   1.979  10.574  0.0249  0.2688  0.1558
   6523SM  H14A 8339   3.505   2.011  10.562 -1.7241 -3.1966  3.5340
   6523SM  H14B 8340   3.605   1.900  10.647 -3.1537 -0.6058 -0.7222
   6523SM  H14C 8341   3.639   1.932  10.482  0.8894 -1.8324  1.4617
   6523SM   C13 8342   3.650   2.117  10.765  0.4601 -0.0217  0.3451
   6523SM  H13A 8343   3.730   2.163  10.821 -0.4087  0.9235  0.8381
   6523SM  H13B 8344   3.605   2.037  10.823 -2.1968  1.9276  1.1908
   6523SM  H13C 8345   3.566   2.183  10.757  0.8814  0.4895  0.1124
   6523SM   C12 8346   3.722   2.194  10.546  1.1057 -0.0997  0.1415
   6523SM  H12A 8347   3.624   2.239  10.545  1.6202  1.3148  3.0285
   6523SM  H12B 8348   3.739   2.165  10.444  0.1838 -1.6521  0.4040
   6523SM   C11 8349   3.820   2.296  10.586 -0.1440  0.0245  0.6568
   6523SM  H11A 8350   3.922   2.254  10.594 -1.4094 -3.1535  1.9314
   6523SM  H11B 8351   3.809   2.329  10.691 -0.1477 -1.7699  1.2602
   6523SM     P 8352   3.731   2.530  10.499  0.2276 -0.4032 -0.2059
   6523SM   O13 8353   3.585   2.507  10.488  0.2697  0.2760 -0.4095
   6523SM   O14 8354   3.780   2.604  10.620  0.3499 -0.3389  0.1172
   6523SM   O11 8355   3.772   2.606  10.367  0.0187 -0.0118  0.1208
   6523SM   O12 8356   3.823   2.398  10.488 -0.7934 -0.0917  0.0441
   6523SM   C1S 8357   3.874   2.711  10.364 -0.3033  0.4851  0.1797
   6523SM   H1S 8358   3.959   2.681  10.428 -2.1904 -1.0304  2.1087
   6523SM   H1T 8359   3.827   2.808  10.391  0.3634  0.5905  0.9764
   6523SM    NF 8360   4.043   2.818  10.210 -0.3864 -0.4910 -0.7341
   6523SM   HNF 8361   4.023   2.911  10.179  0.4310  0.4335  1.3158
   6523SM   C2S 8362   3.929   2.727  10.221 -0.1027 -0.7536  0.6819
   6523SM   H2S 8363   3.966   2.627  10.191  0.4752 -0.0978 -0.8966
   6523SM   C3S 8364   3.813   2.766  10.117 -1.4189  0.3071 -0.8113
   6523SM   H3S 8365   3.789   2.872  10.137  0.2965  0.9653 -1.9039
   6523SM    O3 8366   3.695   2.698  10.130  0.4906  0.0180  0.9174
   6523SM   HO3 8367   3.715   2.630  10.196 -1.3816 -0.0478  1.4880
   6523SM   C4S 8368   3.858   2.757   9.971 -0.2795 -0.4556 -0.7000
   6523SM   H4S 8369   3.907   2.850   9.937  1.4547  0.2557  3.1281
   6523SM   C5S 8370   3.853   2.653   9.891  0.0684 -0.5309 -0.2245
   6523SM   H5S 8371   3.802   2.561   9.924 -2.4074  0.4937 -0.9269
   6523SM   C6S 8372   3.899   2.645   9.748  0.1681  0.0757 -0.2681
   6523SM   H6S 8373   3.908   2.542   9.708  2.8457  0.6387 -1.3961
   6523SM   H6T 8374   4.009   2.656   9.737  0.2236 -0.6233 -0.4477
   6523SM   C7S 8375   3.837   2.741   9.652 -0.2339 -0.3777  0.5538
   6523SM   H7S 8376   3.867   2.847   9.668 -0.8038 -0.2431  0.7393
   6523SM   H7T 8377   3.726   2.743   9.658 -0.1641  1.4406  2.2407
   6523SM   C8S 8378   3.877   2.720   9.502 -0.0436  0.1749  0.0306
   6523SM   H8S 8379   3.848   2.616   9.477  1.1161 -0.3435  0.7330
   6523SM   H8T 8380   3.988   2.726   9.497  0.0164 -1.2026 -0.7773
   6523SM   C9S 8381   3.821   2.819   9.395  0.1081  0.0965 -0.2280
   6523SM   H9S 8382   3.864   2.921   9.407 -0.7392  0.5106 -0.6372
   6523SM   H9T 8383   3.711   2.819   9.413  0.0388 -0.5673 -0.6460
   6523SM  C10S 8384   3.855   2.775   9.252  0.4255  0.0359  1.0035
   6523SM  H10S 8385   3.796   2.685   9.228  1.0611  0.2252 -1.4915
   6523SM  H10T 8386   3.963   2.752   9.240 -0.2481 -3.1386  0.2224
   6523SM  C11S 8387   3.818   2.886   9.145 -0.3800  0.2944  0.0825
   6523SM  H11S 8388   3.845   2.984   9.191  2.2385  0.0762 -0.7959
   6523SM  H11T 8389   3.707   2.878   9.143 -0.3881  0.4746 -0.8057
   6523SM  C12S 8390   3.873   2.872   9.011  0.1709  0.6638 -0.5270
   6523SM  H12S 8391   3.852   2.771   8.968 -0.0884  0.2583  0.5273
   6523SM  H12T 8392   3.984   2.885   9.016  0.1432  1.1879 -1.1145
   6523SM  C13S 8393   3.821   2.964   8.901  0.0108  0.9161 -0.4104
   6523SM  H13S 8394   3.711   2.956   8.893  0.2308  0.0558 -4.1473
   6523SM  H13T 8395   3.875   2.932   8.809  3.0566  2.3103  0.7381
   6523SM  C14S 8396   3.861   3.105   8.939  0.0063 -0.0159  0.6207
   6523SM  H14S 8397   3.971   3.104   8.922 -0.2472  1.2769 -1.3373
   6523SM  H14T 8398   3.841   3.136   9.044  1.8504  0.7011  0.7933
   6523SM  C15S 8399   3.805   3.205   8.841 -0.5345 -0.6938  0.0433
   6523SM  H15S 8400   3.696   3.210   8.862 -0.3385  0.6292  0.8452
   6523SM  H15T 8401   3.813   3.170   8.736  2.3032 -1.0237  0.3037
   6523SM  C16S 8402   3.868   3.348   8.844  0.2745  0.2997  0.0322
   6523SM  H16S 8403   3.950   3.361   8.769  0.3454  0.5200  0.1467
   6523SM  H16T 8404   3.912   3.371   8.943 -0.0354  0.4440  0.1382
   6523SM  C17S 8405   3.766   3.458   8.816  0.3330 -0.2269  1.1330
   6523SM  H17S 8406   3.682   3.443   8.887 -1.2221 -1.3129 -0.8328
   6523SM  H17T 8407   3.720   3.439   8.716 -0.8414  1.6134  1.2759
   6523SM  C18S 8408   3.819   3.602   8.834  0.1533 -0.2218 -0.1804
   6523SM  H18S 8409   3.885   3.615   8.922  0.8170  0.1570 -0.7234
   6523SM  H18T 8410   3.735   3.673   8.841  0.7687  0.4012  1.2767
   6523SM  H18U 8411   3.886   3.621   8.747 -0.7396 -0.0509 -0.8358
   6523SM   C1F 8412   4.165   2.797  10.264 -0.7279 -0.6047  0.4323
   6523SM    OF 8413   4.194   2.699  10.326  0.0021 -0.0865 -0.2538
   6523SM   C2F 8414   4.260   2.910  10.251 -1.0154 -0.6263  0.6171
   6523SM   H2F 8415   4.343   2.899  10.325  0.3822  1.3281 -0.5609
   6523SM   H2G 8416   4.201   3.001  10.273  0.3333  0.4194  0.0776
   6523SM   C3F 8417   4.337   2.912  10.114 -0.3817 -0.1145  0.0474
   6523SM   H3F 8418   4.373   2.808  10.101  1.8164  0.4570  1.1073
   6523SM   H3G 8419   4.421   2.984  10.130 -0.3888 -0.2227  0.5935
   6523SM   C4F 8420   4.245   2.959  10.001  0.4121 -0.1150  0.1637
   6523SM   H4F 8421   4.213   3.063  10.026 -1.0622 -0.5257  0.0912
   6523SM   H4G 8422   4.148   2.906   9.995 -0.8167  2.0252  0.1692
   6523SM   C5F 8423   4.325   2.948   9.870  0.3300  0.0810 -0.2131
   6523SM   H5F 8424   4.429   2.986   9.877  0.2684  0.2136  0.0038
   6523SM   H5G 8425   4.292   3.017   9.790  0.5821 -0.1056 -0.4803
   6523SM   C6F 8426   4.307   2.805   9.801 -0.3060 -0.5155  0.2874
   6523SM   H6F 8427   4.197   2.793   9.786 -0.0527  0.8598 -3.7841
   6523SM   H6G 8428   4.336   2.729   9.876 -0.1569 -1.1258 -0.3793
   6523SM   C7F 8429   4.387   2.786   9.671 -0.4790  0.7047 -0.8185
   6523SM   H7F 8430   4.398   2.676   9.658  0.3136  0.5871  0.5559
   6523SM   H7G 8431   4.490   2.816   9.699 -0.3972  0.6308 -1.0384
   6523SM   C8F 8432   4.332   2.851   9.556  0.0847 -0.9111  0.7696
   6523SM   H8F 8433   4.362   2.958   9.561 -1.3103 -0.4444 -0.2980
   6523SM   H8G 8434   4.221   2.855   9.551  0.1349  2.7855 -3.0832
   6523SM   C9F 8435   4.377   2.789   9.422  0.0509  0.3607  0.5750
   6523SM   H9F 8436   4.338   2.686   9.411 -1.2406  0.7841  0.9676
   6523SM   H9G 8437   4.488   2.784   9.422  0.0378 -3.1285  1.9899
   6523SM  C10F 8438   4.327   2.868   9.304  0.0876 -0.1586 -0.9981
   6523SM  H10F 8439   4.345   2.973   9.336 -0.1403 -0.2886 -0.4181
   6523SM  H10G 8440   4.217   2.852   9.299 -0.0344 -0.9727  2.1823
   6523SM  C11F 8441   4.393   2.845   9.173 -0.2563  0.3456  0.8233
   6523SM  H11F 8442   4.336   2.770   9.115 -3.0560  2.7146  0.2699
   6523SM  H11G 8443   4.502   2.832   9.191  0.0661  0.9773 -0.5413
   6523SM  C12F 8444   4.393   2.970   9.085 -0.8124 -0.2701 -0.1086
   6523SM  H12F 8445   4.432   3.058   9.140  0.6435 -1.4238  0.7831
   6523SM  H12G 8446   4.289   3.008   9.073 -1.3412 -1.2618  1.0761
   6523SM  C13F 8447   4.450   2.954   8.947  0.4042  0.1679  0.2642
   6523SM  H13F 8448   4.540   2.888   8.948  0.7152  0.5986  0.7480
   6523SM  H13G 8449   4.482   3.052   8.905 -1.8873  0.2153 -1.5821
   6523SM  C14F 8450   4.347   2.893   8.846  0.6269 -0.3028 -0.4371
   6523SM  H14F 8451   4.264   2.966   8.836  0.1411 -1.0873 -2.4910
   6523SM  H14G 8452   4.292   2.809   8.894 -0.6442  1.2684  1.0189
   6523SM  C15F 8453   4.401   2.868   8.705 -0.6917 -0.0291  0.4133
   6523SM  H15F 8454   4.330   2.803   8.651  0.4703 -0.4552 -0.6598
   6523SM  H15G 8455   4.502   2.820   8.710 -1.7746 -2.8333 -1.7621
   6523SM  C16F 8456   4.417   3.000   8.621  0.0318 -0.4413  0.0608
   6523SM  H16F 8457   4.472   3.082   8.674 -4.2985  2.5866  0.3998
   6523SM  H16G 8458   4.313   3.037   8.618  0.4232  0.6908 -0.2095
   6523SM  C17F 8459   4.489   2.977   8.487 -0.3141 -0.5818 -0.4293
   6523SM  H17F 8460   4.430   2.909   8.422  0.6982 -2.9710  1.0103
   6523SM  H17G 8461   4.585   2.928   8.511  1.2654  1.8511 -1.3566
   6523SM  C18F 8462   4.520   3.117   8.421  0.3059 -0.2911  0.9668
   6523SM  H18F 8463   4.584   3.172   8.494  0.7550  1.4414 -0.6753
   6523SM  H18G 8464   4.422   3.165   8.400  0.5145  0.6345  2.0178
   6523SM  C19F 8465   4.589   3.110   8.290 -0.1153  0.3162  0.4012
   6523SM  H19F 8466   4.513   3.068   8.221 -0.0167  1.3722 -0.3832
   6523SM  H19G 8467   4.677   3.042   8.299 -1.0211 -1.0844 -0.7853
   6523SM  C20F 8468   4.652   3.243   8.235  0.0415  0.4418 -0.1663
   6523SM  H20F 8469   4.699   3.228   8.136 -0.5298  0.8007 -0.5005
   6523SM  H20G 8470   4.733   3.276   8.303 -0.7904  0.7491  0.7058
   6523SM  C21F 8471   4.550   3.363   8.222 -0.5036 -0.1690  0.0013
   6523SM  H21F 8472   4.599   3.462   8.238  0.7139 -0.8506  0.7170
   6523SM  H21G 8473   4.483   3.357   8.310 -0.1318  2.3757  0.5333
   6523SM  C22F 8474   4.475   3.366   8.088 -0.9271  0.1337 -0.8013
   6523SM  H22F 8475   4.371   3.399   8.106  0.3936  4.1765  0.3507
   6523SM  H22G 8476   4.470   3.260   8.055 -0.1556  0.3456 -1.6628
   6523SM  C23F 8477   4.547   3.445   7.977  0.2856 -0.5352 -0.3568
   6523SM  H23F 8478   4.479   3.446   7.890 -0.7963 -0.1145  0.4666
   6523SM  H23G 8479   4.644   3.394   7.956  2.0372  2.9002 -1.3002
   6523SM  H23H 8480   4.570   3.552   7.997 -1.1131  0.2053 -2.4087
   6623SM     N 8481   1.530   7.596  10.694  0.5139  0.9656 -0.2317
   6623SM   C15 8482   1.630   7.511  10.768  0.3843 -0.0799  0.7380
   6623SM  H15A 8483   1.626   7.528  10.875 -0.8623  0.9136  0.5483
   6623SM  H15B 8484   1.728   7.533  10.729  0.2837  0.4336  0.7679
   6623SM  H15C 8485   1.613   7.407  10.743  1.2490  0.0729 -0.5300
   6623SM   C14 8486   1.393   7.557  10.742  0.4200  0.0911 -0.1197
   6623SM  H14A 8487   1.323   7.628  10.701  0.5867 -0.7080 -1.8824
   6623SM  H14B 8488   1.373   7.582  10.845 -1.5979  1.3636 -0.7448
   6623SM  H14C 8489   1.358   7.461  10.707  0.3332  0.3681 -0.8300
   6623SM   C13 8490   1.548   7.736  10.734  0.3512 -0.2170 -0.0766
   6623SM  H13A 8491   1.479   7.810  10.695 -0.2682 -0.6658  0.1421
   6623SM  H13B 8492   1.643   7.776  10.701  0.0984  1.2005  0.8239
   6623SM  H13C 8493   1.543   7.748  10.841  0.2641  1.5557 -0.2523
   6623SM   C12 8494   1.546   7.581  10.548  0.2246  0.3118 -0.0259
   6623SM  H12A 8495   1.471   7.643  10.500  0.6524  0.1375 -0.9510
   6623SM  H12B 8496   1.524   7.478  10.524 -1.2941  0.7703 -0.6559
   6623SM   C11 8497   1.688   7.613  10.486 -0.2474 -0.6017 -0.4904
   6623SM  H11A 8498   1.728   7.707  10.530 -0.1186 -1.1233  0.5424
   6623SM  H11B 8499   1.681   7.625  10.376 -0.2653 -1.6950 -0.6185
   6623SM     P 8500   1.784   7.364  10.472 -0.4914 -0.0925  0.0601
   6623SM   O13 8501   1.884   7.289  10.545 -0.2697 -0.3084 -0.3408
   6623SM   O14 8502   1.642   7.320  10.490  0.0906 -0.1764 -0.1572
   6623SM   O11 8503   1.820   7.358  10.317  0.1412  0.1319 -0.6365
   6623SM   O12 8504   1.792   7.515  10.518 -0.0975  0.1092  0.3547
   6623SM   C1S 8505   1.945   7.294  10.274 -0.5726 -0.7910 -0.2113
   6623SM   H1S 8506   1.947   7.189  10.308  1.8294 -0.7584 -0.1147
   6623SM   H1T 8507   2.039   7.334  10.316 -1.5620  0.3924  1.0040
   6623SM    NF 8508   2.050   7.203  10.072 -0.7478  0.4562  0.0051
   6623SM   HNF 8509   2.130   7.243  10.029  0.2980  0.7282  2.0945
   6623SM   C2S 8510   1.952   7.298  10.124 -0.1290 -0.2752 -0.2331
   6623SM   H2S 8511   1.851   7.278  10.084 -1.4401  1.3318  2.0535
   6623SM   C3S 8512   1.987   7.449  10.086  0.3692  0.0144  0.3670
   6623SM   H3S 8513   2.091   7.465  10.120 -0.0512  0.1863  1.6421
   6623SM    O3 8514   1.897   7.542  10.148 -0.1226  0.5410  0.3599
   6623SM   HO3 8515   1.876   7.505  10.234  4.3185 -1.3555  0.9287
   6623SM   C4S 8516   1.978   7.452   9.935 -0.5653  0.1271  0.7255
   6623SM   H4S 8517   2.071   7.414   9.889  0.9699  1.5026  2.5117
   6623SM   C5S 8518   1.882   7.505   9.868  0.1138 -0.3052  0.3012
   6623SM   H5S 8519   1.808   7.554   9.932 -0.9695 -2.2415  0.6077
   6623SM   C6S 8520   1.875   7.517   9.722  0.4807 -0.1600  0.8596
   6623SM   H6S 8521   1.771   7.532   9.687  0.5362  1.4249  1.3077
   6623SM   H6T 8522   1.913   7.430   9.664  1.3137  0.0422  1.0781
   6623SM   C7S 8523   1.932   7.650   9.685 -0.1717  0.1521  0.3604
   6623SM   H7S 8524   2.043   7.660   9.691 -0.2968  2.5535 -0.1007
   6623SM   H7T 8525   1.887   7.731   9.746 -1.1324  0.8966 -1.2723
   6623SM   C8S 8526   1.896   7.689   9.533  0.1149 -0.3044  0.6701
   6623SM   H8S 8527   1.787   7.698   9.515  0.1184 -0.4846  0.5660
   6623SM   H8T 8528   1.943   7.611   9.470 -2.7793 -1.0311 -0.7526
   6623SM   C9S 8529   1.963   7.817   9.490  0.0276  0.5107 -0.0978
   6623SM   H9S 8530   2.073   7.822   9.501  0.2480  2.5774 -2.2189
   6623SM   H9T 8531   1.945   7.902   9.559 -0.6506  1.1737 -1.0556
   6623SM  C10S 8532   1.919   7.849   9.346 -0.1176 -0.1008 -0.1237
   6623SM  H10S 8533   1.808   7.857   9.340 -0.1062 -0.6959 -1.3261
   6623SM  H10T 8534   1.956   7.768   9.280  2.5525  0.2720  0.7810
   6623SM  C11S 8535   1.969   7.983   9.284 -0.0154 -0.9335 -0.1598
   6623SM  H11S 8536   2.080   7.983   9.284  0.0252  1.5465 -0.4775
   6623SM  H11T 8537   1.935   8.066   9.348  0.1628  0.3451 -1.6651
   6623SM  C12S 8538   1.914   8.003   9.138 -0.2424  0.2477 -0.3390
   6623SM  H12S 8539   1.804   7.987   9.136 -0.0052 -1.4995 -1.2122
   6623SM  H12T 8540   1.960   7.932   9.066  0.0362 -0.6749  0.7305
   6623SM  C13S 8541   1.950   8.142   9.078 -0.0900 -0.1492 -0.2372
   6623SM  H13S 8542   2.057   8.162   9.103 -0.4120  0.8859  0.3779
   6623SM  H13T 8543   1.882   8.205   9.139  0.1249 -2.2497  2.3663
   6623SM  C14S 8544   1.920   8.158   8.934 -0.4603  0.1808 -1.0515
   6623SM  H14S 8545   2.001   8.116   8.872 -0.4006  0.5279 -1.2075
   6623SM  H14T 8546   1.907   8.268   8.923 -0.8811  0.3128  0.4157
   6623SM  C15S 8547   1.784   8.100   8.900  0.0159 -0.1082 -0.3090
   6623SM  H15S 8548   1.708   8.150   8.964 -1.3545 -0.7504 -1.3869
   6623SM  H15T 8549   1.768   7.995   8.932 -2.4654  0.8914  2.1738
   6623SM  C16S 8550   1.751   8.114   8.752 -0.3322 -0.5728  0.6457
   6623SM  H16S 8551   1.829   8.052   8.702  0.3861  0.5814  0.3012
   6623SM  H16T 8552   1.763   8.218   8.715  0.5497 -1.2219 -0.9953
   6623SM  C17S 8553   1.613   8.062   8.716 -0.4504 -0.2789 -0.0548
   6623SM  H17S 8554   1.525   8.124   8.745  0.3203  0.7502  0.1481
   6623SM  H17T 8555   1.607   7.960   8.759 -0.4098 -1.1144 -1.9281
   6623SM  C18S 8556   1.589   8.036   8.561 -0.3861 -0.6362  0.0968
   6623SM  H18S 8557   1.571   8.129   8.502  1.7516  0.4031  0.9560
   6623SM  H18T 8558   1.505   7.965   8.546  0.9672 -2.0593 -0.9522
   6623SM  H18U 8559   1.675   7.982   8.517 -0.6675  0.0059 -1.3178
   6623SM   C1F 8560   2.036   7.070  10.082  0.3476  0.2216 -0.5473
   6623SM    OF 8561   1.932   7.021  10.123 -0.3755 -0.0302  0.2905
   6623SM   C2F 8562   2.148   6.973  10.046  0.6036  0.0192 -0.1171
   6623SM   H2F 8563   2.186   6.918  10.134  1.0402 -0.1401 -0.4017
   6623SM   H2G 8564   2.235   7.034  10.013  0.7906 -0.4688 -0.5252
   6623SM   C3F 8565   2.110   6.877   9.929  0.0334 -0.2125 -0.5529
   6623SM   H3F 8566   2.016   6.827   9.963  0.2934  0.2602  0.9707
   6623SM   H3G 8567   2.193   6.804   9.924 -0.8744 -1.2132 -1.6457
   6623SM   C4F 8568   2.073   6.940   9.793 -0.1244  0.4863  0.2376
   6623SM   H4F 8569   1.973   6.988   9.802  0.4926  1.5424  1.9333
   6623SM   H4G 8570   2.074   6.859   9.717  0.2973 -0.6171  1.3787
   6623SM   C5F 8571   2.165   7.051   9.742 -0.0746 -0.2378 -0.4526
   6623SM   H5F 8572   2.273   7.022   9.738  0.3552  0.8925  1.4236
   6623SM   H5G 8573   2.157   7.128   9.822 -0.7775 -1.3236  0.5480
   6623SM   C6F 8574   2.113   7.104   9.610  0.2647 -0.4804 -0.1096
   6623SM   H6F 8575   2.003   7.121   9.621  0.5273  1.6038 -0.2682
   6623SM   H6G 8576   2.112   7.027   9.530 -2.4348 -0.0654 -0.5755
   6623SM   C7F 8577   2.177   7.239   9.569  0.4963 -0.4910 -0.2021
   6623SM   H7F 8578   2.276   7.213   9.524  0.9510  0.7848  0.0200
   6623SM   H7G 8579   2.173   7.316   9.649 -0.7007  1.7373 -2.2668
   6623SM   C8F 8580   2.098   7.306   9.453  0.3636 -1.0581  0.0864
   6623SM   H8F 8581   1.996   7.331   9.488  1.3371  0.3551  2.0716
   6623SM   H8G 8582   2.090   7.229   9.373  0.6058 -0.6390 -0.3466
   6623SM   C9F 8583   2.165   7.435   9.388  0.4831  0.1216  0.4058
   6623SM   H9F 8584   2.275   7.424   9.393  0.5020  0.7804  1.5854
   6623SM   H9G 8585   2.140   7.525   9.448  0.3894  0.8451 -0.6766
   6623SM  C10F 8586   2.111   7.470   9.243 -0.0518 -0.0925 -0.4849
   6623SM  H10F 8587   2.002   7.486   9.231 -0.6295 -2.0098  1.3562
   6623SM  H10G 8588   2.130   7.380   9.180  0.6563 -0.2652 -0.0447
   6623SM  C11F 8589   2.191   7.578   9.191  0.0467 -0.0722  0.3952
   6623SM  H11F 8590   2.297   7.562   9.221  0.0589 -2.7920 -0.7779
   6623SM  H11G 8591   2.169   7.682   9.224  1.7934 -0.0468  1.6067
   6623SM  C12F 8592   2.202   7.574   9.030 -0.3336 -0.0897 -0.5397
   6623SM  H12F 8593   2.229   7.470   9.000  3.9659  0.8210 -0.4203
   6623SM  H12G 8594   2.291   7.628   8.993 -0.4331  1.0395  0.7623
   6623SM  C13F 8595   2.079   7.636   8.956  0.8479 -0.3250  0.0395
   6623SM  H13F 8596   2.054   7.740   8.985  0.6961  0.2224 -1.8953
   6623SM  H13G 8597   1.984   7.582   8.978 -1.0558  2.2301 -1.2731
   6623SM  C14F 8598   2.113   7.645   8.804  0.4954 -0.3342  0.7821
   6623SM  H14F 8599   2.125   7.541   8.766  3.0242 -0.1253  0.8433
   6623SM  H14G 8600   2.207   7.704   8.792  0.0761 -0.0466 -1.4950
   6623SM  C15F 8601   2.002   7.713   8.723  0.1279 -0.0273  0.8218
   6623SM  H15F 8602   1.976   7.817   8.753  1.2866  0.0160  1.7046
   6623SM  H15G 8603   1.908   7.657   8.743 -1.1127  1.0772 -1.4419
   6623SM  C16F 8604   2.036   7.702   8.569  0.3059 -0.4312 -0.2240
   6623SM  H16F 8605   2.026   7.597   8.536  0.1719 -0.9668  1.4283
   6623SM  H16G 8606   2.142   7.734   8.562  0.9096 -1.9843  1.2723
   6623SM  C17F 8607   1.939   7.800   8.484  0.1586  0.0238 -0.0884
   6623SM  H17F 8608   1.933   7.900   8.532 -2.1116  0.5410 -1.3293
   6623SM  H17G 8609   1.838   7.754   8.493  0.5693 -1.1262 -1.0914
   6623SM  C18F 8610   1.967   7.809   8.333  0.7223  0.3899 -0.0498
   6623SM  H18F 8611   2.073   7.841   8.324  0.0125  3.3039  1.0577
   6623SM  H18G 8612   1.900   7.884   8.286 -0.0200  0.8338  1.6189
   6623SM  C19F 8613   1.956   7.674   8.255 -0.4317 -0.4717  0.7043
   6623SM  H19F 8614   1.852   7.645   8.227 -1.6570  1.4983  2.8254
   6623SM  H19G 8615   1.995   7.592   8.319  0.5430 -0.2722  0.3745
   6623SM  C20F 8616   2.038   7.697   8.125 -0.1078  1.3204  0.5724
   6623SM  H20F 8617   2.143   7.717   8.153 -0.2923 -0.1748  2.5966
   6623SM  H20G 8618   2.004   7.785   8.066  0.0862  1.8085  1.1835
   6623SM  C21F 8619   2.020   7.585   8.026 -0.2470  0.2416 -0.2576
   6623SM  H21F 8620   1.913   7.557   8.014  0.1924 -1.8101  0.1470
   6623SM  H21G 8621   2.061   7.490   8.066  1.2510  0.3206 -1.4565
   6623SM  C22F 8622   2.097   7.617   7.895  0.2014  0.8374  0.1697
   6623SM  H22F 8623   2.201   7.632   7.931 -0.6991 -0.1462  3.6059
   6623SM  H22G 8624   2.053   7.712   7.858  0.7715  2.7123  3.7865
   6623SM  C23F 8625   2.111   7.518   7.782  0.3212  0.2563 -0.4263
   6623SM  H23F 8626   2.164   7.424   7.808 -0.2258 -0.0889 -0.5415
   6623SM  H23G 8627   2.162   7.561   7.693 -1.5066  1.7191 -0.8385
   6623SM  H23H 8628   2.010   7.481   7.756  0.3522  0.8557 -1.4603
   6723SM     N 8629   2.213   5.208  10.456 -0.2655 -0.4628  0.3027
   6723SM   C15 8630   2.090   5.271  10.399 -0.1885  0.2161  0.4169
   6723SM  H15A 8631   2.030   5.309  10.480 -0.0395  0.6331  0.3350
   6723SM  H15B 8632   2.036   5.219  10.321 -0.1773  1.6032 -0.5499
   6723SM  H15C 8633   2.116   5.362  10.347  0.1812 -2.1209 -3.9209
   6723SM   C14 8634   2.310   5.308  10.510  0.0399 -0.4461 -0.6395
   6723SM  H14A 8635   2.391   5.251  10.554 -2.3322 -0.5079  4.2870
   6723SM  H14B 8636   2.267   5.359  10.595 -1.3160 -1.1046 -0.9102
   6723SM  H14C 8637   2.330   5.381  10.434 -1.4234 -1.9455 -2.5588
   6723SM   C13 8638   2.168   5.114  10.568  0.2151  0.3781 -0.8465
   6723SM  H13A 8639   2.096   5.047  10.524 -0.1790  0.2304  0.0078
   6723SM  H13B 8640   2.114   5.173  10.640 -0.5064  1.1155 -1.9681
   6723SM  H13C 8641   2.250   5.065  10.618 -0.7067 -0.4787 -0.1339
   6723SM   C12 8642   2.287   5.116  10.360 -0.5700 -0.0973  0.1868
   6723SM  H12A 8643   2.362   5.062  10.415  0.6488  2.7041  1.4600
   6723SM  H12B 8644   2.346   5.179  10.295 -0.8593 -0.9465 -0.9255
   6723SM   C11 8645   2.207   5.007  10.279 -0.1798  0.3951  0.0765
   6723SM  H11A 8646   2.270   4.963  10.199  1.1585  0.4526  1.0623
   6723SM  H11B 8647   2.129   5.064  10.223 -0.8878  2.2850  2.7553
   6723SM     P 8648   2.238   4.777  10.394  0.1475  0.0379  0.1643
   6723SM   O13 8649   2.381   4.806  10.435  0.2673  0.5299  0.2917
   6723SM   O14 8650   2.158   4.700  10.486 -0.1546 -0.3485 -0.0147
   6723SM   O11 8651   2.242   4.708  10.254  0.4412 -0.3829 -0.3376
   6723SM   O12 8652   2.147   4.912  10.368  0.2186  0.4698  0.1498
   6723SM   C1S 8653   2.127   4.637  10.205 -0.0247  0.5803 -0.1670
   6723SM   H1S 8654   2.034   4.697  10.217  1.1569  2.1980  1.4694
   6723SM   H1T 8655   2.111   4.538  10.254 -0.1973  0.1994 -0.9739
   6723SM    NF 8656   2.034   4.512  10.028  0.4804 -0.0292 -0.4197
   6723SM   HNF 8657   2.063   4.420  10.004  2.5407  0.7141 -1.0058
   6723SM   C2S 8658   2.139   4.599  10.057 -0.5586 -0.2134 -0.2023
   6723SM   H2S 8659   2.121   4.696  10.005  1.2212  0.1836 -0.1318
   6723SM   C3S 8660   2.285   4.549  10.016  0.3350  0.4637  0.0569
   6723SM   H3S 8661   2.294   4.454  10.073 -1.1443  0.2991  0.0576
   6723SM    O3 8662   2.398   4.644  10.032 -0.1626 -0.2323 -0.5785
   6723SM   HO3 8663   2.370   4.707  10.099  0.7119  1.9519 -2.1350
   6723SM   C4S 8664   2.295   4.504   9.863 -0.0327  0.0303  0.0315
   6723SM   H4S 8665   2.310   4.397   9.841  0.2347  0.2939 -1.1370
   6723SM   C5S 8666   2.307   4.595   9.758  0.7511  0.6626 -0.0897
   6723SM   H5S 8667   2.318   4.704   9.765 -0.7412  0.9986 -2.0719
   6723SM   C6S 8668   2.315   4.528   9.623 -0.1842 -0.3167  0.1828
   6723SM   H6S 8669   2.291   4.420   9.615  1.8392 -0.7297 -1.1722
   6723SM   H6T 8670   2.418   4.525   9.581 -0.6227 -1.3407 -0.8742
   6723SM   C7S 8671   2.258   4.614   9.508 -0.0623 -1.0446 -0.6496
   6723SM   H7S 8672   2.300   4.716   9.521  0.2268 -1.2225 -0.1489
   6723SM   H7T 8673   2.149   4.624   9.521  0.0687 -0.0351 -0.2079
   6723SM   C8S 8674   2.273   4.553   9.368  0.3136 -0.3482 -0.6561
   6723SM   H8S 8675   2.202   4.468   9.358 -1.4518  0.9171  0.4015
   6723SM   H8T 8676   2.380   4.531   9.349  1.6563 -0.7535  5.3030
   6723SM   C9S 8677   2.240   4.651   9.246  0.3312  0.1036  0.6585
   6723SM   H9S 8678   2.314   4.733   9.232  0.1533  0.1528  0.0010
   6723SM   H9T 8679   2.139   4.693   9.266  0.3816 -0.5808  2.5505
   6723SM  C10S 8680   2.241   4.569   9.120  0.0482 -0.2601  0.2612
   6723SM  H10S 8681   2.164   4.489   9.126  0.1437 -0.5242 -1.6614
   6723SM  H10T 8682   2.339   4.518   9.109  0.2195  0.2280 -0.5100
   6723SM  C11S 8683   2.215   4.650   8.992  0.0727 -0.0250 -0.1667
   6723SM  H11S 8684   2.137   4.727   9.010  1.2693  2.1200 -3.2413
   6723SM  H11T 8685   2.178   4.584   8.911  3.4563  0.0988 -1.9907
   6723SM  C12S 8686   2.335   4.720   8.928  0.0297  0.0324 -0.8930
   6723SM  H12S 8687   2.417   4.646   8.922 -1.0099 -1.0528 -2.5779
   6723SM  H12T 8688   2.373   4.805   8.987 -2.1749  0.1134  0.5139
   6723SM  C13S 8689   2.318   4.766   8.782 -0.3265  0.2004  0.2222
   6723SM  H13S 8690   2.246   4.850   8.772  0.6164  1.2138  1.4347
   6723SM  H13T 8691   2.284   4.679   8.722  0.7327 -0.6370  0.7924
   6723SM  C14S 8692   2.447   4.820   8.720  0.2156  0.1779 -0.3923
   6723SM  H14S 8693   2.523   4.739   8.720  1.1865  1.0530 -1.5231
   6723SM  H14T 8694   2.492   4.899   8.784 -2.7373  1.0616  0.7695
   6723SM  C15S 8695   2.430   4.880   8.578  0.1310  0.1179  0.0061
   6723SM  H15S 8696   2.391   4.815   8.497 -0.3947  2.0160 -1.3173
   6723SM  H15T 8697   2.534   4.900   8.546  0.1596 -1.8582 -1.2729
   6723SM  C16S 8698   2.349   5.005   8.579  0.1539 -0.8042 -0.1488
   6723SM  H16S 8699   2.387   5.083   8.648 -0.2517 -0.6311 -0.1165
   6723SM  H16T 8700   2.244   4.993   8.615  0.1996 -0.2423  0.1922
   6723SM  C17S 8701   2.335   5.058   8.438 -0.9898 -0.0633  0.4781
   6723SM  H17S 8702   2.348   4.968   8.374  1.6086  1.7960 -1.8866
   6723SM  H17T 8703   2.417   5.133   8.426 -0.1897 -1.0554 -0.4937
   6723SM  C18S 8704   2.205   5.129   8.398  0.5324  0.0675  0.5708
   6723SM  H18S 8705   2.113   5.080   8.436  0.6098 -0.9751 -0.5394
   6723SM  H18T 8706   2.197   5.124   8.287  0.2840  0.3690  0.5744
   6723SM  H18U 8707   2.205   5.238   8.421  3.3938  0.0547  1.0210
   6723SM   C1F 8708   1.901   4.529  10.032 -0.4362  0.5097  0.1043
   6723SM    OF 8709   1.862   4.638  10.057  0.6478  0.4056 -0.7005
   6723SM   C2F 8710   1.815   4.416   9.987  0.4899  0.1873 -0.2571
   6723SM   H2F 8711   1.730   4.400  10.057  0.7735 -0.5997 -0.0845
   6723SM   H2G 8712   1.869   4.319   9.987 -1.0329 -0.7587 -3.1867
   6723SM   C3F 8713   1.753   4.436   9.850 -0.3330 -0.0985  0.1038
   6723SM   H3F 8714   1.684   4.522   9.857 -0.8532 -0.5025  0.0351
   6723SM   H3G 8715   1.689   4.354   9.811  0.2723  0.5453 -2.4216
   6723SM   C4F 8716   1.856   4.459   9.730 -0.7022 -0.3313 -0.2055
   6723SM   H4F 8717   1.914   4.364   9.728  0.4461  0.3557 -0.2204
   6723SM   H4G 8718   1.925   4.541   9.759 -1.2816 -0.2040  0.8711
   6723SM   C5F 8719   1.786   4.482   9.594  0.3249  0.2357  0.0165
   6723SM   H5F 8720   1.731   4.577   9.608 -0.9239  0.1335 -3.2654
   6723SM   H5G 8721   1.705   4.406   9.588  3.0611 -3.2416  2.4793
   6723SM   C6F 8722   1.867   4.466   9.471  0.1104  0.7665 -0.2570
   6723SM   H6F 8723   1.891   4.358   9.466 -0.6826  0.6493 -2.4213
   6723SM   H6G 8724   1.961   4.525   9.479  1.7189 -1.5744 -0.9723
   6723SM   C7F 8725   1.787   4.491   9.345 -0.1049  0.0485  0.6787
   6723SM   H7F 8726   1.765   4.600   9.339  2.3271  0.5597  0.1175
   6723SM   H7G 8727   1.690   4.437   9.355 -0.9966  1.8168  2.2087
   6723SM   C8F 8728   1.872   4.455   9.219  0.4575  0.3734  0.2210
   6723SM   H8F 8729   1.922   4.357   9.231  0.4247  0.5275  1.7419
   6723SM   H8G 8730   1.957   4.527   9.224  1.1661 -0.4652  0.4682
   6723SM   C9F 8731   1.799   4.474   9.082 -0.1551  0.2892  0.4512
   6723SM   H9F 8732   1.770   4.581   9.071 -0.4667  0.0803 -1.0204
   6723SM   H9G 8733   1.704   4.415   9.081 -1.3656  2.1306 -1.0128
   6723SM  C10F 8734   1.888   4.424   8.964  0.5817 -0.1517 -0.2385
   6723SM  H10F 8735   1.911   4.316   8.978 -1.3594 -0.7877 -1.4574
   6723SM  H10G 8736   1.977   4.490   8.970  0.1387  0.6838 -2.1740
   6723SM  C11F 8737   1.823   4.451   8.833 -0.2718 -0.6057  1.0057
   6723SM  H11F 8738   1.768   4.547   8.843  1.4111  0.3010  2.0863
   6723SM  H11G 8739   1.748   4.372   8.809 -0.0870 -0.8593  1.2577
   6723SM  C12F 8740   1.919   4.461   8.707  0.3161 -0.2144  0.1690
   6723SM  H12F 8741   1.985   4.372   8.710  0.0902 -0.4571 -1.2802
   6723SM  H12G 8742   1.993   4.545   8.706 -0.7997  0.8248  1.1485
   6723SM  C13F 8743   1.843   4.443   8.578  0.5752 -0.7383 -0.1768
   6723SM  H13F 8744   1.791   4.347   8.560  0.1092 -0.1969 -1.9654
   6723SM  H13G 8745   1.922   4.435   8.500  2.2569  0.9051  1.2669
   6723SM  C14F 8746   1.758   4.568   8.532  0.2209  0.0885  0.1286
   6723SM  H14F 8747   1.763   4.579   8.422 -0.1617  1.5266  0.2288
   6723SM  H14G 8748   1.812   4.659   8.566  3.5217 -0.8899 -2.0506
   6723SM  C15F 8749   1.611   4.567   8.570 -0.7818  0.2220  0.2886
   6723SM  H15F 8750   1.587   4.527   8.671 -3.6807 -1.4914 -0.9249
   6723SM  H15G 8751   1.557   4.498   8.501  1.5810 -0.4203 -1.0006
   6723SM  C16F 8752   1.544   4.703   8.559 -0.2745 -0.3199  0.3023
   6723SM  H16F 8753   1.584   4.777   8.632 -2.1641  1.5334 -0.4396
   6723SM  H16G 8754   1.440   4.686   8.597 -0.4450 -1.5719 -0.6457
   6723SM  C17F 8755   1.542   4.756   8.410 -0.0209 -0.0773 -0.2807
   6723SM  H17F 8756   1.474   4.682   8.363 -0.4492 -0.6712  1.2129
   6723SM  H17G 8757   1.647   4.746   8.374  0.1588  0.5129  0.0811
   6723SM  C18F 8758   1.493   4.894   8.396  0.0639 -0.3368 -0.1052
   6723SM  H18F 8759   1.574   4.968   8.415 -0.0768 -0.1558 -0.2014
   6723SM  H18G 8760   1.402   4.931   8.448 -2.3374  1.5302 -4.9866
   6723SM  C19F 8761   1.449   4.925   8.252 -0.7533 -0.4756  0.0655
   6723SM  H19F 8762   1.368   4.857   8.217 -0.4080 -0.2281 -1.2656
   6723SM  H19G 8763   1.541   4.899   8.196 -1.1164  0.6703 -1.0869
   6723SM  C20F 8764   1.404   5.071   8.219 -0.6118  0.2262 -0.2775
   6723SM  H20F 8765   1.471   5.139   8.277 -0.0176 -0.7747  0.2314
   6723SM  H20G 8766   1.301   5.093   8.255  0.0094  0.2117  1.5923
   6723SM  C21F 8767   1.419   5.103   8.068  0.3209  0.1118  0.0103
   6723SM  H21F 8768   1.358   5.030   8.012 -1.8102  0.7252  1.4176
   6723SM  H21G 8769   1.526   5.088   8.040 -0.0640 -0.2121 -1.3685
   6723SM  C22F 8770   1.375   5.240   8.023  0.2209  0.1027 -0.1148
   6723SM  H22F 8771   1.265   5.240   8.008 -0.2110 -0.1755  2.4564
   6723SM  H22G 8772   1.439   5.268   7.937  0.3944  0.9758  0.2850
   6723SM  C23F 8773   1.397   5.359   8.127  0.8307 -0.5735  0.1913
   6723SM  H23F 8774   1.369   5.458   8.086  1.0219 -0.4020  0.4781
   6723SM  H23G 8775   1.502   5.353   8.164  0.8397 -0.5401  0.1707
   6723SM  H23H 8776   1.329   5.343   8.214 -1.4255 -0.9691 -1.5516
   6823SM     N 8777   1.713   6.579  10.596  0.9091  0.0395  0.5543
   6823SM   C15 8778   1.847   6.543  10.640  0.0937 -0.5207  0.3246
   6823SM  H15A 8779   1.920   6.622  10.639 -0.0506 -0.3824  0.5383
   6823SM  H15B 8780   1.872   6.473  10.562 -1.6550  0.5586 -1.2742
   6823SM  H15C 8781   1.832   6.517  10.744  1.8376  1.3956  1.1105
   6823SM   C14 8782   1.610   6.473  10.636  0.3864  0.7721 -0.1192
   6823SM  H14A 8783   1.596   6.462  10.742  2.1095 -0.7126 -0.0025
   6823SM  H14B 8784   1.636   6.376  10.598 -1.8157  0.6455 -1.4908
   6823SM  H14C 8785   1.521   6.493  10.578  0.0852  0.1354  0.1212
   6823SM   C13 8786   1.670   6.707  10.666 -0.0412  0.3154  0.7210
   6823SM  H13A 8787   1.585   6.753  10.617 -2.2040 -2.8428  1.1733
   6823SM  H13B 8788   1.753   6.776  10.672  0.5187  0.0055 -1.9819
   6823SM  H13C 8789   1.641   6.689  10.768 -1.8166  0.9562  0.3760
   6823SM   C12 8790   1.717   6.594  10.446 -0.2909 -0.2074  0.3219
   6823SM  H12A 8791   1.756   6.505  10.398 -0.3978  0.8849 -1.8966
   6823SM  H12B 8792   1.789   6.662  10.403  1.4668 -1.9915  0.2817
   6823SM   C11 8793   1.587   6.635  10.383 -0.9331  0.0036 -0.3394
   6823SM  H11A 8794   1.608   6.665  10.279 -1.4020  2.6075  0.2432
   6823SM  H11B 8795   1.549   6.731  10.426 -0.5947 -0.0805  0.1584
   6823SM     P 8796   1.527   6.396  10.285  0.1103 -0.2132  0.0037
   6823SM   O13 8797   1.538   6.280  10.373  0.0052 -0.0525  0.2667
   6823SM   O14 8798   1.412   6.399  10.191  0.3924  0.1317 -0.6179
   6823SM   O11 8799   1.667   6.424  10.215  0.5128  0.3824 -0.3037
   6823SM   O12 8800   1.501   6.522  10.381 -0.0254  0.0772  0.1183
   6823SM   C1S 8801   1.736   6.321  10.148 -0.1509  0.1512 -0.1771
   6823SM   H1S 8802   1.668   6.239  10.117 -0.3103  0.0965  0.3130
   6823SM   H1T 8803   1.820   6.283  10.209  0.1858  2.8090  1.2043
   6823SM    NF 8804   1.855   6.255   9.942  0.1148 -0.3204 -0.4234
   6823SM   HNF 8805   1.954   6.247   9.943  0.0465 -1.2544 -0.6897
   6823SM   C2S 8806   1.795   6.366  10.009  0.3596 -0.2561 -0.2490
   6823SM   H2S 8807   1.709   6.397   9.945  1.3395  1.5390 -0.7778
   6823SM   C3S 8808   1.889   6.494  10.023  0.3460  0.1651 -0.4337
   6823SM   H3S 8809   1.965   6.471  10.101  0.2869  0.5015 -0.2741
   6823SM    O3 8810   1.819   6.606  10.078  0.2984 -0.3232  0.1788
   6823SM   HO3 8811   1.744   6.566  10.124 -1.1560 -0.3238 -2.0226
   6823SM   C4S 8812   1.942   6.538   9.891 -0.2969  0.1205  0.0706
   6823SM   H4S 8813   1.869   6.596   9.832 -0.0636 -1.8682 -2.3121
   6823SM   C5S 8814   2.063   6.516   9.841  0.4292  0.3308  0.2502
   6823SM   H5S 8815   2.142   6.458   9.892  1.3069  0.2832 -1.1294
   6823SM   C6S 8816   2.104   6.574   9.709  0.0531 -0.1577 -0.0600
   6823SM   H6S 8817   2.167   6.664   9.722  0.9718 -0.7781 -0.1896
   6823SM   H6T 8818   2.012   6.594   9.648 -1.4195 -0.0863  2.0882
   6823SM   C7S 8819   2.189   6.475   9.624  0.1174  0.4392 -0.3968
   6823SM   H7S 8820   2.135   6.378   9.638 -0.1047  0.6227  0.0361
   6823SM   H7T 8821   2.284   6.461   9.680 -0.8313  0.7654  1.3892
   6823SM   C8S 8822   2.198   6.524   9.481  0.0917  1.2127  1.0803
   6823SM   H8S 8823   2.099   6.541   9.435  0.5312  1.6845  0.2861
   6823SM   H8T 8824   2.232   6.439   9.417 -1.4629  0.6324  0.9851
   6823SM   C9S 8825   2.288   6.645   9.450  0.3449 -0.1440 -0.0061
   6823SM   H9S 8826   2.388   6.599   9.442  0.5911  0.3137  0.3849
   6823SM   H9T 8827   2.298   6.708   9.541 -0.8120 -0.0434  0.0667
   6823SM  C10S 8828   2.244   6.739   9.337  0.4708 -0.0090  0.3654
   6823SM  H10S 8829   2.143   6.777   9.362 -0.3633 -0.5605 -1.9357
   6823SM  H10T 8830   2.227   6.678   9.246  1.6473 -0.5501  0.4771
   6823SM  C11S 8831   2.330   6.859   9.311 -0.5285  0.1057  0.5390
   6823SM  H11S 8832   2.425   6.843   9.257 -1.2689 -0.6066 -0.5916
   6823SM  H11T 8833   2.354   6.914   9.404 -0.8341  0.6184  0.3204
   6823SM  C12S 8834   2.250   6.953   9.210  0.0066  0.3225 -0.1331
   6823SM  H12S 8835   2.304   7.050   9.213 -0.4161  0.5660  2.4955
   6823SM  H12T 8836   2.148   6.974   9.249  0.6805 -0.3009  2.1432
   6823SM  C13S 8837   2.246   6.915   9.064 -0.0794 -0.3427 -0.1552
   6823SM  H13S 8838   2.180   6.828   9.048 -0.0748 -0.7248  1.6843
   6823SM  H13T 8839   2.347   6.876   9.038 -0.5639 -0.1466 -2.5863
   6823SM  C14S 8840   2.200   7.027   8.980  0.5014  0.4627  0.1578
   6823SM  H14S 8841   2.263   7.117   8.995  0.0697  0.6830  0.6798
   6823SM  H14T 8842   2.100   7.056   9.019 -0.4293  0.8318 -2.2646
   6823SM  C15S 8843   2.190   7.003   8.823 -0.6222 -0.3904 -0.3797
   6823SM  H15S 8844   2.118   6.920   8.810 -0.7282 -0.8041  2.2600
   6823SM  H15T 8845   2.289   6.962   8.791  0.2153  0.9717  0.3625
   6823SM  C16S 8846   2.152   7.119   8.732 -0.2641 -0.3210  0.0955
   6823SM  H16S 8847   2.211   7.211   8.751 -4.1575  2.4180  0.1342
   6823SM  H16T 8848   2.042   7.133   8.729 -0.1964  0.0342 -1.5996
   6823SM  C17S 8849   2.182   7.092   8.584 -0.2162  0.3529 -1.0849
   6823SM  H17S 8850   2.285   7.053   8.567 -0.5447 -0.1911 -1.9085
   6823SM  H17T 8851   2.185   7.185   8.524  0.5005 -0.6092 -2.6004
   6823SM  C18S 8852   2.080   6.995   8.530  0.0357  0.0293 -0.2420
   6823SM  H18S 8853   1.976   7.035   8.528  0.2459  0.6714  0.6694
   6823SM  H18T 8854   2.070   6.907   8.598  1.8606  1.5091  2.1175
   6823SM  H18U 8855   2.113   6.951   8.434 -1.4208 -1.2004 -0.2258
   6823SM   C1F 8856   1.785   6.155   9.893  0.2583  0.0513 -0.4729
   6823SM    OF 8857   1.666   6.176   9.883 -0.2166 -0.2614  0.5507
   6823SM   C2F 8858   1.852   6.019   9.870  0.2031  0.1227  0.0852
   6823SM   H2F 8859   1.783   5.947   9.822  0.3706 -0.0418  0.0890
   6823SM   H2G 8860   1.882   5.972   9.966 -0.0153 -1.5422 -0.6201
   6823SM   C3F 8861   1.968   6.026   9.763  0.3739  0.0522  0.0290
   6823SM   H3F 8862   2.024   6.122   9.769  0.3927 -0.0313  2.4385
   6823SM   H3G 8863   1.921   6.017   9.663 -2.6567  0.2669  1.3161
   6823SM   C4F 8864   2.077   5.922   9.780  0.0994  0.1084 -0.1049
   6823SM   H4F 8865   2.028   5.823   9.772  0.6638 -0.0487 -2.3513
   6823SM   H4G 8866   2.104   5.933   9.887 -1.6078  0.1831  0.3486
   6823SM   C5F 8867   2.214   5.938   9.710  0.0227 -0.2994  0.2470
   6823SM   H5F 8868   2.282   5.856   9.739 -0.3936 -1.6021 -2.1684
   6823SM   H5G 8869   2.250   6.041   9.732  1.0129 -0.4509 -0.5923
   6823SM   C6F 8870   2.189   5.933   9.559 -0.2211  0.0823 -0.0764
   6823SM   H6F 8871   2.107   5.999   9.524 -0.0610 -0.7061 -2.0911
   6823SM   H6G 8872   2.151   5.830   9.539  1.4335 -0.3472 -1.2318
   6823SM   C7F 8873   2.303   5.954   9.464  0.4366 -0.2734  0.1407
   6823SM   H7F 8874   2.381   5.876   9.471  0.4001 -0.2686  0.6310
   6823SM   H7G 8875   2.352   6.051   9.486  2.1628 -1.4286  1.5776
   6823SM   C8F 8876   2.244   5.942   9.322 -0.3710  0.1690  0.1971
   6823SM   H8F 8877   2.139   5.980   9.324 -1.1340 -1.8453  0.8922
   6823SM   H8G 8878   2.241   5.839   9.281 -1.4029  1.0074 -1.9947
   6823SM   C9F 8879   2.320   6.027   9.216  0.5076 -0.2009  0.3018
   6823SM   H9F 8880   2.428   6.021   9.241  0.0750 -0.5272  2.3298
   6823SM   H9G 8881   2.280   6.130   9.227 -0.8791 -0.2443 -3.2211
   6823SM  C10F 8882   2.282   5.987   9.077 -0.2079  0.0640  0.8144
   6823SM  H10F 8883   2.182   6.032   9.061 -0.9631 -1.8828 -0.4006
   6823SM  H10G 8884   2.275   5.877   9.063  1.0377 -0.0581  1.0184
   6823SM  C11F 8885   2.376   6.034   8.961  0.3764 -0.0525 -1.0937
   6823SM  H11F 8886   2.480   6.009   8.990  0.2130 -0.5083 -0.8898
   6823SM  H11G 8887   2.379   6.145   8.958 -1.1654  0.2636  2.6886
   6823SM  C12F 8888   2.352   5.971   8.821 -0.7735 -0.3967  0.0136
   6823SM  H12F 8889   2.342   5.862   8.838  0.8763 -0.4633  0.7685
   6823SM  H12G 8890   2.442   5.974   8.756 -0.2013 -3.3616  0.5255
   6823SM  C13F 8891   2.233   6.016   8.738 -0.0850 -0.4395  0.2747
   6823SM  H13F 8892   2.259   6.093   8.662 -0.4578  0.7038  1.2795
   6823SM  H13G 8893   2.153   6.057   8.804  0.8072 -1.7115  2.2238
   6823SM  C14F 8894   2.156   5.894   8.669 -0.3293  0.8021  0.3817
   6823SM  H14F 8895   2.132   5.826   8.753  1.1537  0.2147  0.3536
   6823SM  H14G 8896   2.208   5.846   8.583 -1.2101  1.4623 -0.5500
   6823SM  C15F 8897   2.011   5.941   8.627  0.3466  0.7359  0.1049
   6823SM  H15F 8898   1.966   6.005   8.706 -0.0034  0.0031  0.5068
   6823SM  H15G 8899   1.949   5.849   8.628  0.3139  0.6145  4.2049
   6823SM  C16F 8900   2.012   6.018   8.499  0.0805  0.5937 -0.7914
   6823SM  H16F 8901   2.058   5.952   8.423 -0.8778 -2.5540  1.2008
   6823SM  H16G 8902   2.077   6.107   8.512  0.4276  0.1779  0.4610
   6823SM  C17F 8903   1.873   6.065   8.454 -0.6553  0.4087  0.8752
   6823SM  H17F 8904   1.817   6.121   8.531 -0.0510  1.2356  0.7247
   6823SM  H17G 8905   1.816   5.972   8.429 -0.1304  0.0228  1.0982
   6823SM  C18F 8906   1.886   6.158   8.330  0.4613 -0.7649 -0.6609
   6823SM  H18F 8907   1.931   6.105   8.243  1.8350  0.7358 -0.9131
   6823SM  H18G 8908   1.943   6.247   8.365 -0.8981 -0.5294  1.1152
   6823SM  C19F 8909   1.755   6.208   8.273 -0.3214  0.0326 -0.1101
   6823SM  H19F 8910   1.698   6.126   8.224  1.5408 -1.6219  0.3566
   6823SM  H19G 8911   1.778   6.279   8.191 -1.1334 -1.1988 -1.4443
   6823SM  C20F 8912   1.664   6.290   8.365 -0.1131 -0.3313  0.0582
   6823SM  H20F 8913   1.719   6.376   8.407 -1.3529  0.9071 -0.7621
   6823SM  H20G 8914   1.643   6.229   8.456 -1.6192  0.6195  0.3819
   6823SM  C21F 8915   1.538   6.339   8.301  1.2511 -0.1274  0.2574
   6823SM  H21F 8916   1.497   6.426   8.356  0.9915  1.4748 -2.2691
   6823SM  H21G 8917   1.453   6.267   8.309 -0.2121  1.5463  0.3994
   6823SM  C22F 8918   1.539   6.390   8.155  0.0607 -0.0346 -0.2869
   6823SM  H22F 8919   1.566   6.311   8.081  2.6265  0.6250 -0.1173
   6823SM  H22G 8920   1.604   6.479   8.142  1.1373 -0.9099 -1.0971
   6823SM  C23F 8921   1.397   6.433   8.112  0.0361  0.4534  0.6431
   6823SM  H23F 8922   1.371   6.528   8.163 -0.7190  0.6458 -0.0826
   6823SM  H23G 8923   1.319   6.359   8.140  0.0555 -0.0182 -0.4879
   6823SM  H23H 8924   1.393   6.461   8.005 -0.7805 -1.3009  0.1830
   6923SM     N 8925   2.087   0.841  10.964  0.4773  0.5991 -0.6195
   6923SM   C15 8926   1.980   0.927  10.911  0.0846  0.5154  0.0994
   6923SM  H15A 8927   1.983   0.946  10.805  2.3551  0.1088  0.0305
   6923SM  H15B 8928   1.974   1.019  10.967 -3.6243 -0.7650  2.1341
   6923SM  H15C 8929   1.887   0.874  10.921  0.9128 -1.1642 -0.6388
   6923SM   C14 8930   2.216   0.907  10.937 -0.1280  0.4061 -0.2977
   6923SM  H14A 8931   2.227   0.988  11.008  0.8339  0.0448 -0.0180
   6923SM  H14B 8932   2.240   0.941  10.838 -2.2557 -1.0602 -1.3740
   6923SM  H14C 8933   2.294   0.837  10.960 -1.0274 -1.1343 -1.7165
   6923SM   C13 8934   2.055   0.813  11.111  0.3355 -0.1293  0.2739
   6923SM  H13A 8935   2.137   0.751  11.145 -0.1729 -1.3643 -0.6821
   6923SM  H13B 8936   1.961   0.762  11.126  0.1572 -0.3186 -1.3027
   6923SM  H13C 8937   2.060   0.901  11.173 -1.6562 -0.6549  1.2659
   6923SM   C12 8938   2.081   0.702  10.898  0.6306 -0.4518 -0.1747
   6923SM  H12A 8939   1.985   0.661  10.925  0.7209  0.3314  1.4393
   6923SM  H12B 8940   2.145   0.623  10.934 -1.5271 -0.8235  3.3386
   6923SM   C11 8941   2.090   0.709  10.740 -0.1993 -0.7550 -0.0070
   6923SM  H11A 8942   2.121   0.608  10.704  0.4554 -0.7185  0.4517
   6923SM  H11B 8943   2.166   0.782  10.706  2.0644 -2.7009  0.5705
   6923SM     P 8944   1.869   0.623  10.650  0.0992 -0.0255  0.1162
   6923SM   O13 8945   1.900   0.507  10.735  0.1911  0.5091  0.6530
   6923SM   O14 8946   1.730   0.674  10.666  0.2156 -0.1771 -0.1175
   6923SM   O11 8947   1.891   0.584  10.497 -0.1775  0.4075  0.2472
   6923SM   O12 8948   1.966   0.745  10.685 -0.4848  1.0073 -0.4332
   6923SM   C1S 8949   1.944   0.680  10.411  0.0020 -0.0839 -0.0760
   6923SM   H1S 8950   2.052   0.698  10.429 -0.3603  0.0985  2.2082
   6923SM   H1T 8951   1.876   0.768  10.410 -0.7494 -0.6533 -1.5064
   6923SM    NF 8952   1.991   0.734  10.165  0.1742 -0.1642 -0.3716
   6923SM   HNF 8953   1.926   0.788  10.112 -1.5349 -2.2727 -0.5946
   6923SM   C2S 8954   1.936   0.631  10.259 -0.3542  0.1163 -0.2244
   6923SM   H2S 8955   2.005   0.545  10.247  0.8580  1.3605 -2.8682
   6923SM   C3S 8956   1.785   0.594  10.221  0.4355 -0.5344  0.1862
   6923SM   H3S 8957   1.735   0.693  10.231 -0.0032 -0.8776  1.6050
   6923SM    O3 8958   1.712   0.511  10.313 -0.3979  0.3145  0.3322
   6923SM   HO3 8959   1.759   0.547  10.389 -0.6926  3.9700 -0.9943
   6923SM   C4S 8960   1.764   0.546  10.082  0.4199  0.2332 -0.5019
   6923SM   H4S 8961   1.750   0.623  10.004  0.6612  0.8582  0.0587
   6923SM   C5S 8962   1.759   0.420  10.036 -0.0146  0.3914  0.0927
   6923SM   H5S 8963   1.771   0.335  10.104 -0.3408  1.3328  1.3579
   6923SM   C6S 8964   1.734   0.388   9.894  1.3019 -0.8397  0.1636
   6923SM   H6S 8965   1.641   0.328   9.893 -0.0299  1.0464 -2.8888
   6923SM   H6T 8966   1.811   0.316   9.857 -0.0218 -1.4197 -1.5900
   6923SM   C7S 8967   1.713   0.504   9.789  0.2469  0.2177  0.1587
   6923SM   H7S 8968   1.796   0.579   9.788  0.6005 -0.1217  1.7255
   6923SM   H7T 8969   1.628   0.567   9.822 -0.8622 -0.6819 -0.9311
   6923SM   C8S 8970   1.695   0.447   9.648 -0.2145  0.7193  0.8165
   6923SM   H8S 8971   1.620   0.365   9.650  0.6839 -0.1025  1.7037
   6923SM   H8T 8972   1.785   0.402   9.600 -0.5552 -1.1502  1.8141
   6923SM   C9S 8973   1.648   0.548   9.542 -0.0356  0.1343  0.2265
   6923SM   H9S 8974   1.732   0.620   9.530 -0.4914  0.8592  1.2935
   6923SM   H9T 8975   1.554   0.599   9.572  0.7974  0.1917  2.9721
   6923SM  C10S 8976   1.620   0.483   9.404  0.0001  0.0237  0.0160
   6923SM  H10S 8977   1.549   0.403   9.435 -0.3130  0.3524  0.1568
   6923SM  H10T 8978   1.720   0.451   9.369  0.3351  0.0973  0.8719
   6923SM  C11S 8979   1.544   0.563   9.300  0.7967  0.7275  0.3764
   6923SM  H11S 8980   1.626   0.624   9.257 -0.5586  2.2854 -0.1161
   6923SM  H11T 8981   1.467   0.622   9.355 -2.1469 -2.7646  0.3760
   6923SM  C12S 8982   1.479   0.471   9.192  0.3149  0.2432 -0.2731
   6923SM  H12S 8983   1.405   0.405   9.242  0.9287 -0.4040 -0.2162
   6923SM  H12T 8984   1.559   0.409   9.145 -0.0949 -0.5989  0.1216
   6923SM  C13S 8985   1.407   0.545   9.078  0.1221  0.7905  0.6745
   6923SM  H13S 8986   1.313   0.578   9.126 -1.6097 -1.9621 -0.5447
   6923SM  H13T 8987   1.375   0.473   8.999 -1.2614  0.1645  1.7645
   6923SM  C14S 8988   1.478   0.663   9.013  0.5455 -0.0275 -0.0972
   6923SM  H14S 8989   1.559   0.621   8.949  0.6900 -0.2267  0.2119
   6923SM  H14T 8990   1.511   0.732   9.094  0.6219  0.3520 -0.4535
   6923SM  C15S 8991   1.380   0.746   8.924 -0.0441  0.1135 -0.5352
   6923SM  H15S 8992   1.306   0.793   8.992  1.1283  1.4436 -0.1310
   6923SM  H15T 8993   1.324   0.682   8.853 -1.2399 -0.0102  0.4788
   6923SM  C16S 8994   1.440   0.848   8.834  0.0797 -0.8304 -0.3142
   6923SM  H16S 8995   1.507   0.921   8.884  0.7240  0.0021 -2.2941
   6923SM  H16T 8996   1.359   0.903   8.782  0.3884 -1.4592 -1.4944
   6923SM  C17S 8997   1.531   0.795   8.716  1.0055  0.0292 -0.2608
   6923SM  H17S 8998   1.619   0.748   8.764 -1.0093 -1.0587  2.6749
   6923SM  H17T 8999   1.561   0.892   8.670  0.7195  0.9691  1.4287
   6923SM  C18S 9000   1.451   0.713   8.606  0.3070 -0.4595 -0.0655
   6923SM  H18S 9001   1.519   0.653   8.542 -0.7646 -0.3849 -1.3125
   6923SM  H18T 9002   1.395   0.776   8.533  0.1465 -1.8082 -1.1387
   6923SM  H18U 9003   1.383   0.642   8.657  0.8082 -0.4603  0.6119
   6923SM   C1F 9004   2.111   0.787  10.171 -0.0099 -0.3156 -0.0935
   6923SM    OF 9005   2.205   0.737  10.231 -0.0909  0.6152 -0.2491
   6923SM   C2F 9006   2.122   0.929  10.125  0.1694 -0.3712  0.3107
   6923SM   H2F 9007   2.102   0.997  10.210 -1.3978 -1.3175  0.7411
   6923SM   H2G 9008   2.048   0.950  10.045  0.0695 -1.3745  0.1177
   6923SM   C3F 9009   2.260   0.969  10.065  0.2107  0.1979  0.1955
   6923SM   H3F 9010   2.292   0.902   9.983  2.1818  1.9640 -0.5845
   6923SM   H3G 9011   2.350   0.957  10.130  1.1268 -2.2839 -1.4033
   6923SM   C4F 9012   2.265   1.113  10.005 -1.0002  0.5857 -0.2473
   6923SM   H4F 9013   2.368   1.125   9.965 -0.3485  0.7228  1.3886
   6923SM   H4G 9014   2.246   1.182  10.090 -0.3104 -1.7469  1.9370
   6923SM   C5F 9015   2.176   1.137   9.886  0.1836 -0.3291  0.9501
   6923SM   H5F 9016   2.072   1.136   9.923  0.1320 -4.0490  1.0922
   6923SM   H5G 9017   2.186   1.057   9.810 -1.0148 -1.6136  2.0921
   6923SM   C6F 9018   2.193   1.280   9.825  0.4489 -0.6953  0.7750
   6923SM   H6F 9019   2.300   1.307   9.816  0.1342  0.2797 -0.2731
   6923SM   H6G 9020   2.159   1.353   9.901  2.1369 -1.9472  2.8494
   6923SM   C7F 9021   2.123   1.303   9.684 -0.0773 -0.7706 -0.0201
   6923SM   H7F 9022   2.105   1.410   9.662  2.0597 -0.4442 -0.4309
   6923SM   H7G 9023   2.018   1.268   9.695 -0.2052 -1.6850 -3.2010
   6923SM   C8F 9024   2.180   1.215   9.579  0.0876 -0.5891 -0.3064
   6923SM   H8F 9025   2.117   1.230   9.489 -0.0294 -2.4301 -0.5596
   6923SM   H8G 9026   2.188   1.107   9.600 -1.2532 -0.3470  1.7391
   6923SM   C9F 9027   2.321   1.276   9.541  0.5832  0.0573  0.0562
   6923SM   H9F 9028   2.371   1.197   9.482  1.5507 -0.2604  1.2674
   6923SM   H9G 9029   2.380   1.303   9.631 -1.1068  2.1274  0.6285
   6923SM  C10F 9030   2.316   1.403   9.459 -0.7384 -0.7243 -0.3918
   6923SM  H10F 9031   2.421   1.417   9.425 -1.0634 -0.6147 -1.3940
   6923SM  H10G 9032   2.269   1.494   9.502 -1.8312 -0.0667 -2.7708
   6923SM  C11F 9033   2.251   1.377   9.323  0.2413  0.4142 -0.4393
   6923SM  H11F 9034   2.142   1.372   9.342  0.3971 -1.4090  0.1708
   6923SM  H11G 9035   2.284   1.280   9.281  0.3028  0.4571 -0.4920
   6923SM  C12F 9036   2.288   1.483   9.209 -0.3745  0.4443 -0.2499
   6923SM  H12F 9037   2.399   1.476   9.204 -0.4435 -0.4518 -0.7451
   6923SM  H12G 9038   2.260   1.589   9.228  0.8726  1.0919 -1.8123
   6923SM  C13F 9039   2.240   1.447   9.065  0.5091 -0.1571 -0.2584
   6923SM  H13F 9040   2.244   1.337   9.053 -2.1416 -0.3793  0.4306
   6923SM  H13G 9041   2.311   1.489   8.990 -0.7034  0.2274 -1.2216
   6923SM  C14F 9042   2.105   1.512   9.035 -0.1986 -0.3893 -0.0931
   6923SM  H14F 9043   2.112   1.621   9.054 -0.2947 -0.4830  0.5203
   6923SM  H14G 9044   2.033   1.474   9.111  0.0754  0.7702  0.7766
   6923SM  C15F 9045   2.061   1.486   8.890 -0.5525 -0.9606 -0.2693
   6923SM  H15F 9046   2.043   1.377   8.888  4.1337 -1.9662 -0.7958
   6923SM  H15G 9047   2.145   1.497   8.817  0.1235  1.1572  0.7401
   6923SM  C16F 9048   1.938   1.580   8.852 -0.1293  0.1062 -0.3807
   6923SM  H16F 9049   1.897   1.628   8.943  1.0880  0.9363 -0.2430
   6923SM  H16G 9050   1.858   1.512   8.815 -0.3737  0.0068  0.3278
   6923SM  C17F 9051   1.981   1.670   8.733  0.1267 -0.7113  0.2291
   6923SM  H17F 9052   1.986   1.597   8.649 -0.9665 -0.7347  0.1703
   6923SM  H17G 9053   2.083   1.707   8.756  0.5516 -2.8797  2.2314
   6923SM  C18F 9054   1.884   1.781   8.702 -1.3125 -0.7357  0.0611
   6923SM  H18F 9055   1.903   1.872   8.764 -0.8264 -1.1810  0.5696
   6923SM  H18G 9056   1.779   1.754   8.727 -2.8546  0.9335 -3.7967
   6923SM  C19F 9057   1.872   1.815   8.552  0.1412 -0.3231  0.1480
   6923SM  H19F 9058   1.964   1.864   8.514 -1.2977  0.1890 -3.0679
   6923SM  H19G 9059   1.793   1.892   8.537 -0.8300 -0.9595  1.7126
   6923SM  C20F 9060   1.822   1.697   8.461 -0.2645 -0.0920 -0.7583
   6923SM  H20F 9061   1.749   1.639   8.522 -0.4424  0.0924 -0.7934
   6923SM  H20G 9062   1.916   1.647   8.430  0.2018 -0.4136  1.0689
   6923SM  C21F 9063   1.750   1.743   8.335  0.1877 -0.2109 -0.0893
   6923SM  H21F 9064   1.802   1.830   8.290  0.1381  0.5843  1.3292
   6923SM  H21G 9065   1.649   1.788   8.351  0.1838 -0.0290 -0.6100
   6923SM  C22F 9066   1.747   1.642   8.226 -0.0475  0.1321 -0.3907
   6923SM  H22F 9067   1.695   1.549   8.258  0.1201 -0.1518 -0.9289
   6923SM  H22G 9068   1.850   1.608   8.201 -0.0503  1.6004 -2.5900
   6923SM  C23F 9069   1.684   1.688   8.095  0.1602 -0.3838  0.0979
   6923SM  H23F 9070   1.723   1.786   8.062 -2.3779  0.5823 -0.2042
   6923SM  H23G 9071   1.578   1.712   8.116 -0.6400 -1.3688 -2.3616
   6923SM  H23H 9072   1.695   1.606   8.020 -1.1520 -0.6942  0.2242
   7023SM     N 9073   2.516   7.046  10.336  0.2181 -0.3844 -0.3539
   7023SM   C15 9074   2.606   7.076  10.451 -0.3434 -0.0407  1.1528
   7023SM  H15A 9075   2.648   7.174  10.434 -2.0239  0.5122 -0.1116
   7023SM  H15B 9076   2.688   7.006  10.464  1.9403  2.6812  2.4253
   7023SM  H15C 9077   2.556   7.074  10.546 -0.7847 -0.6344  0.9144
   7023SM   C14 9078   2.433   7.163  10.321  0.1331 -0.2211  0.3447
   7023SM  H14A 9079   2.370   7.165  10.234  2.7823 -1.7940 -1.7733
   7023SM  H14B 9080   2.495   7.251  10.322  1.1075 -0.8866  1.3166
   7023SM  H14C 9081   2.364   7.160  10.404 -1.2639 -0.6479 -0.7937
   7023SM   C13 9082   2.603   7.040  10.212 -0.4989 -0.2365 -0.1616
   7023SM  H13A 9083   2.635   7.138  10.178  2.8261 -1.0119  0.3387
   7023SM  H13B 9084   2.554   6.973  10.143 -1.0612 -1.0304  0.9800
   7023SM  H13C 9085   2.696   6.989  10.233  1.2732  2.1367 -1.6110
   7023SM   C12 9086   2.433   6.921  10.364 -0.2687 -0.0107  0.5486
   7023SM  H12A 9087   2.351   6.918  10.294 -1.0641  0.4013  1.4517
   7023SM  H12B 9088   2.397   6.929  10.465  0.1103 -2.3286  0.9223
   7023SM   C11 9089   2.508   6.787  10.360  0.2664  0.3854  0.1785
   7023SM  H11A 9090   2.587   6.787  10.438  0.1144 -0.3431  0.3434
   7023SM  H11B 9091   2.565   6.770  10.267 -0.0971  4.3946 -0.9621
   7023SM     P 9092   2.291   6.654  10.322  0.0937 -0.1164 -0.0958
   7023SM   O13 9093   2.251   6.515  10.347 -0.2733 -0.2076 -0.1393
   7023SM   O14 9094   2.200   6.765  10.360 -0.7204 -0.2523 -0.2129
   7023SM   O11 9095   2.323   6.658  10.174 -0.0814 -0.0997  0.3970
   7023SM   O12 9096   2.422   6.681  10.393 -0.5135 -0.1519  0.1066
   7023SM   C1S 9097   2.413   6.555  10.120  0.2637 -0.9215 -0.5186
   7023SM   H1S 9098   2.378   6.449  10.128 -3.4477  0.0261 -2.1435
   7023SM   H1T 9099   2.508   6.554  10.178  0.7335  0.3147 -1.2346
   7023SM    NF 9100   2.530   6.470   9.922 -0.4527  0.3417  0.2161
   7023SM   HNF 9101   2.629   6.479   9.931 -0.7464  3.2006  1.5524
   7023SM   C2S 9102   2.455   6.586   9.970  0.2352 -0.1657  0.5178
   7023SM   H2S 9103   2.363   6.598   9.910  0.2367  0.3027  0.6065
   7023SM   C3S 9104   2.539   6.711   9.964  0.5743 -0.3871  0.5935
   7023SM   H3S 9105   2.624   6.706  10.035 -2.7277  0.1708  5.0411
   7023SM    O3 9106   2.480   6.826  10.023  0.6772  0.3306  0.9121
   7023SM   HO3 9107   2.407   6.790  10.074 -0.0414 -1.4439 -1.2532
   7023SM   C4S 9108   2.578   6.741   9.820 -0.2812 -0.0015  0.7611
   7023SM   H4S 9109   2.636   6.659   9.776 -0.6075 -0.4341  1.1406
   7023SM   C5S 9110   2.566   6.846   9.747  1.0759 -0.4560 -0.4685
   7023SM   H5S 9111   2.508   6.927   9.793  0.4572 -1.1333 -0.0477
   7023SM   C6S 9112   2.625   6.870   9.610  0.3023 -0.3011  0.3563
   7023SM   H6S 9113   2.720   6.927   9.621  0.9374 -1.6349  2.1090
   7023SM   H6T 9114   2.552   6.924   9.545 -1.1199 -2.1074  0.3683
   7023SM   C7S 9115   2.690   6.752   9.532  0.3411 -0.7303 -0.5706
   7023SM   H7S 9116   2.602   6.689   9.508 -2.3589  0.9275  3.6826
   7023SM   H7T 9117   2.753   6.692   9.600 -1.3497 -1.3332  0.5184
   7023SM   C8S 9118   2.778   6.787   9.409  0.7186  0.1621 -0.2160
   7023SM   H8S 9119   2.830   6.693   9.380  1.7242  0.1261  1.5821
   7023SM   H8T 9120   2.856   6.862   9.434  1.8888 -1.0549 -0.0801
   7023SM   C9S 9121   2.690   6.833   9.297 -0.2141 -0.0739 -0.0383
   7023SM   H9S 9122   2.626   6.912   9.341 -0.8533 -1.2692  1.2685
   7023SM   H9T 9123   2.630   6.744   9.266  0.6054 -0.1739 -1.4586
   7023SM  C10S 9124   2.767   6.883   9.172 -0.5241  0.4779  0.5313
   7023SM  H10S 9125   2.843   6.807   9.146 -0.3440 -0.2004  2.8032
   7023SM  H10T 9126   2.823   6.975   9.198 -1.9824  1.0154  1.9897
   7023SM  C11S 9127   2.680   6.909   9.048  0.2664 -0.3051 -0.2699
   7023SM  H11S 9128   2.642   7.013   9.053 -0.8099 -0.6845 -0.2962
   7023SM  H11T 9129   2.590   6.844   9.049 -1.0413  1.4186  0.8753
   7023SM  C12S 9130   2.753   6.885   8.912  0.2848 -0.0758 -0.4888
   7023SM  H12S 9131   2.671   6.871   8.838  1.0016 -4.3898 -0.7382
   7023SM  H12T 9132   2.812   6.791   8.914  2.4092  1.1785 -1.2798
   7023SM  C13S 9133   2.838   7.001   8.871 -0.4621 -0.7713  0.3325
   7023SM  H13S 9134   2.918   7.006   8.947 -0.3054 -0.7252  0.1653
   7023SM  H13T 9135   2.789   7.100   8.874 -0.2417 -0.6805  1.0603
   7023SM  C14S 9136   2.892   6.991   8.726  0.7658 -0.0444  0.4617
   7023SM  H14S 9137   2.973   7.067   8.722  1.4462 -0.7820 -0.2109
   7023SM  H14T 9138   2.808   7.007   8.655  0.0875 -0.8531  1.0586
   7023SM  C15S 9139   2.959   6.855   8.683  0.9562 -0.1252  0.5220
   7023SM  H15S 9140   2.899   6.766   8.712 -1.2296  1.0732 -0.0752
   7023SM  H15T 9141   3.058   6.841   8.730  0.3189 -4.0895  1.0049
   7023SM  C16S 9142   2.972   6.841   8.535  0.7740  0.3056  0.2881
   7023SM  H16S 9143   3.016   6.939   8.508  3.4704 -0.6755  0.8934
   7023SM  H16T 9144   2.868   6.845   8.494  1.3040  0.2833 -1.0934
   7023SM  C17S 9145   3.050   6.720   8.493  0.2183 -0.3775 -0.6123
   7023SM  H17S 9146   2.982   6.633   8.508  0.5757 -0.3360  1.5746
   7023SM  H17T 9147   3.135   6.706   8.563 -2.0167  2.5236  3.0036
   7023SM  C18S 9148   3.084   6.721   8.340  0.3141  0.0048  0.0021
   7023SM  H18S 9149   3.173   6.787   8.326  0.1372  0.4030  0.7098
   7023SM  H18T 9150   3.003   6.757   8.273  0.8016  1.4625  0.1565
   7023SM  H18U 9151   3.109   6.617   8.310 -0.3536  0.3691 -2.0004
   7023SM   C1F 9152   2.471   6.365   9.878  0.0171 -0.4252 -0.0463
   7023SM    OF 9153   2.354   6.349   9.898  0.1574 -0.2200  0.2911
   7023SM   C2F 9154   2.554   6.255   9.808  0.2690  0.6559  0.5424
   7023SM   H2F 9155   2.555   6.163   9.871  1.5353 -0.2195 -0.6851
   7023SM   H2G 9156   2.659   6.291   9.813  1.0600 -1.3920 -0.2477
   7023SM   C3F 9157   2.512   6.225   9.663  0.2212 -0.4972  0.7798
   7023SM   H3F 9158   2.402   6.214   9.666  0.0687  0.9116  0.7154
   7023SM   H3G 9159   2.563   6.136   9.619 -1.1497 -0.4480 -1.0001
   7023SM   C4F 9160   2.537   6.341   9.566 -0.0384  0.3254 -0.1058
   7023SM   H4F 9161   2.647   6.353   9.577 -0.1081  1.4008 -0.4699
   7023SM   H4G 9162   2.497   6.438   9.602  0.3279  0.1002  0.9355
   7023SM   C5F 9163   2.500   6.322   9.419 -0.0955 -0.0070  0.2991
   7023SM   H5F 9164   2.390   6.335   9.418 -0.0965 -0.0117  0.3516
   7023SM   H5G 9165   2.514   6.217   9.383 -0.6189 -0.1847  0.6119
   7023SM   C6F 9166   2.559   6.418   9.311 -0.5166  0.2466  0.3748
   7023SM   H6F 9167   2.666   6.393   9.301 -0.5839 -0.5776  1.5496
   7023SM   H6G 9168   2.556   6.519   9.358  1.6885  0.1907  0.7224
   7023SM   C7F 9169   2.475   6.421   9.188 -0.3383  0.2018 -0.2806
   7023SM   H7F 9170   2.369   6.454   9.197 -0.5821 -0.5253 -0.3732
   7023SM   H7G 9171   2.463   6.312   9.168  0.3596 -0.6442  3.2108
   7023SM   C8F 9172   2.560   6.487   9.077 -0.2204 -0.2411 -0.1539
   7023SM   H8F 9173   2.657   6.436   9.064  0.0608  0.2955 -0.1608
   7023SM   H8G 9174   2.599   6.582   9.119  0.5020 -0.1270 -1.0774
   7023SM   C9F 9175   2.486   6.483   8.948 -0.4126 -0.3432  0.2764
   7023SM   H9F 9176   2.416   6.568   8.937 -1.8869 -1.4325  0.9994
   7023SM   H9G 9177   2.417   6.396   8.947 -0.3122 -0.4321  0.8755
   7023SM  C10F 9178   2.595   6.485   8.838  0.4723  0.0583 -0.0036
   7023SM  H10F 9179   2.655   6.392   8.847  1.7610  1.0787  3.2677
   7023SM  H10G 9180   2.664   6.569   8.858  1.2616 -0.4512 -0.5168
   7023SM  C11F 9181   2.534   6.486   8.702 -0.3633 -0.3360  0.6616
   7023SM  H11F 9182   2.465   6.571   8.687 -1.1319 -1.2807 -1.6386
   7023SM  H11G 9183   2.467   6.398   8.687 -1.5876  0.9567 -2.1787
   7023SM  C12F 9184   2.643   6.505   8.598  0.0840  0.4859  0.8261
   7023SM  H12F 9185   2.707   6.592   8.622  0.9782  0.2735 -0.6651
   7023SM  H12G 9186   2.590   6.524   8.502  0.8707 -2.7645 -0.4206
   7023SM  C13F 9187   2.730   6.386   8.557 -0.0758  0.2119 -0.5308
   7023SM  H13F 9188   2.756   6.310   8.634 -1.7107  1.2796  1.1429
   7023SM  H13G 9189   2.829   6.429   8.529 -0.1087  1.6925  1.4834
   7023SM  C14F 9190   2.697   6.307   8.427  0.8839 -0.1079  0.0453
   7023SM  H14F 9191   2.793   6.279   8.379 -0.0617  0.2419 -2.1613
   7023SM  H14G 9192   2.646   6.377   8.357  2.1268 -0.0191 -0.7923
   7023SM  C15F 9193   2.615   6.184   8.456 -0.0921  0.3657  0.3066
   7023SM  H15F 9194   2.513   6.219   8.480 -0.1276  1.2299 -1.0148
   7023SM  H15G 9195   2.655   6.120   8.538  2.0475  2.2027  0.8198
   7023SM  C16F 9196   2.601   6.104   8.326 -0.3661 -0.2550 -0.3691
   7023SM  H16F 9197   2.705   6.080   8.294  0.5871  2.7178  0.2301
   7023SM  H16G 9198   2.553   6.158   8.241  0.5808  0.1679 -0.6403
   7023SM  C17F 9199   2.532   5.966   8.342  0.9280  0.0078  0.7675
   7023SM  H17F 9200   2.426   5.990   8.365 -0.3112 -2.7830 -1.5115
   7023SM  H17G 9201   2.564   5.902   8.428 -0.6328 -0.3914  1.0679
   7023SM  C18F 9202   2.534   5.896   8.204 -0.4344  0.5437  0.0407
   7023SM  H18F 9203   2.642   5.881   8.181 -0.4746 -0.9290  0.7055
   7023SM  H18G 9204   2.493   5.951   8.117 -2.7880 -0.4329  0.4742
   7023SM  C19F 9205   2.448   5.776   8.223  0.3539  0.1140  0.4664
   7023SM  H19F 9206   2.346   5.806   8.254  0.7039  0.6214  1.1550
   7023SM  H19G 9207   2.496   5.711   8.300  0.7654  0.3321  0.3996
   7023SM  C20F 9208   2.438   5.693   8.098  0.2013  0.2720  0.1237
   7023SM  H20F 9209   2.538   5.666   8.056  0.5770 -0.3254  1.3473
   7023SM  H20G 9210   2.407   5.757   8.012  0.8217 -0.8020 -0.9336
   7023SM  C21F 9211   2.348   5.562   8.106 -0.1317  0.2969 -0.6469
   7023SM  H21F 9212   2.247   5.579   8.148 -1.3398 -2.0951 -2.3420
   7023SM  H21G 9213   2.398   5.490   8.174 -2.1617 -2.1322 -1.5691
   7023SM  C22F 9214   2.349   5.500   7.965  0.0386 -0.1381 -0.3827
   7023SM  H22F 9215   2.332   5.390   7.964  1.4150 -0.4810  2.3428
   7023SM  H22G 9216   2.454   5.517   7.932  0.4659 -0.0390  0.9378
   7023SM  C23F 9217   2.239   5.563   7.869 -0.4505  0.2927 -0.6181
   7023SM  H23F 9218   2.140   5.555   7.918  0.2767  1.9682  1.2751
   7023SM  H23G 9219   2.250   5.502   7.777  0.3531  0.3594 -0.5715
   7023SM  H23H 9220   2.260   5.668   7.840 -0.2731  0.0314 -1.4413
   7123SM     N 9221   4.536   6.119  10.289 -0.0776 -0.1384  0.2260
   7123SM   C15 9222   4.409   6.198  10.298 -0.3335 -0.4116  1.1292
   7123SM  H15A 9223   4.321   6.156  10.253 -0.0191  1.0870 -1.0577
   7123SM  H15B 9224   4.416   6.297  10.256  1.6073 -0.7720  0.4796
   7123SM  H15C 9225   4.384   6.211  10.402  0.3318  0.7294  1.1585
   7123SM   C14 9226   4.514   5.981  10.349  0.3039 -0.2075 -0.1287
   7123SM  H14A 9227   4.477   5.984  10.451 -2.1939  2.3484 -0.9773
   7123SM  H14B 9228   4.603   5.922  10.337 -0.2765 -1.0452 -0.3848
   7123SM  H14C 9229   4.440   5.922  10.298  1.0438  0.0637 -1.5404
   7123SM   C13 9230   4.574   6.095  10.145 -0.2817 -0.1527 -0.0125
   7123SM  H13A 9231   4.520   6.014  10.099  2.7018 -1.6424 -1.2046
   7123SM  H13B 9232   4.673   6.054  10.162 -0.3122 -0.7402 -1.1891
   7123SM  H13C 9233   4.573   6.184  10.084 -0.0354 -1.6701 -2.3526
   7123SM   C12 9234   4.655   6.183  10.361 -0.2471 -0.0587 -0.1462
   7123SM  H12A 9235   4.629   6.192  10.466 -0.2794  1.1650 -0.2447
   7123SM  H12B 9236   4.663   6.283  10.322 -0.0844  0.1401  0.3812
   7123SM   C11 9237   4.794   6.112  10.370  0.1848  0.1651 -0.3730
   7123SM  H11A 9238   4.830   6.077  10.272  2.8871 -0.3530  0.7156
   7123SM  H11B 9239   4.784   6.016  10.424  0.1556  0.3461 -0.0484
   7123SM     P 9240   4.937   6.340  10.387 -0.2738  0.0315 -0.0779
   7123SM   O13 9241   4.908   6.435  10.498 -0.4742 -0.0954  0.6513
   7123SM   O14 9242   5.076   6.332  10.340 -0.1258 -0.6545 -0.5794
   7123SM   O11 9243   4.841   6.372  10.268 -0.3347  1.4659  0.8507
   7123SM   O12 9244   4.894   6.195  10.431  0.0806  1.0219 -0.6179
   7123SM   C1S 9245   4.853   6.350  10.131 -0.0355 -0.5895 -0.2683
   7123SM   H1S 9246   4.813   6.249  10.106 -0.5881 -0.5943  0.6038
   7123SM   H1T 9247   4.959   6.362  10.099  0.5437  2.9042  2.3767
   7123SM    NF 9248   4.794   6.431   9.906  0.1384  0.3200  0.1403
   7123SM   HNF 9249   4.851   6.483   9.842 -1.9302 -1.3615 -3.3707
   7123SM   C2S 9250   4.777   6.468  10.045 -0.1148 -0.4536 -0.6962
   7123SM   H2S 9251   4.673   6.473  10.084 -0.0476 -0.3721 -0.5289
   7123SM   C3S 9252   4.838   6.608  10.080 -0.1857  0.2294 -0.2007
   7123SM   H3S 9253   4.945   6.607  10.049 -0.0712 -1.3782  0.1897
   7123SM    O3 9254   4.837   6.639  10.222  0.2796  0.3545 -0.0347
   7123SM   HO3 9255   4.822   6.554  10.263  0.5169 -0.3927 -1.4446
   7123SM   C4S 9256   4.759   6.715  10.013 -0.3778  0.0398  0.3600
   7123SM   H4S 9257   4.651   6.700  10.028 -0.6068  1.9516  0.7962
   7123SM   C5S 9258   4.807   6.804   9.921  0.0336  0.1030 -0.0786
   7123SM   H5S 9259   4.911   6.798   9.884  0.0071  0.9136 -0.3077
   7123SM   C6S 9260   4.719   6.901   9.853  0.2485 -0.3445 -0.0006
   7123SM   H6S 9261   4.760   7.003   9.869  1.4262 -0.8846  0.5403
   7123SM   H6T 9262   4.616   6.907   9.894  1.2490  0.1892  2.6306
   7123SM   C7S 9263   4.710   6.869   9.700 -0.0816  0.2531 -0.2361
   7123SM   H7S 9264   4.654   6.774   9.690  0.3987 -0.2318  1.3788
   7123SM   H7T 9265   4.809   6.851   9.653 -1.4451 -4.0451 -1.8880
   7123SM   C8S 9266   4.648   6.976   9.619  0.7610  0.7033  0.9069
   7123SM   H8S 9267   4.685   7.080   9.634 -0.9362  1.8630 -2.1052
   7123SM   H8T 9268   4.539   6.983   9.636  0.6935  1.0552  0.3516
   7123SM   C9S 9269   4.682   6.959   9.464  0.1201 -0.2451  0.5644
   7123SM   H9S 9270   4.792   6.960   9.454  0.3513 -0.0972  2.6005
   7123SM   H9T 9271   4.649   7.048   9.407  1.1885  0.0271  0.3545
   7123SM  C10S 9272   4.620   6.835   9.393  0.1993 -0.7998 -0.6456
   7123SM  H10S 9273   4.660   6.744   9.442 -1.0930 -1.6042 -1.0455
   7123SM  H10T 9274   4.645   6.841   9.285  0.0061  2.1125 -0.5951
   7123SM  C11S 9275   4.467   6.831   9.422  0.0036 -0.5041  0.2420
   7123SM  H11S 9276   4.434   6.930   9.458  1.4326  0.2817 -0.5347
   7123SM  H11T 9277   4.454   6.753   9.501  0.9307 -1.1699 -0.2392
   7123SM  C12S 9278   4.373   6.810   9.298 -0.3890 -0.0451 -0.6656
   7123SM  H12S 9279   4.277   6.792   9.351  1.0653  0.1441  2.2422
   7123SM  H12T 9280   4.405   6.718   9.245  0.4658 -1.1229  1.5587
   7123SM  C13S 9281   4.357   6.931   9.202 -0.5158  0.0345 -0.8122
   7123SM  H13S 9282   4.447   6.928   9.136 -0.3097  0.1837 -0.5410
   7123SM  H13T 9283   4.361   7.025   9.261 -1.1026 -1.2226  1.3121
   7123SM  C14S 9284   4.237   6.926   9.112 -0.2997 -0.1153  0.0024
   7123SM  H14S 9285   4.256   6.995   9.027  1.5256  0.4074  0.7930
   7123SM  H14T 9286   4.137   6.950   9.156 -0.6787  0.0273 -0.9150
   7123SM  C15S 9287   4.221   6.799   9.034  0.3787  0.2531  0.0128
   7123SM  H15S 9288   4.177   6.718   9.095  0.6501  1.3330  1.6884
   7123SM  H15T 9289   4.319   6.772   8.988  0.2192  0.2710 -0.3452
   7123SM  C16S 9290   4.109   6.818   8.924  0.6479 -0.2259 -0.4751
   7123SM  H16S 9291   4.125   6.908   8.862 -0.8817  0.3090 -0.1346
   7123SM  H16T 9292   4.008   6.821   8.971  0.8151 -2.3646  0.1583
   7123SM  C17S 9293   4.104   6.691   8.841 -0.0226 -0.4790  0.0483
   7123SM  H17S 9294   4.023   6.700   8.766 -2.5208 -0.3541  2.6211
   7123SM  H17T 9295   4.078   6.599   8.896 -1.9513  0.2846  0.5031
   7123SM  C18S 9296   4.230   6.672   8.752  0.5035 -0.4169  0.8351
   7123SM  H18S 9297   4.324   6.646   8.806  0.8364  0.0783  0.5046
   7123SM  H18T 9298   4.250   6.751   8.677  1.0842 -1.7757 -0.5117
   7123SM  H18U 9299   4.215   6.579   8.692  1.6871 -0.0561 -0.0634
   7123SM   C1F 9300   4.731   6.329   9.851 -0.1224 -0.1340 -0.1593
   7123SM    OF 9301   4.659   6.247   9.906 -0.2001 -0.5483 -0.1326
   7123SM   C2F 9302   4.753   6.322   9.706  0.4587 -0.0834  0.0133
   7123SM   H2F 9303   4.834   6.250   9.685 -1.1210 -1.9154 -0.0699
   7123SM   H2G 9304   4.772   6.424   9.666 -4.3885  0.6196 -1.1261
   7123SM   C3F 9305   4.621   6.287   9.628  0.7518  0.4854 -0.4055
   7123SM   H3F 9306   4.537   6.335   9.682  0.6167  0.3659 -0.5081
   7123SM   H3G 9307   4.604   6.178   9.639 -1.8615  0.7283 -1.3060
   7123SM   C4F 9308   4.629   6.317   9.474 -0.0289 -0.9324  0.5677
   7123SM   H4F 9309   4.724   6.267   9.443  0.6128  0.3761  0.3145
   7123SM   H4G 9310   4.647   6.427   9.467 -1.8969 -0.7064 -2.1472
   7123SM   C5F 9311   4.512   6.300   9.382  0.3549  0.1469 -0.7029
   7123SM   H5F 9312   4.429   6.364   9.420 -0.3323  0.4074 -2.5510
   7123SM   H5G 9313   4.481   6.193   9.388 -0.0376  0.3114  0.4301
   7123SM   C6F 9314   4.547   6.331   9.233 -0.4124  0.0132 -0.3718
   7123SM   H6F 9315   4.462   6.311   9.164  0.2529 -3.4688 -0.3736
   7123SM   H6G 9316   4.619   6.253   9.199 -0.2399 -0.1435  0.3394
   7123SM   C7F 9317   4.601   6.474   9.206 -0.1401 -0.4070 -0.0888
   7123SM   H7F 9318   4.685   6.495   9.275  1.0337 -0.3635 -1.4974
   7123SM   H7G 9319   4.521   6.547   9.233  0.7760  0.8318 -0.6075
   7123SM   C8F 9320   4.629   6.506   9.059 -0.0854 -0.1997 -0.3454
   7123SM   H8F 9321   4.543   6.477   8.995  1.5491 -1.0670 -2.2726
   7123SM   H8G 9322   4.723   6.451   9.033 -0.8725 -1.1043 -1.3825
   7123SM   C9F 9323   4.651   6.660   9.047  0.1712 -0.0677  0.1937
   7123SM   H9F 9324   4.727   6.690   9.124 -0.5276  2.0170  0.1409
   7123SM   H9G 9325   4.562   6.721   9.075  0.7567  0.7427  0.3374
   7123SM  C10F 9326   4.690   6.705   8.908 -0.4283  0.6861  0.1448
   7123SM  H10F 9327   4.609   6.673   8.839 -1.9196 -0.4642  2.2801
   7123SM  H10G 9328   4.779   6.651   8.870 -0.7651  0.8609 -0.9138
   7123SM  C11F 9329   4.707   6.859   8.913 -0.0717 -0.2029  0.1838
   7123SM  H11F 9330   4.806   6.884   8.956 -0.0631  2.2262 -1.0570
   7123SM  H11G 9331   4.627   6.909   8.970 -1.3644 -1.7899 -0.1544
   7123SM  C12F 9332   4.718   6.911   8.765 -0.0519  0.3362 -0.8339
   7123SM  H12F 9333   4.808   6.867   8.717  0.3927 -0.2950  0.5000
   7123SM  H12G 9334   4.729   7.019   8.785 -2.7036  0.2545  1.8395
   7123SM  C13F 9335   4.595   6.895   8.678  0.1595 -0.7058 -0.2729
   7123SM  H13F 9336   4.567   6.788   8.672  0.3586 -0.9975  2.5992
   7123SM  H13G 9337   4.615   6.938   8.578 -0.1876  1.3126  0.4759
   7123SM  C14F 9338   4.471   6.961   8.745 -1.0006  0.2877 -0.1580
   7123SM  H14F 9339   4.462   6.925   8.849  2.1773 -2.1410 -0.5567
   7123SM  H14G 9340   4.382   6.932   8.685  0.8494 -1.1574 -2.4030
   7123SM  C15F 9341   4.478   7.112   8.738 -0.4390 -0.0078  0.1520
   7123SM  H15F 9342   4.465   7.140   8.631 -0.5373  2.0758  0.6612
   7123SM  H15G 9343   4.576   7.150   8.775 -0.9022  1.7403 -0.2860
   7123SM  C16F 9344   4.356   7.179   8.801  0.5745  0.2255 -0.0525
   7123SM  H16F 9345   4.355   7.148   8.908  2.7317 -1.1816 -0.3669
   7123SM  H16G 9346   4.263   7.143   8.752  1.4631 -1.6663 -0.4228
   7123SM  C17F 9347   4.345   7.326   8.771 -0.3679  0.2873 -0.1082
   7123SM  H17F 9348   4.318   7.331   8.663 -2.1141  1.1256  0.3401
   7123SM  H17G 9349   4.449   7.364   8.782  0.0533 -0.0897 -2.3109
   7123SM  C18F 9350   4.243   7.411   8.858  0.2703  0.3886  0.3949
   7123SM  H18F 9351   4.275   7.446   8.958 -0.8635  1.7825  0.2957
   7123SM  H18G 9352   4.149   7.355   8.875  0.8771 -0.6363  0.4526
   7123SM  C19F 9353   4.205   7.532   8.771  0.2090 -0.2052 -0.1575
   7123SM  H19F 9354   4.183   7.495   8.668  0.8740  0.0810 -0.4111
   7123SM  H19G 9355   4.294   7.600   8.768 -0.6688  1.3052  3.3934
   7123SM  C20F 9356   4.087   7.604   8.826 -0.0247 -0.8000  0.0531
   7123SM  H20F 9357   4.015   7.526   8.856 -0.2680 -0.2188  1.0558
   7123SM  H20G 9358   4.039   7.663   8.745  0.0619 -0.1195  0.4814
   7123SM  C21F 9359   4.131   7.684   8.950  0.6592 -0.2081 -0.2335
   7123SM  H21F 9360   4.204   7.763   8.925  0.7461 -0.5044 -0.9431
   7123SM  H21G 9361   4.179   7.611   9.019 -0.6558 -1.4371 -0.5492
   7123SM  C22F 9362   4.004   7.743   9.019 -0.0409  0.0748 -0.2469
   7123SM  H22F 9363   3.944   7.655   9.050 -2.0335  0.7285 -2.0179
   7123SM  H22G 9364   3.947   7.810   8.951  0.6314  0.8903 -0.0279
   7123SM  C23F 9365   4.034   7.835   9.141 -0.2239 -0.3120 -0.7664
   7123SM  H23F 9366   4.066   7.772   9.226 -0.8387 -1.6717 -1.5009
   7123SM  H23G 9367   3.943   7.892   9.171  0.0413  0.0281 -0.5993
   7123SM  H23H 9368   4.113   7.909   9.115 -2.1155  1.6940 -1.1448
   7223SM     N 9369   3.282   1.324  10.872  1.2663  0.7361  0.3108
   7223SM   C15 9370   3.312   1.453  10.814 -0.1452  0.0810  0.3005
   7223SM  H15A 9371   3.383   1.450  10.733 -1.9821  2.8184 -1.6070
   7223SM  H15B 9372   3.353   1.518  10.890 -0.4482 -1.6299  1.9992
   7223SM  H15C 9373   3.221   1.489  10.768  0.7133 -0.2794 -1.7701
   7223SM   C14 9374   3.204   1.233  10.777 -0.0058 -0.1032  0.3885
   7223SM  H14A 9375   3.244   1.239  10.677  0.2881 -0.6471  0.4745
   7223SM  H14B 9376   3.107   1.279  10.771  1.2704  2.9013  0.4212
   7223SM  H14C 9377   3.207   1.129  10.806 -0.8825  0.2445  1.8194
   7223SM   C13 9378   3.407   1.251  10.896 -0.2557  0.6850 -0.4074
   7223SM  H13A 9379   3.461   1.228  10.805  0.5386 -0.7793  0.3895
   7223SM  H13B 9380   3.394   1.151  10.934  0.0807 -0.2512 -2.6099
   7223SM  H13C 9381   3.482   1.299  10.958  0.9053  1.7435 -2.5213
   7223SM   C12 9382   3.194   1.333  10.999 -0.4229 -0.2299  0.1080
   7223SM  H12A 9383   3.266   1.359  11.075  0.4051  2.7702 -1.5616
   7223SM  H12B 9384   3.159   1.232  11.015  0.3493 -0.7703 -1.4729
   7223SM   C11 9385   3.075   1.440  11.004  0.2684  0.0284 -0.3562
   7223SM  H11A 9386   3.125   1.538  10.988 -0.1148 -0.0275 -2.1509
   7223SM  H11B 9387   3.021   1.427  11.099 -1.0433  1.3100 -0.9010
   7223SM     P 9388   2.853   1.513  10.893  0.1352 -0.2137 -0.8530
   7223SM   O13 9389   2.749   1.434  10.953  0.9812  0.1229 -0.7924
   7223SM   O14 9390   2.873   1.644  10.953  0.4592  0.3397  0.6618
   7223SM   O11 9391   2.829   1.535  10.741 -0.3854  0.4283 -0.0152
   7223SM   O12 9392   2.980   1.417  10.895  0.1293 -0.3484  0.2290
   7223SM   C1S 9393   2.807   1.422  10.653 -0.8473 -0.1605  0.5181
   7223SM   H1S 9394   2.710   1.370  10.665  0.1477 -2.0280  1.0095
   7223SM   H1T 9395   2.887   1.345  10.661  0.6000  1.0080 -1.6638
   7223SM    NF 9396   2.748   1.396  10.399 -0.8741 -0.0589  0.1392
   7223SM   HNF 9397   2.802   1.328  10.351  1.9414  0.0156  2.8906
   7223SM   C2S 9398   2.819   1.474  10.506 -0.2026 -0.0285  0.1210
   7223SM   H2S 9399   2.779   1.577  10.504  1.9853  0.8796  0.9356
   7223SM   C3S 9400   2.962   1.485  10.477 -0.6203  0.1960  0.0895
   7223SM   H3S 9401   3.012   1.387  10.497  0.2881  0.6143 -0.0618
   7223SM    O3 9402   3.028   1.580  10.560  1.0799 -0.1496 -0.0985
   7223SM   HO3 9403   2.960   1.592  10.627  3.2337  0.8324  2.0473
   7223SM   C4S 9404   2.996   1.526  10.333  0.5127 -0.0689  0.2533
   7223SM   H4S 9405   2.990   1.635  10.319  1.2734 -0.0558 -0.0137
   7223SM   C5S 9406   3.050   1.456  10.232  0.0895 -0.2604 -0.1697
   7223SM   H5S 9407   3.064   1.349  10.249 -1.6303 -0.8312 -1.8774
   7223SM   C6S 9408   3.089   1.504  10.093 -0.1164 -0.1771  0.6628
   7223SM   H6S 9409   3.199   1.494  10.081 -0.3021 -0.1088 -1.4117
   7223SM   H6T 9410   3.068   1.613  10.092 -0.1252 -0.1695  1.1588
   7223SM   C7S 9411   3.034   1.437   9.965  0.7705 -0.3668 -0.2840
   7223SM   H7S 9412   2.923   1.429   9.966  0.6030  0.9465 -2.3611
   7223SM   H7T 9413   3.061   1.329   9.963 -2.0454 -1.2305  1.7695
   7223SM   C8S 9414   3.081   1.499   9.831  0.2331 -0.1554  0.6475
   7223SM   H8S 9415   3.192   1.500   9.826  0.3235 -2.7780  1.0302
   7223SM   H8T 9416   3.042   1.603   9.820  3.1944  0.8216 -2.8186
   7223SM   C9S 9417   3.042   1.415   9.705  0.9394 -0.2916 -1.0378
   7223SM   H9S 9418   2.931   1.412   9.696  0.8745 -1.5346 -0.1023
   7223SM   H9T 9419   3.076   1.314   9.738 -2.7749 -0.9052  1.6002
   7223SM  C10S 9420   3.113   1.455   9.573  0.2720 -0.0559  0.5752
   7223SM  H10S 9421   3.222   1.451   9.598  0.3892 -0.4055  0.0434
   7223SM  H10T 9422   3.078   1.559   9.558 -0.8304 -0.3973  0.6733
   7223SM  C11S 9423   3.084   1.354   9.456 -0.5032 -0.0976 -0.4395
   7223SM  H11S 9424   3.131   1.385   9.360  2.7267 -1.1519  0.6536
   7223SM  H11T 9425   2.977   1.362   9.431 -0.0291 -0.2939 -2.7476
   7223SM  C12S 9426   3.135   1.213   9.492 -0.4745 -0.2164 -0.5189
   7223SM  H12S 9427   3.132   1.144   9.405 -0.8947 -0.1176 -0.5823
   7223SM  H12T 9428   3.069   1.174   9.572  0.6989  1.3243  1.3085
   7223SM  C13S 9429   3.282   1.205   9.538  0.0615  0.8350  0.7988
   7223SM  H13S 9430   3.309   1.255   9.633 -1.0871  1.4908  0.7954
   7223SM  H13T 9431   3.340   1.251   9.455  0.2146  0.3883  0.6558
   7223SM  C14S 9432   3.322   1.052   9.535 -0.1556  0.2689 -0.0658
   7223SM  H14S 9433   3.432   1.047   9.527 -0.1822 -1.6215  0.2302
   7223SM  H14T 9434   3.278   1.003   9.445  1.2735  0.7561 -1.0675
   7223SM  C15S 9435   3.289   0.972   9.663  0.3698 -1.4870  0.0100
   7223SM  H15S 9436   3.179   0.957   9.661  0.4804 -2.5690  0.7469
   7223SM  H15T 9437   3.307   1.033   9.754  0.8267 -0.5976 -0.6619
   7223SM  C16S 9438   3.355   0.834   9.668  0.5631  0.4510  0.7717
   7223SM  H16S 9439   3.460   0.838   9.632  0.3162  1.7461  0.1584
   7223SM  H16T 9440   3.302   0.763   9.600 -0.4324  2.0050 -0.1506
   7223SM  C17S 9441   3.357   0.764   9.807  0.0128  0.4717 -0.2494
   7223SM  H17S 9442   3.254   0.730   9.832  0.2043 -0.2812 -0.4430
   7223SM  H17T 9443   3.383   0.831   9.891  0.3393 -0.5850  0.5192
   7223SM  C18S 9444   3.443   0.638   9.813 -0.5703 -0.1535  0.0678
   7223SM  H18S 9445   3.549   0.667   9.794 -1.1278  3.2070  1.2636
   7223SM  H18T 9446   3.398   0.566   9.742  0.7694 -1.3093  0.3391
   7223SM  H18U 9447   3.437   0.598   9.917  0.8986  2.9242  1.4910
   7223SM   C1F 9448   2.612   1.390  10.398 -0.4929  0.5964 -0.3740
   7223SM    OF 9449   2.549   1.458  10.476  0.2064 -0.4485 -0.5313
   7223SM   C2F 9450   2.544   1.293  10.310 -0.2697 -0.7060 -0.7783
   7223SM   H2F 9451   2.442   1.279  10.352  0.2534  3.1427  2.3841
   7223SM   H2G 9452   2.588   1.192  10.326 -0.7336 -0.5494  1.9147
   7223SM   C3F 9453   2.555   1.332  10.167  0.7280  0.0393  0.2456
   7223SM   H3F 9454   2.497   1.259  10.107  0.6759  1.0130 -0.9242
   7223SM   H3G 9455   2.661   1.334  10.132  1.1499  0.5906  1.4615
   7223SM   C4F 9456   2.493   1.457  10.127 -0.1498 -0.3600  0.0168
   7223SM   H4F 9457   2.524   1.542  10.192  2.7618 -0.3769 -1.1662
   7223SM   H4G 9458   2.384   1.443  10.138 -0.6198  2.2291 -0.5418
   7223SM   C5F 9459   2.523   1.501   9.988 -0.3842  0.0767  0.2837
   7223SM   H5F 9460   2.476   1.437   9.910 -0.6608  1.6521 -0.8762
   7223SM   H5G 9461   2.633   1.508   9.973 -0.2993  0.2602  0.9773
   7223SM   C6F 9462   2.458   1.637   9.951 -0.8847  0.5693 -0.8234
   7223SM   H6F 9463   2.456   1.703  10.040 -1.0335  1.9377 -1.8158
   7223SM   H6G 9464   2.351   1.612   9.934 -0.7395  0.0959 -1.0790
   7223SM   C7F 9465   2.521   1.700   9.826  0.0712 -0.9295 -0.1439
   7223SM   H7F 9466   2.602   1.629   9.797  0.4627 -1.5037  2.1214
   7223SM   H7G 9467   2.571   1.795   9.855  0.7143 -1.9933  2.6053
   7223SM   C8F 9468   2.425   1.719   9.712  0.5627 -0.2204  0.6467
   7223SM   H8F 9469   2.340   1.779   9.751  0.0312 -1.2413  1.0906
   7223SM   H8G 9470   2.382   1.622   9.679  0.8164  0.2879 -1.3254
   7223SM   C9F 9471   2.495   1.794   9.594 -0.1294  0.0743 -0.0557
   7223SM   H9F 9472   2.570   1.722   9.555 -0.9212 -1.2803  0.8565
   7223SM   H9G 9473   2.536   1.893   9.624  1.8084  0.3643 -3.1687
   7223SM  C10F 9474   2.392   1.817   9.484  0.1273  0.2580 -0.3982
   7223SM  H10F 9475   2.298   1.851   9.532 -0.1384 -1.8800  0.7136
   7223SM  H10G 9476   2.359   1.714   9.459  0.3059 -0.2935  1.4390
   7223SM  C11F 9477   2.438   1.892   9.363 -0.3753  0.4060 -1.0817
   7223SM  H11F 9478   2.466   1.994   9.399  0.2094 -0.7645  2.1164
   7223SM  H11G 9479   2.355   1.903   9.289 -2.0312  0.2657  0.6867
   7223SM  C12F 9480   2.562   1.844   9.288 -1.2782  0.0328  0.0675
   7223SM  H12F 9481   2.546   1.737   9.261  1.6132 -0.3528 -0.3707
   7223SM  H12G 9482   2.647   1.843   9.358 -0.6901  0.0255 -0.6343
   7223SM  C13F 9483   2.610   1.940   9.173 -1.2163  0.2431 -0.5919
   7223SM  H13F 9484   2.713   1.915   9.142 -0.6198  2.2403 -0.3200
   7223SM  H13G 9485   2.621   2.045   9.206  0.8947  0.6367 -2.3709
   7223SM  C14F 9486   2.523   1.945   9.050  0.0489  0.2068  0.1472
   7223SM  H14F 9487   2.423   1.993   9.063 -1.6487 -2.7453 -0.9290
   7223SM  H14G 9488   2.501   1.840   9.022  1.6787 -0.1650  0.1801
   7223SM  C15F 9489   2.590   2.028   8.937 -0.3235 -0.1354  0.2863
   7223SM  H15F 9490   2.532   2.031   8.842  1.9481 -2.9905 -1.3486
   7223SM  H15G 9491   2.684   1.974   8.911  2.0460  3.1277  1.4574
   7223SM  C16F 9492   2.620   2.180   8.965 -0.0460  0.4676 -0.4930
   7223SM  H16F 9493   2.686   2.209   9.049 -1.7804 -1.1332  1.5389
   7223SM  H16G 9494   2.522   2.225   8.994 -1.2296 -2.2031 -0.0558
   7223SM  C17F 9495   2.661   2.251   8.840  0.3139 -0.2416  0.3959
   7223SM  H17F 9496   2.655   2.182   8.753  2.5043 -1.3638  1.0628
   7223SM  H17G 9497   2.770   2.270   8.846  0.6238 -1.5902 -0.5382
   7223SM  C18F 9498   2.580   2.372   8.794 -0.3934  0.2218 -0.0999
   7223SM  H18F 9499   2.567   2.445   8.877  2.6084  2.1555 -1.1877
   7223SM  H18G 9500   2.476   2.343   8.769 -0.2163 -0.6319  0.1064
   7223SM  C19F 9501   2.651   2.449   8.679  0.4281  0.1587 -0.8131
   7223SM  H19F 9502   2.647   2.395   8.582  0.8452  0.0325 -0.7594
   7223SM  H19G 9503   2.758   2.461   8.705  0.6201 -1.8998 -0.4916
   7223SM  C20F 9504   2.582   2.583   8.655  0.2959  0.2637 -0.1533
   7223SM  H20F 9505   2.570   2.632   8.754 -0.4369 -0.5600  0.1833
   7223SM  H20G 9506   2.481   2.581   8.608  0.4725 -0.8486 -0.5084
   7223SM  C21F 9507   2.646   2.677   8.552 -0.5832 -0.4159 -0.3304
   7223SM  H21F 9508   2.586   2.769   8.535  0.0889 -0.0042 -0.5310
   7223SM  H21G 9509   2.650   2.623   8.455  2.0443  0.5086 -0.8035
   7223SM  C22F 9510   2.794   2.703   8.584  0.0674 -0.9851 -0.1223
   7223SM  H22F 9511   2.856   2.611   8.584 -1.5891 -2.1611  0.3613
   7223SM  H22G 9512   2.807   2.754   8.683  0.8303  1.4371 -1.3901
   7223SM  C23F 9513   2.855   2.799   8.484  0.2351  0.2272  0.4747
   7223SM  H23F 9514   2.965   2.791   8.493  0.2509 -0.3347 -0.1526
   7223SM  H23G 9515   2.818   2.902   8.504 -1.1400 -0.0946 -0.2535
   7223SM  H23H 9516   2.808   2.780   8.385 -2.7865  0.9218  1.6413
   7323SM     N 9517   3.156   6.886  10.676 -0.0234  0.2161  0.1952
   7323SM   C15 9518   3.154   6.963  10.805  0.0636  0.3248  0.3169
   7323SM  H15A 9519   3.048   6.981  10.823  0.3965  0.8918  1.9501
   7323SM  H15B 9520   3.207   7.057  10.803 -0.4523  0.6291  0.5850
   7323SM  H15C 9521   3.183   6.906  10.893  0.0315 -0.2057 -0.0099
   7323SM   C14 9522   3.301   6.859  10.641 -0.4890  0.1563  0.1469
   7323SM  H14A 9523   3.353   6.948  10.608 -1.5434 -0.0018 -2.1090
   7323SM  H14B 9524   3.306   6.796  10.553  0.1100  1.1745 -0.5630
   7323SM  H14C 9525   3.354   6.811  10.722 -0.1899  0.5036  0.1571
   7323SM   C13 9526   3.098   6.763  10.711 -0.1883  0.3086  0.2007
   7323SM  H13A 9527   3.140   6.715  10.798 -0.5256 -0.0284  0.1865
   7323SM  H13B 9528   3.092   6.699  10.624  1.5522  1.8152 -1.1082
   7323SM  H13C 9529   2.999   6.775  10.754  0.0369 -2.9032  1.9748
   7323SM   C12 9530   3.088   6.959  10.567  0.4138 -0.5301  0.4153
   7323SM  H12A 9531   3.127   7.059  10.566 -0.2571 -0.2537  0.8781
   7323SM  H12B 9532   2.982   6.971  10.587 -0.1631 -0.9455 -2.1075
   7323SM   C11 9533   3.102   6.903  10.424  0.5930 -0.5794 -0.2854
   7323SM  H11A 9534   3.210   6.893  10.401  0.9895  1.3614  0.5407
   7323SM  H11B 9535   3.056   6.984  10.364  0.3088 -0.8360 -0.4164
   7323SM     P 9536   2.880   6.757  10.417  0.1394  0.0679 -0.1832
   7323SM   O13 9537   2.852   6.620  10.466  0.3684 -0.3170 -0.2881
   7323SM   O14 9538   2.820   6.866  10.497  0.5611  0.9216  0.1846
   7323SM   O11 9539   2.839   6.773  10.272 -0.1340  0.1850 -0.2989
   7323SM   O12 9540   3.039   6.782  10.405  0.4592  0.3059 -0.1705
   7323SM   C1S 9541   2.929   6.724  10.165  0.0000 -0.1865 -0.5542
   7323SM   H1S 9542   2.911   6.614  10.160  1.6715 -0.6371  1.6707
   7323SM   H1T 9543   3.036   6.749  10.183 -0.1407 -0.5476  0.8745
   7323SM    NF 9544   2.981   6.709   9.930  0.0962 -0.1831 -0.0267
   7323SM   HNF 9545   3.050   6.759   9.878  0.9965  0.2495  1.5245
   7323SM   C2S 9546   2.910   6.789  10.027  0.0684 -0.0788 -0.2859
   7323SM   H2S 9547   2.803   6.798   9.999 -0.1507  0.5904  0.7213
   7323SM   C3S 9548   2.959   6.932  10.035  0.2473  0.6139  0.4603
   7323SM   H3S 9549   3.070   6.919  10.039  0.2274  0.7314  2.1295
   7323SM    O3 9550   2.922   7.011  10.154 -0.2651  0.0893  0.2659
   7323SM   HO3 9551   2.898   6.937  10.211  0.3507 -0.2818  0.0567
   7323SM   C4S 9552   2.934   7.004   9.908  0.6298  0.4727  0.3550
   7323SM   H4S 9553   3.018   6.992   9.838  0.9751  0.6986  0.7266
   7323SM   C5S 9554   2.831   7.083   9.865  0.6412  0.9914  0.2517
   7323SM   H5S 9555   2.742   7.081   9.930 -1.5112 -0.4507 -2.5363
   7323SM   C6S 9556   2.821   7.151   9.731 -0.2852  0.1166 -0.2110
   7323SM   H6S 9557   2.842   7.258   9.751 -0.6598 -0.2785  2.8125
   7323SM   H6T 9558   2.717   7.147   9.691 -0.8294 -0.7680  1.2010
   7323SM   C7S 9559   2.920   7.109   9.619 -0.3412  0.2624 -0.1742
   7323SM   H7S 9560   2.911   7.002   9.592 -2.4825  0.8435 -2.0860
   7323SM   H7T 9561   3.026   7.117   9.653 -0.3712  2.2154 -0.4348
   7323SM   C8S 9562   2.905   7.197   9.495 -0.3441 -0.1817  1.1047
   7323SM   H8S 9563   2.933   7.303   9.516  0.3099 -0.2489  0.5804
   7323SM   H8T 9564   2.804   7.193   9.448 -0.8806  1.5214  1.9956
   7323SM   C9S 9565   3.015   7.166   9.386  0.5947 -0.0826 -0.6937
   7323SM   H9S 9566   3.006   7.059   9.355 -0.6668 -0.7671  1.7459
   7323SM   H9T 9567   3.110   7.179   9.442  0.1697  0.3178 -0.0560
   7323SM  C10S 9568   3.017   7.252   9.265  0.2061 -0.2137  0.1666
   7323SM  H10S 9569   3.032   7.360   9.287  0.5351  0.2037 -1.8883
   7323SM  H10T 9570   2.919   7.247   9.213 -0.6640  0.1577  1.7119
   7323SM  C11S 9571   3.119   7.190   9.171  0.3177  0.2867 -0.5175
   7323SM  H11S 9572   3.092   7.087   9.139  2.2699  0.1160 -1.7391
   7323SM  H11T 9573   3.212   7.186   9.232 -0.9769  1.1288  1.6398
   7323SM  C12S 9574   3.123   7.265   9.035 -0.6328  0.2765 -0.4502
   7323SM  H12S 9575   3.144   7.370   9.063 -0.2104  0.4695 -1.4407
   7323SM  H12T 9576   3.021   7.250   8.995 -1.1087  0.8330  0.5349
   7323SM  C13S 9577   3.206   7.202   8.922 -0.2076 -0.2094  0.2431
   7323SM  H13S 9578   3.159   7.106   8.891  0.9372 -0.8885  0.5887
   7323SM  H13T 9579   3.309   7.179   8.955  0.3881  3.0623  1.0171
   7323SM  C14S 9580   3.222   7.291   8.794  0.1641 -0.9387 -0.1943
   7323SM  H14S 9581   3.261   7.390   8.827 -0.5685 -0.2682 -1.2577
   7323SM  H14T 9582   3.123   7.317   8.750  0.9462 -0.0126 -1.4934
   7323SM  C15S 9583   3.308   7.234   8.686  0.0754  0.2956  0.3501
   7323SM  H15S 9584   3.405   7.216   8.737  0.6920  0.9363 -0.5620
   7323SM  H15T 9585   3.322   7.321   8.619  0.4772  2.6962  3.3152
   7323SM  C16S 9586   3.253   7.112   8.613 -0.6519  0.2555  0.2112
   7323SM  H16S 9587   3.159   7.136   8.560 -0.0129  0.4170 -0.8683
   7323SM  H16T 9588   3.221   7.031   8.682  1.9551 -1.2811 -0.2583
   7323SM  C17S 9589   3.358   7.056   8.518  0.7334 -0.1776 -0.2335
   7323SM  H17S 9590   3.375   7.133   8.439 -2.0958  0.9092  0.1276
   7323SM  H17T 9591   3.323   6.958   8.480 -1.1161  0.6626 -0.8208
   7323SM  C18S 9592   3.500   7.025   8.572 -0.0677  0.0627 -0.3034
   7323SM  H18S 9593   3.544   7.115   8.619 -0.1584 -1.3553  2.7101
   7323SM  H18T 9594   3.570   6.988   8.494  0.7360  1.7487 -0.4096
   7323SM  H18U 9595   3.487   6.952   8.655 -0.3323  3.2668  2.6993
   7323SM   C1F 9596   2.939   6.598   9.876 -0.2974 -0.3852 -0.5056
   7323SM    OF 9597   2.836   6.542   9.908  0.4651  0.2371 -0.1155
   7323SM   C2F 9598   3.042   6.543   9.782  0.7436  0.1390 -0.0732
   7323SM   H2F 9599   3.109   6.488   9.851  0.5473 -0.1480 -0.1084
   7323SM   H2G 9600   3.102   6.621   9.731  1.3966  0.2322  0.8231
   7323SM   C3F 9601   2.976   6.444   9.678 -0.3504 -0.1182  0.6403
   7323SM   H3F 9602   2.874   6.474   9.645 -0.4589  0.5250  1.5240
   7323SM   H3G 9603   2.956   6.349   9.732 -2.7552 -0.5591 -0.8938
   7323SM   C4F 9604   3.067   6.421   9.550  0.5342  0.1513 -0.5740
   7323SM   H4F 9605   3.079   6.524   9.511 -2.0725  0.9832  0.6476
   7323SM   H4G 9606   2.998   6.363   9.485 -0.7144 -1.0446  1.6728
   7323SM   C5F 9607   3.202   6.348   9.570  0.6166 -0.1958 -0.4445
   7323SM   H5F 9608   3.181   6.249   9.615  0.1036  0.8145  1.6625
   7323SM   H5G 9609   3.255   6.398   9.654  0.2403  0.1626 -0.4149
   7323SM   C6F 9610   3.282   6.348   9.446  0.0930  0.5720  0.2160
   7323SM   H6F 9611   3.389   6.319   9.456  0.1909  0.0233 -1.8439
   7323SM   H6G 9612   3.278   6.447   9.396 -3.0602  0.3066 -0.2538
   7323SM   C7F 9613   3.228   6.248   9.345 -0.1141 -0.1905  0.0408
   7323SM   H7F 9614   3.127   6.272   9.304 -0.9665 -3.0620  0.2541
   7323SM   H7G 9615   3.220   6.153   9.401  2.6289  0.5774  1.9160
   7323SM   C8F 9616   3.324   6.224   9.225 -0.4921 -0.0164 -1.0165
   7323SM   H8F 9617   3.424   6.187   9.256 -1.3376 -1.5824 -0.0511
   7323SM   H8G 9618   3.350   6.319   9.174  0.1681 -0.6474 -1.8770
   7323SM   C9F 9619   3.269   6.127   9.126  0.1709 -0.5016  0.0297
   7323SM   H9F 9620   3.169   6.164   9.094  0.6783  2.3737  1.5186
   7323SM   H9G 9621   3.263   6.024   9.167  2.4123 -0.6361  0.1405
   7323SM  C10F 9622   3.364   6.105   9.005 -0.4423 -0.9077 -0.1789
   7323SM  H10F 9623   3.470   6.118   9.034  0.0317  0.6904 -2.3522
   7323SM  H10G 9624   3.351   6.194   8.940  0.3865 -0.8324 -0.2526
   7323SM  C11F 9625   3.331   5.980   8.920 -0.3919 -0.0764 -0.6256
   7323SM  H11F 9626   3.236   5.994   8.863  0.0454  0.2104 -1.3037
   7323SM  H11G 9627   3.311   5.900   8.995 -2.5917 -0.6662 -1.7409
   7323SM  C12F 9628   3.444   5.933   8.819 -0.1040  0.3082 -0.2032
   7323SM  H12F 9629   3.534   5.962   8.877 -1.0697 -0.0448  1.5569
   7323SM  H12G 9630   3.437   5.993   8.726  0.5612 -0.3834 -0.7087
   7323SM  C13F 9631   3.447   5.784   8.792  0.0422 -0.5601  0.0345
   7323SM  H13F 9632   3.346   5.746   8.765  0.5971 -0.7770 -1.9377
   7323SM  H13G 9633   3.481   5.723   8.878  1.4479 -0.8721 -0.7058
   7323SM  C14F 9634   3.531   5.755   8.665 -0.0402  0.2452  0.4963
   7323SM  H14F 9635   3.639   5.766   8.691 -0.1182 -1.3142  1.6712
   7323SM  H14G 9636   3.497   5.818   8.580  0.9739  0.3985  0.1888
   7323SM  C15F 9637   3.514   5.612   8.600 -0.1076  0.1527  0.4367
   7323SM  H15F 9638   3.529   5.546   8.688 -2.0611 -1.1654 -0.1551
   7323SM  H15G 9639   3.599   5.596   8.530 -0.0981  2.3254 -0.1298
   7323SM  C16F 9640   3.389   5.589   8.517  0.6122  1.1811  0.2223
   7323SM  H16F 9641   3.390   5.630   8.414  1.2183 -1.0533 -0.7264
   7323SM  H16G 9642   3.295   5.612   8.571 -0.6534  0.0385 -1.3710
   7323SM  C17F 9643   3.370   5.437   8.476  0.3869  0.2924 -0.1911
   7323SM  H17F 9644   3.361   5.373   8.567 -0.6979  0.4380 -0.1903
   7323SM  H17G 9645   3.463   5.405   8.424 -0.4828 -0.7399 -1.1677
   7323SM  C18F 9646   3.242   5.416   8.384 -0.7288  0.1578  0.1104
   7323SM  H18F 9647   3.237   5.489   8.301  2.5383  0.4940  0.0599
   7323SM  H18G 9648   3.148   5.419   8.443  0.1868 -2.4573  1.8873
   7323SM  C19F 9649   3.221   5.276   8.333  0.0180 -0.0987  0.9267
   7323SM  H19F 9650   3.115   5.266   8.299  0.0850 -1.6603  1.0820
   7323SM  H19G 9651   3.233   5.200   8.414 -2.5200 -0.4204  1.0865
   7323SM  C20F 9652   3.312   5.241   8.218 -0.5416 -0.1002  0.2707
   7323SM  H20F 9653   3.414   5.240   8.263  1.3433 -1.2204 -3.6214
   7323SM  H20G 9654   3.317   5.314   8.135 -0.0462  0.3119  0.6527
   7323SM  C21F 9655   3.290   5.089   8.164  0.0618 -1.5811 -0.4025
   7323SM  H21F 9656   3.186   5.073   8.130 -0.0897  0.5461 -1.0295
   7323SM  H21G 9657   3.304   5.015   8.247  1.2198  0.2903  1.1530
   7323SM  C22F 9658   3.383   5.068   8.043 -0.8638  0.0085 -0.3276
   7323SM  H22F 9659   3.490   5.085   8.067 -0.8600  1.3468 -1.2151
   7323SM  H22G 9660   3.370   5.153   7.973 -2.3853 -0.2960 -0.4335
   7323SM  C23F 9661   3.364   4.932   7.977  0.4223 -0.1075  0.7268
   7323SM  H23F 9662   3.421   4.920   7.882  0.2968 -0.8967  0.7410
   7323SM  H23G 9663   3.258   4.925   7.943 -0.2565  4.1491  1.4947
   7323SM  H23H 9664   3.379   4.854   8.055 -1.5173 -1.6410 -0.3066
   7423SM     N 9665   7.421   3.033  10.767 -0.1937 -0.4350 -0.5851
   7423SM   C15 9666   7.326   3.049  10.880  0.1366  0.0752  0.2810
   7423SM  H15A 9667   7.234   2.996  10.857  0.5633 -0.3158 -0.5655
   7423SM  H15B 9668   7.284   3.147  10.893 -1.5460 -0.8985  3.1583
   7423SM  H15C 9669   7.360   3.012  10.976 -2.2111 -0.7254  0.8737
   7423SM   C14 9670   7.550   3.088  10.808  0.8217 -0.1224  0.3958
   7423SM  H14A 9671   7.540   3.196  10.811 -1.2965 -0.2224 -0.7777
   7423SM  H14B 9672   7.626   3.061  10.736  1.6714  0.9061  0.8636
   7423SM  H14C 9673   7.578   3.048  10.904  0.9681 -0.1423  0.3463
   7423SM   C13 9674   7.445   2.885  10.735 -0.3363 -0.2631 -0.3804
   7423SM  H13A 9675   7.525   2.871  10.664 -1.3812  0.2744 -1.6875
   7423SM  H13B 9676   7.362   2.840  10.682  0.7968 -0.8514 -1.7126
   7423SM  H13C 9677   7.465   2.819  10.819 -0.9748 -0.9037 -0.7172
   7423SM   C12 9678   7.377   3.097  10.640  0.4677  0.1566  0.0879
   7423SM  H12A 9679   7.370   3.203  10.656 -0.5657  0.3099 -1.1523
   7423SM  H12B 9680   7.277   3.065  10.611  1.2425 -1.5746 -0.8598
   7423SM   C11 9681   7.462   3.078  10.506  0.9486 -0.0186  0.5179
   7423SM  H11A 9682   7.422   3.155  10.437  0.3401  1.7431  2.6996
   7423SM  H11B 9683   7.432   2.978  10.468 -1.9617  1.4164 -1.3046
   7423SM     P 9684   7.691   3.203  10.482 -0.1161  0.4760 -0.0589
   7423SM   O13 9685   7.641   3.330  10.537  0.2985  0.9734  0.0223
   7423SM   O14 9686   7.829   3.168  10.514  0.0867 -0.4802 -0.2016
   7423SM   O11 9687   7.674   3.213  10.324 -0.0322  0.1330 -0.2724
   7423SM   O12 9688   7.608   3.078  10.519  0.1106  0.0153  0.2710
   7423SM   C1S 9689   7.634   3.103  10.253 -0.3682  0.1783 -0.1357
   7423SM   H1S 9690   7.524   3.093  10.252 -0.2004 -2.3895 -1.4899
   7423SM   H1T 9691   7.670   3.011  10.302  1.0504 -0.6421 -2.5339
   7423SM    NF 9692   7.635   3.026  10.026 -0.1507  0.2948  0.6017
   7423SM   HNF 9693   7.676   2.936  10.021  1.3577  0.9890 -0.3182
   7423SM   C2S 9694   7.698   3.121  10.110 -0.1783 -0.4092  0.2114
   7423SM   H2S 9695   7.683   3.220  10.062  0.8050 -0.8172 -0.9790
   7423SM   C3S 9696   7.851   3.110  10.120  0.1309  0.2802  0.3097
   7423SM   H3S 9697   7.859   3.006  10.157 -2.2642 -0.0650  0.0338
   7423SM    O3 9698   7.912   3.204  10.204 -0.7333  0.0239 -0.0391
   7423SM   HO3 9699   7.829   3.226  10.246 -1.0375  0.7035 -0.9463
   7423SM   C4S 9700   7.915   3.124   9.983 -0.1647  0.0597  0.0965
   7423SM   H4S 9701   7.872   3.200   9.916  0.2303  0.5019  0.3429
   7423SM   C5S 9702   8.017   3.050   9.927  0.5013  0.4657 -0.3645
   7423SM   H5S 9703   8.062   2.973   9.991  1.4517 -0.0300 -1.5915
   7423SM   C6S 9704   8.083   3.067   9.793 -0.9987  0.2152  0.0667
   7423SM   H6S 9705   8.052   2.985   9.725 -0.1425 -1.3363  1.4660
   7423SM   H6T 9706   8.192   3.048   9.808 -0.9310  0.1367 -0.5127
   7423SM   C7S 9707   8.073   3.207   9.727  0.0684  0.0572 -0.0790
   7423SM   H7S 9708   8.118   3.282   9.796 -1.4623  0.3003  0.7021
   7423SM   H7T 9709   7.969   3.244   9.716  0.3527  1.1149  0.6652
   7423SM   C8S 9710   8.135   3.205   9.588 -0.0179  0.0249 -0.7126
   7423SM   H8S 9711   8.095   3.116   9.535 -2.1162  0.8837 -0.6616
   7423SM   H8T 9712   8.240   3.178   9.612 -0.7469  0.4776  4.0697
   7423SM   C9S 9713   8.125   3.336   9.506 -0.2187  0.2228  0.8211
   7423SM   H9S 9714   8.171   3.419   9.564 -0.8267  2.0713 -1.1722
   7423SM   H9T 9715   8.017   3.362   9.503 -0.1830  0.4066  1.1076
   7423SM  C10S 9716   8.191   3.334   9.371 -0.2592  0.5235 -0.2297
   7423SM  H10S 9717   8.129   3.262   9.313 -0.7516  0.6807  0.0926
   7423SM  H10T 9718   8.293   3.291   9.378 -0.3096  0.4775  0.2424
   7423SM  C11S 9719   8.189   3.467   9.295  1.0396  0.2188 -0.4714
   7423SM  H11S 9720   8.250   3.539   9.354 -1.6991  1.9217  0.4253
   7423SM  H11T 9721   8.089   3.511   9.277  1.4227  0.3423 -2.5404
   7423SM  C12S 9722   8.258   3.445   9.153  0.4543 -0.9981  0.1921
   7423SM  H12S 9723   8.196   3.384   9.084  1.4095 -0.3898 -1.2614
   7423SM  H12T 9724   8.360   3.403   9.171  0.5311 -0.0678  2.2485
   7423SM  C13S 9725   8.271   3.581   9.077 -0.2133  0.2936 -0.1966
   7423SM  H13S 9726   8.352   3.637   9.128 -1.6913  1.5419  0.8612
   7423SM  H13T 9727   8.170   3.628   9.078 -0.6504 -0.5625 -1.4124
   7423SM  C14S 9728   8.307   3.567   8.926 -0.4245 -0.7141  0.5349
   7423SM  H14S 9729   8.239   3.491   8.881 -2.4588  1.0369  0.4980
   7423SM  H14T 9730   8.413   3.536   8.915  0.3370  1.5486  0.9709
   7423SM  C15S 9731   8.291   3.695   8.839  0.1253 -0.4142  0.1162
   7423SM  H15S 9732   8.356   3.772   8.886  0.4554 -0.8839  0.4380
   7423SM  H15T 9733   8.185   3.729   8.848 -0.1835 -0.5021 -2.5164
   7423SM  C16S 9734   8.338   3.655   8.702 -0.4211 -0.1825  0.6697
   7423SM  H16S 9735   8.252   3.606   8.652 -0.3372 -1.3059  1.5774
   7423SM  H16T 9736   8.420   3.579   8.703  1.3120  1.5293 -1.1578
   7423SM  C17S 9737   8.412   3.770   8.631  0.4210 -0.4875  0.1558
   7423SM  H17S 9738   8.475   3.819   8.708  1.1476  0.3486 -0.9328
   7423SM  H17T 9739   8.342   3.849   8.595 -0.9958 -1.9635 -0.4369
   7423SM  C18S 9740   8.496   3.733   8.510 -0.7526 -0.3798 -0.2135
   7423SM  H18S 9741   8.586   3.681   8.550 -2.1680 -2.0354  1.0105
   7423SM  H18T 9742   8.520   3.821   8.447 -1.5730  0.2092  0.2768
   7423SM  H18U 9743   8.432   3.664   8.451 -2.9476  2.0719 -0.8695
   7423SM   C1F 9744   7.515   3.033   9.973  0.6619 -0.3228 -0.2127
   7423SM    OF 9745   7.443   3.130   9.989  0.8573 -0.1431  0.5793
   7423SM   C2F 9746   7.453   2.924   9.890  0.1140 -0.0584 -0.3291
   7423SM   H2F 9747   7.427   2.840   9.958  0.6821  1.2828  1.6178
   7423SM   H2G 9748   7.530   2.885   9.819  2.6720 -0.8636  2.6788
   7423SM   C3F 9749   7.317   2.963   9.817 -0.6238  0.7005  0.1884
   7423SM   H3F 9750   7.339   3.049   9.749  0.7593  0.1216 -0.1382
   7423SM   H3G 9751   7.240   2.995   9.889 -0.3102  0.0806  0.8061
   7423SM   C4F 9752   7.260   2.851   9.724  0.2775 -0.1034  0.2603
   7423SM   H4F 9753   7.204   2.768   9.772 -1.8339  1.8471  1.3680
   7423SM   H4G 9754   7.354   2.812   9.680 -0.3239  0.0991 -1.2464
   7423SM   C5F 9755   7.177   2.902   9.601 -0.2234 -0.7282 -0.3053
   7423SM   H5F 9756   7.243   2.972   9.545  2.8498 -0.7794  2.9386
   7423SM   H5G 9757   7.091   2.966   9.631  2.0346  1.9733  0.7705
   7423SM   C6F 9758   7.132   2.788   9.510  0.2606 -0.0633 -0.1971
   7423SM   H6F 9759   7.063   2.728   9.574 -0.4780  2.0298  1.0614
   7423SM   H6G 9760   7.222   2.727   9.487  0.4221 -0.0695  0.4452
   7423SM   C7F 9761   7.063   2.845   9.389  0.2105 -0.3395  0.1134
   7423SM   H7F 9762   7.134   2.919   9.347  0.7484 -0.2975  1.0760
   7423SM   H7G 9763   6.964   2.892   9.410  0.4214  1.2752 -2.0988
   7423SM   C8F 9764   7.028   2.743   9.279 -0.1069 -0.0865 -0.3245
   7423SM   H8F 9765   6.987   2.651   9.326 -1.5469  0.0127 -1.3233
   7423SM   H8G 9766   7.117   2.705   9.224 -1.1261  0.5820 -2.5807
   7423SM   C9F 9767   6.933   2.798   9.172  0.2309  0.4378 -0.8088
   7423SM   H9F 9768   6.953   2.903   9.142 -0.7062  0.2563 -2.1535
   7423SM   H9G 9769   6.823   2.793   9.187  0.4583  0.4451  1.0903
   7423SM  C10F 9770   6.947   2.720   9.037 -0.1145  0.0883 -0.7264
   7423SM  H10F 9771   6.905   2.618   9.050  1.5396 -0.5003  0.3052
   7423SM  H10G 9772   7.055   2.711   9.016 -0.0151  1.4034 -0.8639
   7423SM  C11F 9773   6.895   2.801   8.908 -0.2133 -0.2470 -0.9159
   7423SM  H11F 9774   6.948   2.898   8.914 -0.8459  0.0237  1.2619
   7423SM  H11G 9775   6.789   2.824   8.933  0.1269 -0.5235  0.9620
   7423SM  C12F 9776   6.915   2.715   8.787 -0.6727  0.3993  0.0595
   7423SM  H12F 9777   6.862   2.619   8.801  1.6861 -0.9723  0.1602
   7423SM  H12G 9778   7.022   2.684   8.787 -0.6291  0.5213  1.0864
   7423SM  C13F 9779   6.893   2.792   8.655 -0.5314  0.0019  0.2573
   7423SM  H13F 9780   6.938   2.893   8.660 -3.2848  1.3709 -0.8220
   7423SM  H13G 9781   6.784   2.811   8.653 -0.1957  2.5119  1.7166
   7423SM  C14F 9782   6.923   2.718   8.523  0.1479  0.2839 -0.3047
   7423SM  H14F 9783   7.028   2.683   8.530  0.4540  0.4459 -3.1866
   7423SM  H14G 9784   6.932   2.794   8.443 -0.1852  0.5152 -0.1243
   7423SM  C15F 9785   6.827   2.598   8.492  0.4892  0.0741  0.3431
   7423SM  H15F 9786   6.724   2.629   8.516  0.1673 -1.0494  0.4696
   7423SM  H15G 9787   6.851   2.511   8.558 -0.0252 -1.7454 -1.7344
   7423SM  C16F 9788   6.841   2.555   8.345 -0.3333 -0.7287 -0.4801
   7423SM  H16F 9789   6.950   2.537   8.332 -0.0578  0.8203 -0.5553
   7423SM  H16G 9790   6.818   2.649   8.290  0.9648  0.4590  0.8957
   7423SM  C17F 9791   6.755   2.445   8.285 -0.0898  0.4562 -0.8236
   7423SM  H17F 9792   6.761   2.434   8.175  0.9096 -1.5205 -0.6273
   7423SM  H17G 9793   6.649   2.463   8.313 -0.1303 -1.5129  0.5310
   7423SM  C18F 9794   6.800   2.307   8.338 -0.1764 -0.2547  0.1955
   7423SM  H18F 9795   6.783   2.302   8.447 -0.9480 -0.5203  0.0650
   7423SM  H18G 9796   6.906   2.275   8.329 -0.1072  0.3537 -1.8374
   7423SM  C19F 9797   6.717   2.194   8.278  0.1376 -0.4789 -0.3493
   7423SM  H19F 9798   6.738   2.188   8.170 -0.7519 -2.3349 -0.4644
   7423SM  H19G 9799   6.607   2.207   8.288  0.1610 -0.4850 -0.0704
   7423SM  C20F 9800   6.765   2.061   8.331 -0.0291  0.1615 -0.0684
   7423SM  H20F 9801   6.765   2.065   8.442  0.0240  0.9391 -0.0905
   7423SM  H20G 9802   6.872   2.046   8.308  0.3167 -0.2735  1.7320
   7423SM  C21F 9803   6.691   1.936   8.280 -0.3074  0.3108  0.2788
   7423SM  H21F 9804   6.694   1.937   8.169 -1.5926  0.4124  0.2316
   7423SM  H21G 9805   6.584   1.948   8.307 -0.6275 -1.3038 -0.2204
   7423SM  C22F 9806   6.747   1.809   8.340  0.3778 -0.7931 -0.3479
   7423SM  H22F 9807   6.857   1.824   8.351  0.6046 -0.3871 -2.7525
   7423SM  H22G 9808   6.731   1.726   8.268 -1.3401 -0.6617 -0.1705
   7423SM  C23F 9809   6.686   1.770   8.470  0.1725  0.2880  0.2308
   7423SM  H23F 9810   6.731   1.684   8.526  2.1484  2.7379  2.6833
   7423SM  H23G 9811   6.578   1.756   8.448  0.4388  0.0163 -0.9571
   7423SM  H23H 9812   6.698   1.851   8.545  2.1991  1.6930 -1.5058
   7523SM     N 9813   6.781   2.446  10.474 -0.7805  0.3864 -0.4496
   7523SM   C15 9814   6.810   2.521  10.596 -0.0348  0.0999 -0.6965
   7523SM  H15A 9815   6.908   2.522  10.640 -0.0762  2.8052 -0.5335
   7523SM  H15B 9816   6.740   2.487  10.672  0.2978  0.9051 -0.0202
   7523SM  H15C 9817   6.780   2.624  10.588  1.3549  0.4993 -0.9247
   7523SM   C14 9818   6.890   2.474  10.378  0.7772 -0.0875 -0.3148
   7523SM  H14A 9819   6.985   2.436  10.412  1.9281  1.3159 -1.8434
   7523SM  H14B 9820   6.896   2.582  10.376  1.7740 -0.1166  0.1847
   7523SM  H14C 9821   6.856   2.449  10.279 -1.6841  0.3614  0.3432
   7523SM   C13 9822   6.786   2.297  10.507  0.0374 -0.2601  0.7581
   7523SM  H13A 9823   6.880   2.266  10.548 -0.3876  0.0341  1.9978
   7523SM  H13B 9824   6.771   2.239  10.417 -0.2280  2.4672 -1.0929
   7523SM  H13C 9825   6.708   2.269  10.577  0.1027 -0.9011  0.5777
   7523SM   C12 9826   6.646   2.475  10.421 -0.8818  0.2699 -0.0237
   7523SM  H12A 9827   6.567   2.456  10.492 -1.6174 -0.0559 -0.9091
   7523SM  H12B 9828   6.628   2.403  10.343 -0.5563  1.0080 -0.7996
   7523SM   C11 9829   6.632   2.610  10.345  0.1227 -0.5445 -0.5277
   7523SM  H11A 9830   6.527   2.615  10.308 -0.9776  0.8267  2.4700
   7523SM  H11B 9831   6.690   2.611  10.250  0.2444  0.1410 -0.4486
   7523SM     P 9832   6.555   2.803  10.511 -0.2392  0.1589 -0.2061
   7523SM   O13 9833   6.439   2.725  10.542 -0.0650  0.0025  0.1221
   7523SM   O14 9834   6.626   2.868  10.626  0.3843 -0.2117 -0.7103
   7523SM   O11 9835   6.511   2.905  10.394 -0.2270  0.0450 -0.2526
   7523SM   O12 9836   6.666   2.717  10.438 -0.0081 -0.0260  0.5064
   7523SM   C1S 9837   6.602   2.986  10.322 -0.0505  0.2346  0.2074
   7523SM   H1S 9838   6.705   2.980  10.364 -0.1961  0.6303  0.6220
   7523SM   H1T 9839   6.569   3.089  10.343  1.5579  1.0144 -0.8891
   7523SM    NF 9840   6.693   3.048  10.102 -0.4998 -0.6341 -0.2108
   7523SM   HNF 9841   6.662   3.137  10.069 -0.0461 -0.2361  0.4003
   7523SM   C2S 9842   6.601   2.959  10.165 -0.2789 -0.9189  0.4997
   7523SM   H2S 9843   6.645   2.858  10.153  1.6063 -0.1162  0.4118
   7523SM   C3S 9844   6.453   2.970  10.125 -0.8187 -0.1787 -0.0462
   7523SM   H3S 9845   6.415   3.069  10.158  3.4227  1.2021  1.3771
   7523SM    O3 9846   6.368   2.872  10.176  0.2618  0.0621  0.3535
   7523SM   HO3 9847   6.393   2.883  10.268  0.7599  1.8521  0.0424
   7523SM   C4S 9848   6.431   2.949   9.979 -0.4382 -0.1169  0.1141
   7523SM   H4S 9849   6.468   2.854   9.937  0.9336  0.5252 -0.1917
   7523SM   C5S 9850   6.375   3.037   9.896 -0.4859  0.1133  0.5104
   7523SM   H5S 9851   6.335   3.130   9.940  0.0654  0.4326  0.3470
   7523SM   C6S 9852   6.358   3.015   9.743  0.1627 -0.1092 -0.1007
   7523SM   H6S 9853   6.455   2.985   9.697  0.8608  0.3575  1.0326
   7523SM   H6T 9854   6.325   3.108   9.692  0.2733  0.8294  1.4872
   7523SM   C7S 9855   6.254   2.913   9.719  0.3364  0.0352 -0.6453
   7523SM   H7S 9856   6.166   2.926   9.785 -0.7285 -1.3597 -1.7194
   7523SM   H7T 9857   6.296   2.814   9.745  3.0983  1.3510  0.2005
   7523SM   C8S 9858   6.199   2.907   9.572  0.6214  0.7736 -0.2521
   7523SM   H8S 9859   6.152   3.003   9.542  1.0735  0.7559 -1.0355
   7523SM   H8T 9860   6.119   2.831   9.579 -1.1051  2.3525 -1.6120
   7523SM   C9S 9861   6.313   2.879   9.469 -0.4825 -0.0096  0.5749
   7523SM   H9S 9862   6.350   2.777   9.491  2.7327  0.9335 -0.0146
   7523SM   H9T 9863   6.397   2.951   9.476 -0.1395 -0.4063  0.5921
   7523SM  C10S 9864   6.259   2.877   9.322  0.4272 -0.2319 -0.2266
   7523SM  H10S 9865   6.342   2.888   9.250  0.8989 -0.1358  0.3238
   7523SM  H10T 9866   6.197   2.969   9.316  0.7626 -0.0160 -0.3586
   7523SM  C11S 9867   6.167   2.754   9.287  0.1111 -0.2068 -0.6365
   7523SM  H11S 9868   6.087   2.747   9.364  0.7493 -1.5928 -0.0656
   7523SM  H11T 9869   6.230   2.662   9.286  0.7517  0.0759  2.5897
   7523SM  C12S 9870   6.094   2.767   9.150  0.2243 -1.0036  0.0524
   7523SM  H12S 9871   6.065   2.661   9.133  0.3835 -1.0137 -0.1563
   7523SM  H12T 9872   6.160   2.797   9.066 -0.3566 -2.6968 -1.0649
   7523SM  C13S 9873   5.970   2.867   9.160  0.1475 -0.1185 -0.0595
   7523SM  H13S 9874   5.996   2.963   9.209 -0.1419 -0.7616  1.4203
   7523SM  H13T 9875   5.893   2.815   9.221  0.5568  1.1158  1.5781
   7523SM  C14S 9876   5.917   2.897   9.021  0.0875 -0.7613  0.2176
   7523SM  H14S 9877   5.989   2.963   8.967 -1.5248  0.5640 -0.3906
   7523SM  H14T 9878   5.825   2.958   9.014  1.8195  2.0132  0.2022
   7523SM  C15S 9879   5.911   2.764   8.929  0.2864 -0.0336 -0.3370
   7523SM  H15S 9880   5.859   2.682   8.982 -1.0443 -0.6150 -2.4606
   7523SM  H15T 9881   6.016   2.736   8.905  1.6036  1.5447  2.8489
   7523SM  C16S 9882   5.840   2.809   8.797 -0.2608 -0.9633 -0.1369
   7523SM  H16S 9883   5.904   2.890   8.758  1.5196 -0.7090  2.9655
   7523SM  H16T 9884   5.741   2.856   8.819 -1.1826 -1.8894 -2.0459
   7523SM  C17S 9885   5.796   2.704   8.696 -0.0415 -0.8030 -0.5171
   7523SM  H17S 9886   5.744   2.622   8.750 -1.2181  0.4888  0.3728
   7523SM  H17T 9887   5.876   2.652   8.639 -0.0381 -1.6583  0.2409
   7523SM  C18S 9888   5.678   2.751   8.610 -0.1385 -0.0733 -0.1471
   7523SM  H18S 9889   5.627   2.666   8.562  0.3738 -0.1678 -0.5319
   7523SM  H18T 9890   5.706   2.828   8.535  1.3363 -0.6477 -0.2158
   7523SM  H18U 9891   5.608   2.805   8.677  1.6460  2.3385 -0.0778
   7523SM   C1F 9892   6.824   3.034  10.100 -0.3396  0.0125  0.7413
   7523SM    OF 9893   6.877   2.934  10.149 -0.0054  0.5382  0.0907
   7523SM   C2F 9894   6.907   3.142  10.033  0.6022 -0.3509 -0.7324
   7523SM   H2F 9895   7.009   3.105  10.011  0.5524 -0.8485 -0.1334
   7523SM   H2G 9896   6.924   3.225  10.105 -1.6194  0.8133 -1.4446
   7523SM   C3F 9897   6.861   3.203   9.901 -0.1095  0.0736 -0.5678
   7523SM   H3F 9898   6.942   3.266   9.859  1.3601  0.7870  2.9654
   7523SM   H3G 9899   6.774   3.270   9.917 -3.5508 -3.8411 -1.1120
   7523SM   C4F 9900   6.810   3.099   9.800 -1.0735  0.3910 -0.5665
   7523SM   H4F 9901   6.716   3.053   9.837 -0.5394  0.9054  1.5230
   7523SM   H4G 9902   6.881   3.015   9.785 -1.5558 -0.0052 -0.6373
   7523SM   C5F 9903   6.789   3.163   9.662 -0.2359 -0.0477 -0.1417
   7523SM   H5F 9904   6.883   3.216   9.637 -0.4178 -0.1001 -0.9377
   7523SM   H5G 9905   6.702   3.231   9.675 -2.1954 -2.4922  0.2756
   7523SM   C6F 9906   6.740   3.066   9.551 -0.7283  0.1263 -0.1973
   7523SM   H6F 9907   6.666   2.992   9.589 -1.2060 -0.9423 -2.9577
   7523SM   H6G 9908   6.833   3.011   9.523  0.3273  1.0270  1.3704
   7523SM   C7F 9909   6.670   3.135   9.435 -0.3567  0.2400  0.1169
   7523SM   H7F 9910   6.731   3.227   9.419 -0.7427  0.7126  1.2561
   7523SM   H7G 9911   6.562   3.149   9.458 -0.8460 -0.9023 -1.3766
   7523SM   C8F 9912   6.669   3.043   9.317  0.4987  0.9914  0.2780
   7523SM   H8F 9913   6.619   2.949   9.348 -1.5973  2.1504  0.5892
   7523SM   H8G 9914   6.774   3.029   9.283  0.3243 -1.4354  0.6170
   7523SM   C9F 9915   6.590   3.101   9.196  0.2211 -0.4535 -0.7615
   7523SM   H9F 9916   6.626   3.204   9.175  2.2985 -0.9804 -0.0558
   7523SM   H9G 9917   6.482   3.108   9.220  0.0565  1.2986 -1.8317
   7523SM  C10F 9918   6.600   3.008   9.069  0.1292 -0.7724 -0.7705
   7523SM  H10F 9919   6.611   2.902   9.100 -0.6218 -1.3366 -2.3368
   7523SM  H10G 9920   6.687   3.042   9.008 -0.0747 -0.5163 -0.9198
   7523SM  C11F 9921   6.468   3.009   8.988  0.6645 -0.1185  0.0813
   7523SM  H11F 9922   6.450   3.117   8.966  0.9475  0.0647  0.7397
   7523SM  H11G 9923   6.375   2.991   9.045 -0.2055 -1.4366 -1.6463
   7523SM  C12F 9924   6.471   2.932   8.862 -0.4778  0.1804  1.1499
   7523SM  H12F 9925   6.520   2.834   8.880  1.0508  0.0410 -2.6478
   7523SM  H12G 9926   6.536   2.978   8.784  0.7490 -0.6633  1.6369
   7523SM  C13F 9927   6.330   2.899   8.802  0.0473  0.4968 -0.5972
   7523SM  H13F 9928   6.262   2.984   8.824 -0.4758  0.2065 -1.0551
   7523SM  H13G 9929   6.279   2.811   8.848 -2.1133  1.7636 -0.4162
   7523SM  C14F 9930   6.333   2.870   8.647 -0.2491 -0.2713  0.3018
   7523SM  H14F 9931   6.440   2.863   8.618 -0.3616 -0.8253  0.0076
   7523SM  H14G 9932   6.296   2.959   8.592 -1.2228 -0.6175  0.3703
   7523SM  C15F 9933   6.265   2.743   8.598  0.2476  0.0664  0.4722
   7523SM  H15F 9934   6.156   2.757   8.619  0.0165 -0.1570 -0.5552
   7523SM  H15G 9935   6.306   2.655   8.651 -0.3381  0.1279  1.0493
   7523SM  C16F 9936   6.283   2.710   8.445  0.8124  0.0805  0.3079
   7523SM  H16F 9937   6.384   2.664   8.433  1.5812  1.8249 -0.1786
   7523SM  H16G 9938   6.265   2.803   8.387 -2.3723  1.1528  2.7287
   7523SM  C17F 9939   6.180   2.596   8.421 -0.7360 -0.3625  0.2435
   7523SM  H17F 9940   6.077   2.637   8.423 -0.4165  0.4376  1.5961
   7523SM  H17G 9941   6.182   2.521   8.504  1.1173 -2.5961 -1.6834
   7523SM  C18F 9942   6.190   2.533   8.288 -0.5566 -0.4420 -0.4513
   7523SM  H18F 9943   6.289   2.490   8.265  0.3919  1.9805 -1.2424
   7523SM  H18G 9944   6.172   2.616   8.215  2.0369  0.8966  0.3286
   7523SM  C19F 9945   6.078   2.439   8.258  0.9164  0.5866  0.1221
   7523SM  H19F 9946   5.985   2.473   8.308  0.7660 -1.1149  1.0879
   7523SM  H19G 9947   6.112   2.343   8.302  4.5003  0.2962 -2.7956
   7523SM  C20F 9948   6.054   2.405   8.108 -0.1544  0.0887  0.0150
   7523SM  H20F 9949   6.153   2.369   8.073 -0.9613 -0.5386 -1.7484
   7523SM  H20G 9950   6.030   2.496   8.048 -0.9202 -0.7827 -1.0281
   7523SM  C21F 9951   5.951   2.301   8.078 -0.4369 -0.0266  0.0084
   7523SM  H21F 9952   5.905   2.325   7.980  1.7920  1.5905 -0.7204
   7523SM  H21G 9953   5.870   2.300   8.153 -0.2351 -2.3241  0.2582
   7523SM  C22F 9954   6.027   2.167   8.069  0.0612  0.1243 -0.0769
   7523SM  H22F 9955   6.092   2.147   8.158 -0.8348  0.2632  0.6239
   7523SM  H22G 9956   6.103   2.175   7.989 -0.9888  2.1292 -0.9398
   7523SM  C23F 9957   5.930   2.052   8.043  0.2463 -0.6247 -0.6780
   7523SM  H23F 9958   5.862   2.038   8.129  1.3720 -0.6880  0.2262
   7523SM  H23G 9959   6.001   1.968   8.028  0.0577 -1.2624  1.6942
   7523SM  H23H 9960   5.865   2.057   7.953  0.1612 -2.5654 -0.7748
   7623SM     N 9961   7.233   4.829  10.449 -0.1329  0.1694 -0.2328
   7623SM   C15 9962   7.283   4.967  10.455 -0.2443 -0.7214 -0.4256
   7623SM  H15A 9963   7.284   5.025  10.364  2.5705  0.0614 -0.0218
   7623SM  H15B 9964   7.386   4.956  10.487 -0.1263 -1.8338 -1.1183
   7623SM  H15C 9965   7.228   5.028  10.525 -0.7973 -1.3990 -0.2549
   7623SM   C14 9966   7.265   4.764  10.573 -0.0359 -0.2512 -0.1529
   7623SM  H14A 9967   7.235   4.661  10.586  0.9995 -0.3483  1.8575
   7623SM  H14B 9968   7.214   4.821  10.650 -1.0966  1.4237 -1.9833
   7623SM  H14C 9969   7.368   4.758  10.602 -0.4584 -0.2170  1.4753
   7623SM   C13 9970   7.082   4.831  10.432 -0.0588 -0.4043 -0.4080
   7623SM  H13A 9971   7.032   4.883  10.512 -0.0372 -0.2240 -0.5114
   7623SM  H13B 9972   7.039   4.733  10.442  0.1228 -0.3198  1.6329
   7623SM  H13C 9973   7.058   4.884  10.341  1.6222 -0.0853 -0.6867
   7623SM   C12 9974   7.296   4.750  10.343 -0.5372  0.1498 -0.3556
   7623SM  H12A 9975   7.399   4.740  10.374 -0.1626 -1.3890 -1.9142
   7623SM  H12B 9976   7.282   4.804  10.251 -2.4964 -2.1506 -1.5311
   7623SM   C11 9977   7.251   4.607  10.314  0.0985  0.2716 -0.0058
   7623SM  H11A 9978   7.327   4.573  10.240 -0.5074 -0.8035 -0.1537
   7623SM  H11B 9979   7.151   4.608  10.265 -0.9128  2.8583  1.8927
   7623SM     P 9980   7.167   4.398  10.437 -0.2311  0.0617  0.2677
   7623SM   O13 9981   7.231   4.278  10.497 -0.2812 -0.0940 -0.0126
   7623SM   O14 9982   7.036   4.439  10.495  0.2655 -0.1648 -0.1325
   7623SM   O11 9983   7.145   4.374  10.284  0.3128 -0.4401 -0.2029
   7623SM   O12 9984   7.263   4.521  10.436  0.1407 -0.2221  0.8751
   7623SM   C1S 9985   7.040   4.288  10.233 -0.2419  0.2660  0.0218
   7623SM   H1S 9986   6.943   4.338  10.256 -0.5293 -0.9880  1.7727
   7623SM   H1T 9987   7.040   4.190  10.284  0.2588  0.8664  1.2007
   7623SM    NF 9988   6.953   4.172  10.036  0.4127  0.8357 -0.4741
   7623SM   HNF 9989   6.994   4.085  10.008  0.0431  0.7206 -0.6518
   7623SM   C2S 9990   7.046   4.275  10.080 -0.0131  0.2562 -0.0667
   7623SM   H2S 9991   7.015   4.367  10.025 -1.2227 -0.2426 -0.2401
   7623SM   C3S 9992   7.189   4.242  10.021 -0.6058 -0.3182  0.1824
   7623SM   H3S 9993   7.202   4.135  10.045 -1.7159 -0.4019  0.4742
   7623SM    O3 9994   7.295   4.302  10.090 -0.2186  0.0597 -0.1949
   7623SM   HO3 9995   7.255   4.348  10.164 -2.1820  0.6669 -1.5496
   7623SM   C4S 9996   7.195   4.240   9.868 -0.2462 -0.2172 -0.4391
   7623SM   H4S 9997   7.198   4.145   9.812  0.0131  0.4761 -1.6376
   7623SM   C5S 9998   7.209   4.352   9.790  0.6687 -0.0687  0.3862
   7623SM   H5S 9999   7.218   4.449   9.840  0.6999  0.7888 -1.2250
   7623SM   C6S10000   7.230   4.346   9.641  0.3593  0.9480  0.0150
   7623SM   H6S10001   7.296   4.260   9.621 -0.8181 -0.1364  0.6684
   7623SM   H6T10002   7.286   4.436   9.606  1.2746  0.0760 -0.8188
   7623SM   C7S10003   7.110   4.333   9.551 -0.2352  0.0386 -0.7345
   7623SM   H7S10004   7.058   4.431   9.540 -3.7926 -1.7769 -1.4562
   7623SM   H7T10005   7.041   4.254   9.586  2.1953 -1.7552  0.3199
   7623SM   C8S10006   7.143   4.301   9.405 -0.1306  0.5765  1.2333
   7623SM   H8S10007   7.043   4.296   9.357 -0.2625 -0.3050  1.5799
   7623SM   H8T10008   7.197   4.204   9.408  0.1219  0.6378 -0.4271
   7623SM   C9S10009   7.227   4.402   9.325 -0.0857 -0.1051 -1.3969
   7623SM   H9S10010   7.315   4.431   9.387 -0.6011  0.7776 -1.0694
   7623SM   H9T10011   7.166   4.494   9.312  0.0076  0.4505  1.3757
   7623SM  C10S10012   7.276   4.346   9.195 -0.2093 -0.0160  0.1488
   7623SM  H10S10013   7.202   4.271   9.160 -1.4949  1.4268 -0.3355
   7623SM  H10T10014   7.372   4.291   9.202  0.7658  1.4501 -1.0838
   7623SM  C11S10015   7.296   4.445   9.072  0.2244 -0.4377 -0.1903
   7623SM  H11S10016   7.324   4.392   8.978 -0.2477  0.1452 -0.6625
   7623SM  H11T10017   7.373   4.520   9.100  0.6293 -1.0827  0.4812
   7623SM  C12S10018   7.171   4.526   9.029  0.5661  0.6594  0.2663
   7623SM  H12S10019   7.184   4.601   8.948  1.2648  1.1604  0.8173
   7623SM  H12T10020   7.151   4.588   9.120 -1.3122  2.4720 -1.2838
   7623SM  C13S10021   7.048   4.442   8.992  0.5352  0.0143  0.8234
   7623SM  H13S10022   7.012   4.377   9.074 -0.6771 -0.5088 -0.0882
   7623SM  H13T10023   7.086   4.370   8.916 -2.3723 -1.0513  0.2771
   7623SM  C14S10024   6.929   4.514   8.924  0.0398  0.0410  0.1226
   7623SM  H14S10025   6.962   4.578   8.840  0.1855  1.5712  1.3012
   7623SM  H14T10026   6.874   4.576   8.998  0.0031  1.0647 -0.7458
   7623SM  C15S10027   6.823   4.408   8.886 -0.0773 -0.6993 -0.5505
   7623SM  H15S10028   6.736   4.457   8.839  1.0978  2.1179  0.0353
   7623SM  H15T10029   6.803   4.330   8.963  1.4775 -1.2170 -0.6262
   7623SM  C16S10030   6.879   4.325   8.763  0.0217  0.1883 -0.6385
   7623SM  H16S10031   6.972   4.265   8.775  1.1676  1.6551 -1.8044
   7623SM  H16T10032   6.906   4.398   8.684  2.4250 -1.0089 -1.0338
   7623SM  C17S10033   6.767   4.238   8.700  0.1438 -0.3145 -0.0742
   7623SM  H17S10034   6.673   4.296   8.709  0.8538  0.6464  1.6300
   7623SM  H17T10035   6.735   4.162   8.775 -2.1925  0.2317 -0.4312
   7623SM  C18S10036   6.793   4.187   8.556 -0.6836  0.1146  0.1911
   7623SM  H18S10037   6.713   4.119   8.519 -1.2487  0.9187 -0.0908
   7623SM  H18T10038   6.887   4.131   8.536  0.3105  2.1116 -1.0334
   7623SM  H18U10039   6.781   4.274   8.488 -1.4408 -0.8134 -0.8972
   7623SM   C1F10040   6.819   4.171  10.051 -0.5156  0.4871 -0.8540
   7623SM    OF10041   6.781   4.277  10.098  0.3432 -0.7015  0.2871
   7623SM   C2F10042   6.738   4.046  10.016  0.8407  0.2294  0.3187
   7623SM   H2F10043   6.776   3.954  10.066  1.1134 -0.7283 -1.5751
   7623SM   H2G10044   6.739   4.040   9.905  0.5165 -1.2409  0.3710
   7623SM   C3F10045   6.593   4.075  10.051  0.1107 -0.1959  0.0518
   7623SM   H3F10046   6.563   4.175  10.015 -0.9139 -0.2603  0.6835
   7623SM   H3G10047   6.589   4.066  10.162  0.8179 -0.0501  0.0900
   7623SM   C4F10048   6.483   3.980  10.001 -0.0010 -0.2720 -0.1181
   7623SM   H4F10049   6.394   3.997  10.066  2.1526  2.4578  2.3862
   7623SM   H4G10050   6.499   3.872  10.020  0.5720 -0.6545 -2.5115
   7623SM   C5F10051   6.437   4.009   9.856 -0.5906 -0.1929  0.2758
   7623SM   H5F10052   6.527   3.994   9.794 -2.5593 -1.8746 -2.4270
   7623SM   H5G10053   6.412   4.117   9.851 -0.6735 -0.2398 -0.5160
   7623SM   C6F10054   6.317   3.925   9.805  0.2021 -0.6357 -0.1847
   7623SM   H6F10055   6.228   3.958   9.862 -0.2841  1.4774 -2.0485
   7623SM   H6G10056   6.340   3.825   9.848  0.3907 -0.1346  0.9198
   7623SM   C7F10057   6.298   3.928   9.652  0.4461  0.0676  0.4653
   7623SM   H7F10058   6.395   3.948   9.602  0.9075 -2.3101  0.3019
   7623SM   H7G10059   6.239   4.022   9.642 -0.1801 -0.3357  0.3029
   7623SM   C8F10060   6.217   3.813   9.599  0.1622 -0.4441 -0.3553
   7623SM   H8F10061   6.137   3.793   9.673  2.2213 -1.6233  1.6986
   7623SM   H8G10062   6.279   3.722   9.617  0.1511 -0.3072  0.4471
   7623SM   C9F10063   6.196   3.826   9.448 -0.1118 -0.3173 -0.1751
   7623SM   H9F10064   6.094   3.867   9.434  0.3265  0.2007 -2.1469
   7623SM   H9G10065   6.207   3.726   9.402 -0.7440 -0.4327 -0.0881
   7623SM  C10F10066   6.290   3.919   9.375  0.3139 -0.4960 -0.0861
   7623SM  H10F10067   6.396   3.891   9.392  0.8221  1.0319 -0.5881
   7623SM  H10G10068   6.267   4.024   9.400 -2.9087 -1.5132  1.9975
   7623SM  C11F10069   6.280   3.899   9.223  0.3873 -0.1388  0.5239
   7623SM  H11F10070   6.176   3.923   9.192  1.5010 -0.5340 -4.2704
   7623SM  H11G10071   6.288   3.792   9.196 -0.7140 -0.1895  0.3667
   7623SM  C12F10072   6.368   3.981   9.128 -0.2573  0.0510 -0.9017
   7623SM  H12F10073   6.473   3.945   9.134 -0.2496  0.1117 -0.6750
   7623SM  H12G10074   6.364   4.091   9.144  0.2081 -0.1245  0.6528
   7623SM  C13F10075   6.318   3.976   8.987  0.4336 -0.1646  1.0451
   7623SM  H13F10076   6.216   4.016   8.968 -0.5759 -3.1424 -0.3401
   7623SM  H13G10077   6.313   3.870   8.955  1.9506  0.5549 -2.0055
   7623SM  C14F10078   6.420   4.038   8.896 -0.2008 -0.1208 -0.2262
   7623SM  H14F10079   6.523   3.997   8.908  0.7323  1.9361 -0.7750
   7623SM  H14G10080   6.433   4.147   8.912  3.5161 -0.4157 -0.2007
   7623SM  C15F10081   6.385   4.023   8.748 -0.2127 -0.5058 -0.2629
   7623SM  H15F10082   6.383   3.917   8.716  1.9305 -1.1180  1.3497
   7623SM  H15G10083   6.459   4.085   8.693  0.0207  0.8116  1.4469
   7623SM  C16F10084   6.252   4.094   8.715 -0.6754 -0.0935  0.1214
   7623SM  H16F10085   6.261   4.190   8.771  1.1719 -0.4024  0.3995
   7623SM  H16G10086   6.169   4.038   8.764 -0.2250 -0.2752  0.6852
   7623SM  C17F10087   6.222   4.125   8.566 -0.4089 -0.5096 -0.1180
   7623SM  H17F10088   6.300   4.177   8.506  0.9402 -3.0139 -0.6996
   7623SM  H17G10089   6.129   4.185   8.565 -1.3996 -1.9836  0.5820
   7623SM  C18F10090   6.168   4.006   8.494 -0.5164  0.3997  0.4531
   7623SM  H18F10091   6.096   3.941   8.549 -1.7361 -0.3500 -1.8473
   7623SM  H18G10092   6.257   3.947   8.462  1.2250  3.5142 -0.8362
   7623SM  C19F10093   6.102   4.040   8.358 -0.6471 -0.1338 -0.7567
   7623SM  H19F10094   6.149   4.133   8.320  0.1547 -0.4185 -0.4759
   7623SM  H19G10095   5.996   4.075   8.360 -0.6083 -0.0441 -0.2097
   7623SM  C20F10096   6.102   3.908   8.277 -0.0584 -0.0555  0.9034
   7623SM  H20F10097   6.207   3.873   8.270  1.0538  3.1623 -0.4361
   7623SM  H20G10098   6.083   3.945   8.173  2.4291 -1.9027 -0.3208
   7623SM  C21F10099   6.005   3.797   8.320 -0.1928 -0.0945 -0.4437
   7623SM  H21F10100   5.900   3.830   8.331 -0.0931  0.0731  0.0137
   7623SM  H21G10101   6.036   3.765   8.422  1.3345  1.6899 -0.2986
   7623SM  C22F10102   5.997   3.676   8.223  0.0073 -0.2218 -0.2911
   7623SM  H22F10103   6.081   3.676   8.150  0.0189  1.5687 -0.3292
   7623SM  H22G10104   5.902   3.685   8.166  0.1231  1.4854 -0.2765
   7623SM  C23F10105   6.000   3.542   8.301 -0.1574 -0.2879  0.6026
   7623SM  H23F10106   5.934   3.542   8.390  0.4023 -1.1145  1.0266
   7623SM  H23G10107   6.106   3.531   8.334  0.9555 -1.1526 -2.8801
   7623SM  H23H10108   5.980   3.454   8.237  1.5898 -1.1393  1.1597
   7723SM     N10109   6.245   7.123  10.560 -0.4055 -0.3753 -0.1187
   7723SM   C1510110   6.335   7.021  10.615  0.0379 -0.3424  0.3747
   7723SM  H15A10111   6.298   6.988  10.711 -0.2367  1.1097  0.7923
   7723SM  H15B10112   6.434   7.057  10.639 -0.1110  0.6110 -0.4128
   7723SM  H15C10113   6.348   6.933  10.554 -2.4850 -0.3076 -0.2953
   7723SM   C1410114   6.108   7.067  10.564 -0.3508 -0.4804  0.3908
   7723SM  H14A10115   6.096   6.991  10.488 -0.2093  1.3881 -1.5987
   7723SM  H14B10116   6.035   7.140  10.532 -0.7849 -0.8641  0.5007
   7723SM  H14C10117   6.069   7.027  10.656 -3.9277 -0.7535 -1.0843
   7723SM   C1310118   6.243   7.249  10.646 -0.3359 -0.2582 -0.1114
   7723SM  H13A10119   6.179   7.232  10.731 -1.7141  0.6399 -0.9316
   7723SM  H13B10120   6.195   7.328  10.589 -0.6907 -0.1993  0.2669
   7723SM  H13C10121   6.346   7.271  10.672  0.0465 -2.0293 -0.0394
   7723SM   C1210122   6.285   7.159  10.423  0.1121  0.5043  0.0283
   7723SM  H12A10123   6.303   7.070  10.365 -1.9981 -0.8293  1.2657
   7723SM  H12B10124   6.381   7.208  10.424 -0.3847  1.4953  0.7533
   7723SM   C1110125   6.201   7.253  10.331  0.2861  0.0335 -0.0799
   7723SM  H11A10126   6.262   7.270  10.240 -1.7085  0.9459 -1.3070
   7723SM  H11B10127   6.185   7.355  10.373  0.4310  1.1943 -2.6713
   7723SM     P10128   6.060   7.084  10.192 -0.0941 -0.0520 -0.0332
   7723SM   O1310129   6.187   7.073  10.113  0.2309 -0.4067 -0.0633
   7723SM   O1410130   6.007   6.962  10.252  0.2462 -0.6186  0.3037
   7723SM   O1110131   5.951   7.145  10.086 -0.0316  0.0178 -0.1739
   7723SM   O1210132   6.075   7.195  10.302 -0.2554 -0.5093 -0.2108
   7723SM   C1S10133   6.010   7.222   9.987  0.1704  0.5074 -0.5421
   7723SM   H1S10134   6.059   7.160   9.909  0.0494 -0.8367  0.4151
   7723SM   H1T10135   6.084   7.297  10.020 -0.4427  1.3772 -1.0948
   7723SM    NF10136   5.964   7.353   9.787  0.3156  0.0290 -0.1977
   7723SM   HNF10137   5.980   7.451   9.789 -0.6745  0.2065 -0.5306
   7723SM   C2S10138   5.907   7.300   9.910  1.0334 -0.5337  0.5759
   7723SM   H2S10139   5.831   7.224   9.879  1.2853 -0.0816 -1.3048
   7723SM   C3S10140   5.835   7.411  10.003  0.2347 -0.4466 -0.4407
   7723SM   H3S10141   5.904   7.492  10.034  0.4719 -0.7401 -0.2097
   7723SM    O310142   5.789   7.367  10.135  0.7772 -0.0420 -0.1480
   7723SM   HO310143   5.798   7.272  10.130 -1.2092 -0.2150 -1.4891
   7723SM   C4S10144   5.724   7.472   9.922  0.1549  0.2843  0.4986
   7723SM   H4S10145   5.752   7.558   9.859  0.3371  0.6931  1.1330
   7723SM   C5S10146   5.598   7.428   9.910 -0.0098  0.5515  0.4943
   7723SM   H5S10147   5.572   7.335   9.964  2.0673  0.7895  1.9988
   7723SM   C6S10148   5.484   7.488   9.828  0.6084  0.7250  0.6029
   7723SM   H6S10149   5.517   7.586   9.787  0.5111  0.0233 -1.2686
   7723SM   H6T10150   5.394   7.514   9.888 -0.1194  1.2649 -0.6678
   7723SM   C7S10151   5.436   7.398   9.714  0.3039  0.5545  0.1978
   7723SM   H7S10152   5.338   7.432   9.675  0.3286 -0.4717 -0.8054
   7723SM   H7T10153   5.442   7.292   9.747 -0.1996  0.4052 -0.1909
   7723SM   C8S10154   5.533   7.396   9.593  0.3629  0.4322 -0.0523
   7723SM   H8S10155   5.497   7.313   9.528 -1.4901  0.0980  1.3374
   7723SM   H8T10156   5.639   7.379   9.622 -0.1948 -5.7705 -0.3179
   7723SM   C9S10157   5.514   7.508   9.495 -0.1767 -0.0825  0.0911
   7723SM   H9S10158   5.577   7.592   9.534 -2.6499  0.9299  2.2039
   7723SM   H9T10159   5.409   7.543   9.501  0.4383  1.6541  3.1556
   7723SM  C10S10160   5.548   7.466   9.351 -0.0040 -0.5513  0.2678
   7723SM  H10S10161   5.462   7.406   9.313  0.1789 -1.0305  0.6008
   7723SM  H10T10162   5.631   7.393   9.340  1.4481  1.2827 -2.2820
   7723SM  C11S10163   5.589   7.580   9.257 -0.0339 -0.2677  0.0946
   7723SM  H11S10164   5.691   7.615   9.281  0.3582 -1.1296 -0.2641
   7723SM  H11T10165   5.524   7.670   9.268  0.2824  0.1629 -1.2425
   7723SM  C12S10166   5.589   7.538   9.105 -0.2089 -0.8067  0.2516
   7723SM  H12S10167   5.487   7.546   9.060  0.2428  0.7523 -0.5442
   7723SM  H12T10168   5.629   7.436   9.087 -1.0566 -1.0960 -0.0716
   7723SM  C13S10169   5.665   7.628   9.009 -0.0601  0.0040  0.1005
   7723SM  H13S10170   5.760   7.660   9.056  0.6511  0.3502 -1.5288
   7723SM  H13T10171   5.609   7.722   8.987  2.0687  1.3936  0.3692
   7723SM  C14S10172   5.709   7.570   8.878 -0.3163 -0.2918 -0.6176
   7723SM  H14S10173   5.742   7.465   8.892 -0.7597 -0.2812  0.7215
   7723SM  H14T10174   5.793   7.635   8.844  1.4626 -2.6222 -0.9257
   7723SM  C15S10175   5.612   7.578   8.757  0.3039 -0.0303 -0.9181
   7723SM  H15S10176   5.601   7.683   8.724  1.1829  0.9516  1.6591
   7723SM  H15T10177   5.510   7.555   8.795  1.4386 -0.6038  2.0119
   7723SM  C16S10178   5.652   7.489   8.640 -0.2341  0.1206 -0.2091
   7723SM  H16S10179   5.661   7.389   8.687 -0.9603  0.4961  0.7448
   7723SM  H16T10180   5.750   7.519   8.598 -0.0621 -0.7645 -0.4766
   7723SM  C17S10181   5.563   7.485   8.511  0.4670  0.2213  1.0298
   7723SM  H17S10182   5.563   7.580   8.454 -0.6507 -1.2602 -1.6090
   7723SM  H17T10183   5.456   7.472   8.540 -0.1169  0.2227 -1.0004
   7723SM  C18S10184   5.601   7.368   8.420  0.2200 -0.1240 -0.3844
   7723SM  H18S10185   5.526   7.348   8.340  0.7307  1.6549 -1.3498
   7723SM  H18T10186   5.622   7.276   8.478  1.3121 -0.2329 -0.9252
   7723SM  H18U10187   5.695   7.389   8.365 -0.1468 -0.3678 -1.1213
   7723SM   C1F10188   5.981   7.287   9.680 -0.0941  0.5163 -0.3304
   7723SM    OF10189   5.947   7.164   9.678  0.8135 -0.0147 -0.2104
   7723SM   C2F10190   6.024   7.364   9.549 -0.2608 -0.1241 -0.2961
   7723SM   H2F10191   6.133   7.342   9.556 -0.3641 -0.2160  1.6870
   7723SM   H2G10192   6.007   7.474   9.559 -0.2228  0.2661 -3.4827
   7723SM   C3F10193   5.965   7.308   9.424  0.4815  0.1964 -0.1292
   7723SM   H3F10194   5.856   7.332   9.421  0.8583  2.0531 -1.4515
   7723SM   H3G10195   5.979   7.198   9.428 -0.3041  0.1185  1.1495
   7723SM   C4F10196   6.019   7.372   9.296 -0.0979 -0.0887  0.4658
   7723SM   H4F10197   6.130   7.377   9.292 -0.1100  1.4570  1.3030
   7723SM   H4G10198   5.991   7.479   9.281 -0.2677 -0.2160 -0.1787
   7723SM   C5F10199   5.974   7.284   9.175  0.1467  0.2841 -0.2039
   7723SM   H5F10200   5.864   7.274   9.184  0.1590 -0.4233 -0.7022
   7723SM   H5G10201   6.022   7.184   9.180  0.7197  0.5466 -0.2788
   7723SM   C6F10202   5.993   7.348   9.031  0.2360  0.2695 -0.3756
   7723SM   H6F10203   6.097   7.386   9.019  0.0519  0.7600 -0.4761
   7723SM   H6G10204   5.947   7.447   9.013 -0.8368  0.2123  1.7703
   7723SM   C7F10205   5.952   7.264   8.905 -0.4492 -0.2018  0.0910
   7723SM   H7F10206   5.842   7.269   8.889 -0.5656 -1.2165  0.5199
   7723SM   H7G10207   5.983   7.161   8.930 -0.6032  0.0550  1.4486
   7723SM   C8F10208   6.020   7.317   8.771 -0.1411  0.2597 -0.4663
   7723SM   H8F10209   6.127   7.341   8.790 -0.0941  0.7944 -1.3629
   7723SM   H8G10210   5.964   7.410   8.746  1.5953  1.4682  0.0046
   7723SM   C9F10211   6.010   7.210   8.657 -0.1378 -0.0846 -0.0031
   7723SM   H9F10212   5.905   7.172   8.656 -0.6335  1.1427 -2.8059
   7723SM   H9G10213   6.069   7.119   8.680 -1.0485 -0.3963  1.2176
   7723SM  C10F10214   6.031   7.270   8.516 -0.3817  0.1194 -0.0286
   7723SM  H10F10215   5.971   7.364   8.508 -0.8139 -0.2344 -1.2558
   7723SM  H10G10216   5.983   7.199   8.445 -0.0598 -2.8691  2.5587
   7723SM  C11F10217   6.175   7.309   8.484 -0.3537  0.1454 -0.3197
   7723SM  H11F10218   6.242   7.224   8.459  0.6488  1.2238 -1.4931
   7723SM  H11G10219   6.210   7.363   8.574 -1.7106 -0.0494  0.3504
   7723SM  C12F10220   6.181   7.399   8.361  0.5011 -0.4214 -0.1377
   7723SM  H12F10221   6.264   7.473   8.366  0.7390 -0.7654  1.4180
   7723SM  H12G10222   6.088   7.460   8.357 -0.5455 -1.9496 -0.2699
   7723SM  C13F10223   6.195   7.320   8.230 -0.2146 -0.3232  0.2808
   7723SM  H13F10224   6.120   7.238   8.226  0.1219 -0.7394  1.7670
   7723SM  H13G10225   6.292   7.266   8.240 -0.5320 -1.1228 -0.7970
   7723SM  C14F10226   6.186   7.419   8.113  0.1808  0.3182 -0.0764
   7723SM  H14F10227   6.258   7.503   8.122  1.3577 -0.8692  2.4261
   7723SM  H14G10228   6.081   7.453   8.112  0.3564  0.9299  1.0046
   7723SM  C15F10229   6.212   7.366   7.974 -0.3073  0.3352 -1.0284
   7723SM  H15F10230   6.167   7.437   7.902 -2.2948  1.1227  0.9087
   7723SM  H15G10231   6.167   7.265   7.963  1.7489 -1.1545  2.4576
   7723SM  C16F10232   6.366   7.364   7.934 -0.5950  0.4525 -0.1081
   7723SM  H16F10233   6.421   7.287   7.992 -0.8124  1.2508  1.2104
   7723SM  H16G10234   6.419   7.449   7.981  0.6983 -1.4819  2.1470
   7723SM  C17F10235   6.374   7.342   7.785 -0.7321 -1.2386  0.3874
   7723SM  H17F10236   6.325   7.424   7.727 -2.0654 -1.6444  0.8952
   7723SM  H17G10237   6.317   7.249   7.765  0.4558 -1.6795 -1.0847
   7723SM  C18F10238   6.519   7.325   7.729 -0.3661 -0.1992 -0.8296
   7723SM  H18F10239   6.563   7.252   7.800  1.7332  1.6766 -0.1072
   7723SM  H18G10240   6.569   7.424   7.725 -2.1026  0.7091 -1.8765
   7723SM  C19F10241   6.516   7.275   7.586 -0.2815 -0.3029 -0.6662
   7723SM  H19F10242   6.474   7.354   7.520 -0.2783  1.2999  1.1852
   7723SM  H19G10243   6.449   7.186   7.579  2.1922 -2.4887  1.2779
   7723SM  C20F10244   6.654   7.239   7.542 -0.0776  0.0328  0.5061
   7723SM  H20F10245   6.684   7.142   7.589  1.2463  0.1233 -0.1129
   7723SM  H20G10246   6.729   7.317   7.566 -0.6071 -0.2086  3.2689
   7723SM  C21F10247   6.655   7.223   7.388  0.2363  0.1029 -0.6395
   7723SM  H21F10248   6.606   7.313   7.345 -1.5050 -1.0485 -1.2061
   7723SM  H21G10249   6.602   7.137   7.341  3.7255 -3.2983  1.0803
   7723SM  C22F10250   6.791   7.208   7.323  0.2502  0.0934  0.1391
   7723SM  H22F10251   6.832   7.108   7.345 -1.2119 -0.9740 -1.6298
   7723SM  H22G10252   6.857   7.269   7.388  0.9150  1.0222 -1.3392
   7723SM  C23F10253   6.784   7.226   7.173  0.1338  0.1531  0.4324
   7723SM  H23F10254   6.883   7.264   7.140  0.0935 -0.7057 -0.7379
   7723SM  H23G10255   6.709   7.303   7.143 -1.0940  0.1711  3.2327
   7723SM  H23H10256   6.755   7.131   7.123 -3.2325  1.0506  0.4130
   7823SM     N10257   7.676   6.498  10.442 -0.1752 -0.0823 -0.0431
   7823SM   C1510258   7.721   6.440  10.571 -0.2308  0.4049 -0.3584
   7823SM  H15A10259   7.757   6.340  10.553 -1.2519 -0.0084 -0.1908
   7823SM  H15B10260   7.642   6.450  10.644  0.4758 -2.7801  1.0456
   7823SM  H15C10261   7.808   6.498  10.597 -1.1262  2.4056 -1.6682
   7823SM   C1410262   7.578   6.402  10.378 -0.1100 -0.3450 -0.0840
   7823SM  H14A10263   7.571   6.427  10.273 -2.4961  0.9071  0.3160
   7823SM  H14B10264   7.481   6.405  10.425 -0.4931  0.6653 -0.8888
   7823SM  H14C10265   7.608   6.302  10.405  0.1158 -0.0778  0.6759
   7823SM   C1310266   7.601   6.620  10.474  0.6076 -0.2651 -0.7620
   7823SM  H13A10267   7.541   6.654  10.391 -1.2411  0.7425  0.8812
   7823SM  H13B10268   7.663   6.704  10.502  1.2382 -1.0837  0.3940
   7823SM  H13C10269   7.539   6.598  10.560 -0.3068  0.0850 -1.3129
   7823SM   C1210270   7.800   6.515  10.353  0.3197 -0.0832  0.2904
   7823SM  H12A10271   7.767   6.583  10.276  0.3468 -2.0940 -1.5686
   7823SM  H12B10272   7.817   6.422  10.302  1.5349  1.5609 -2.5350
   7823SM   C1110273   7.922   6.575  10.416  0.4558  0.3013  0.3430
   7823SM  H11A10274   8.008   6.580  10.347  0.2624 -1.1596 -0.0222
   7823SM  H11B10275   7.955   6.506  10.496 -0.2414 -0.6398 -0.1686
   7823SM     P10276   7.909   6.834  10.378 -0.0174 -0.1588 -0.1448
   7823SM   O1310277   7.783   6.911  10.379 -0.2827  0.4114 -0.2295
   7823SM   O1410278   8.036   6.905  10.416  0.2261 -0.2578 -0.4155
   7823SM   O1110279   7.933   6.781  10.234 -0.4914 -0.1443  0.7541
   7823SM   O1210280   7.892   6.707  10.468  0.0952 -0.1722  0.8092
   7823SM   C1S10281   7.893   6.864  10.123 -0.0576 -0.3033 -0.1551
   7823SM   H1S10282   7.931   6.967  10.141 -2.2272  0.2250  1.9680
   7823SM   H1T10283   7.783   6.872  10.112 -0.3800 -0.4340  2.2732
   7823SM    NF10284   7.902   6.906   9.883 -0.0139 -0.4944  0.5451
   7823SM   HNF10285   7.811   6.889   9.845  0.3503 -3.2364  0.7321
   7823SM   C2S10286   7.944   6.809   9.983 -0.1159 -0.1976 -0.0447
   7823SM   H2S10287   8.055   6.806   9.985 -0.0611  0.6091 -1.2480
   7823SM   C3S10288   7.895   6.663   9.958  0.8108 -0.3879  0.1893
   7823SM   H3S10289   7.787   6.668   9.930  0.1928 -0.1391  2.4157
   7823SM    O310290   7.902   6.574  10.067 -0.1415  0.4468 -0.3364
   7823SM   HO310291   7.949   6.629  10.130 -0.7633  0.1935  0.3545
   7823SM   C4S10292   7.962   6.610   9.837  0.2471  0.6504  0.2913
   7823SM   H4S10293   7.918   6.644   9.742 -0.2467 -1.3497 -0.2537
   7823SM   C5S10294   8.073   6.527   9.826 -0.0790  0.0135  0.2921
   7823SM   H5S10295   8.128   6.502   9.919  2.3271  1.1563 -0.7429
   7823SM   C6S10296   8.138   6.484   9.696 -0.6617  0.3284 -0.1147
   7823SM   H6S10297   8.153   6.374   9.693 -0.5401  0.3577 -2.5443
   7823SM   H6T10298   8.237   6.533   9.706 -1.0640  0.7522  2.8716
   7823SM   C7S10299   8.076   6.512   9.560 -0.0577 -0.4793  0.7363
   7823SM   H7S10300   8.086   6.621   9.540  0.9008 -0.6929 -0.0050
   7823SM   H7T10301   7.967   6.489   9.562 -0.2545 -0.1165 -1.7646
   7823SM   C8S10302   8.154   6.436   9.448  0.5663  0.6427 -0.5362
   7823SM   H8S10303   8.227   6.373   9.504 -0.7017 -0.4291 -0.0435
   7823SM   H8T10304   8.211   6.505   9.382  2.0258 -0.2820 -0.3020
   7823SM   C9S10305   8.068   6.330   9.378 -0.7982 -0.0729  0.0289
   7823SM   H9S10306   7.973   6.380   9.347 -0.5570  0.3745  0.0068
   7823SM   H9T10307   8.060   6.242   9.446 -1.3705  1.1679  1.6410
   7823SM  C10S10308   8.127   6.271   9.242  0.2512 -0.2483 -0.8198
   7823SM  H10S10309   8.161   6.352   9.175  1.4453 -0.1903 -0.1610
   7823SM  H10T10310   8.052   6.205   9.193  0.1679 -1.9149  1.3901
   7823SM  C11S10311   8.242   6.178   9.265 -0.0728  0.0755 -0.0330
   7823SM  H11S10312   8.208   6.106   9.343  1.4523 -0.3407  0.2765
   7823SM  H11T10313   8.325   6.235   9.312  0.1221 -1.3147  1.4018
   7823SM  C12S10314   8.280   6.099   9.144 -0.2427 -0.3141  0.4719
   7823SM  H12S10315   8.302   6.170   9.061  1.0825 -1.8054 -0.5278
   7823SM  H12T10316   8.194   6.035   9.115  0.5126 -1.8090  1.4391
   7823SM  C13S10317   8.396   6.004   9.167  0.2178  0.0178  0.3033
   7823SM  H13S10318   8.486   6.064   9.188  0.6441 -1.1449  1.9842
   7823SM  H13T10319   8.405   5.938   9.078 -3.2379 -0.6318  0.2654
   7823SM  C14S10320   8.380   5.912   9.290 -0.4537  1.0132  0.3766
   7823SM  H14S10321   8.280   5.863   9.288  0.2011 -0.4161  1.2296
   7823SM  H14T10322   8.365   5.980   9.377 -2.1745  0.3239  0.6686
   7823SM  C15S10323   8.498   5.829   9.327 -0.3055 -0.5585 -1.0834
   7823SM  H15S10324   8.497   5.825   9.438  0.3823  0.0799 -1.0467
   7823SM  H15T10325   8.592   5.880   9.299 -1.0507  1.5487 -0.0064
   7823SM  C16S10326   8.501   5.690   9.260  0.2137  0.2968 -0.3755
   7823SM  H16S10327   8.595   5.642   9.292  0.7053  1.2211 -0.3931
   7823SM  H16T10328   8.505   5.724   9.154 -1.0840  0.2338 -0.4696
   7823SM  C17S10329   8.380   5.603   9.284  0.2105 -0.3066  0.5860
   7823SM  H17S10330   8.404   5.498   9.257 -0.8006 -0.8050  1.5304
   7823SM  H17T10331   8.294   5.635   9.222 -0.8903  0.4093  2.3800
   7823SM  C18S10332   8.322   5.613   9.423 -0.6572 -0.1787 -0.2905
   7823SM  H18S10333   8.282   5.716   9.437  1.8031  0.9955 -1.3594
   7823SM  H18T10334   8.404   5.595   9.496 -1.1502 -1.3306  0.0052
   7823SM  H18U10335   8.246   5.533   9.434  0.0879 -1.0212 -1.1335
   7823SM   C1F10336   7.965   7.028   9.876 -0.4676 -0.1351  0.2412
   7823SM    OF10337   8.059   7.058   9.952 -0.1637  0.3550 -0.2578
   7823SM   C2F10338   7.897   7.130   9.790 -0.3041 -0.3635 -0.2069
   7823SM   H2F10339   7.883   7.221   9.853  1.0121  1.0078 -1.7826
   7823SM   H2G10340   7.800   7.085   9.760 -0.7979  0.3918  0.2245
   7823SM   C3F10341   7.987   7.160   9.668 -0.2331 -0.3401  0.3454
   7823SM   H3F10342   8.091   7.175   9.705  0.1871 -0.4820 -0.7425
   7823SM   H3G10343   7.955   7.259   9.629  1.1423  0.1115  0.2916
   7823SM   C4F10344   7.982   7.055   9.556  0.6279  0.6434  0.0982
   7823SM   H4F10345   7.996   6.951   9.595  0.0269  0.8113  0.7837
   7823SM   H4G10346   8.054   7.082   9.476 -0.6613 -1.3211 -1.8861
   7823SM   C5F10347   7.841   7.036   9.490 -0.3578 -0.3234  0.4228
   7823SM   H5F10348   7.797   7.138   9.484 -0.4254 -0.2023  2.2782
   7823SM   H5G10349   7.780   6.975   9.560  0.7223 -0.8916  0.8921
   7823SM   C6F10350   7.847   6.963   9.353 -0.4460 -0.1088 -0.8377
   7823SM   H6F10351   7.933   7.007   9.299 -1.7583  1.9760 -1.3436
   7823SM   H6G10352   7.762   6.994   9.289 -2.2299 -2.7180  0.0569
   7823SM   C7F10353   7.856   6.810   9.354 -0.0825 -0.6540  0.2663
   7823SM   H7F10354   7.761   6.781   9.404  0.3621 -0.4680  1.2453
   7823SM   H7G10355   7.937   6.768   9.417  3.3030  1.9807 -2.0080
   7823SM   C8F10356   7.860   6.741   9.213 -0.6672 -0.9205 -0.3051
   7823SM   H8F10357   7.965   6.724   9.179 -0.3661  0.8972 -0.3991
   7823SM   H8G10358   7.822   6.816   9.140 -1.1443  0.4469  1.2781
   7823SM   C9F10359   7.777   6.620   9.217  0.3014  0.3404  0.0300
   7823SM   H9F10360   7.673   6.654   9.238 -0.8045 -1.5286 -1.9862
   7823SM   H9G10361   7.808   6.549   9.297 -1.6003 -2.0438 -1.2269
   7823SM  C10F10362   7.777   6.551   9.077 -0.2428 -0.2133  0.1051
   7823SM  H10F10363   7.742   6.637   9.016 -0.6326  0.8935  1.8122
   7823SM  H10G10364   7.699   6.475   9.057  1.0890 -1.0091 -2.6568
   7823SM  C11F10365   7.912   6.483   9.036  0.2606  0.8876 -0.2600
   7823SM  H11F10366   7.946   6.420   9.122 -1.9114  1.3894  1.0328
   7823SM  H11G10367   8.000   6.551   9.024  0.5347  1.1569  2.4682
   7823SM  C12F10368   7.909   6.393   8.916 -0.0186  0.4816  0.9098
   7823SM  H12F10369   7.879   6.451   8.826 -2.0701 -1.9334 -0.0845
   7823SM  H12G10370   7.821   6.325   8.929  0.5381 -0.4565 -0.0660
   7823SM  C13F10371   8.033   6.314   8.881 -0.0779 -0.0966 -0.1775
   7823SM  H13F10372   8.038   6.223   8.945  0.6345 -0.3884 -0.6360
   7823SM  H13G10373   8.128   6.367   8.902  0.9482 -1.1679 -1.8397
   7823SM  C14F10374   8.045   6.255   8.738 -0.0089  0.6002  0.5364
   7823SM  H14F10375   8.139   6.201   8.711 -0.4561  0.2662 -0.3821
   7823SM  H14G10376   8.042   6.334   8.661 -1.9467 -0.7186 -0.8194
   7823SM  C15F10377   7.931   6.151   8.712 -0.7271  0.1572  0.2620
   7823SM  H15F10378   7.840   6.207   8.743 -0.8496  0.2690 -0.2874
   7823SM  H15G10379   7.951   6.070   8.785  1.0650 -0.3666 -0.7370
   7823SM  C16F10380   7.918   6.107   8.568 -0.6310  0.4287  0.3160
   7823SM  H16F10381   7.893   6.191   8.500 -2.3592 -0.6661 -0.4685
   7823SM  H16G10382   7.834   6.037   8.549 -0.4200  0.2669 -0.0312
   7823SM  C17F10383   8.043   6.027   8.523 -0.3943 -0.0716  0.5581
   7823SM  H17F10384   8.054   5.947   8.600 -3.4469 -1.0801  0.0498
   7823SM  H17G10385   8.125   6.103   8.522  0.5876 -1.1174 -0.2369
   7823SM  C18F10386   8.053   5.964   8.375 -0.3048 -0.3220 -0.0960
   7823SM  H18F10387   8.040   6.053   8.310 -1.1597  0.2820  0.8827
   7823SM  H18G10388   7.968   5.893   8.365 -1.6535  1.2196  0.1299
   7823SM  C19F10389   8.187   5.899   8.371 -0.5678  0.6272 -0.2379
   7823SM  H19F10390   8.191   5.830   8.458 -3.9688  2.5100  1.6016
   7823SM  H19G10391   8.264   5.977   8.387  0.4610 -0.3169 -0.4124
   7823SM  C20F10392   8.221   5.833   8.239  0.7412 -0.1570  0.0371
   7823SM  H20F10393   8.214   5.912   8.162  0.5845  0.0660  0.2804
   7823SM  H20G10394   8.145   5.754   8.220  1.8062 -1.3893  0.7117
   7823SM  C21F10395   8.361   5.761   8.231 -0.2347 -0.5804  0.4083
   7823SM  H21F10396   8.439   5.833   8.262 -0.9081 -0.1243  1.0703
   7823SM  H21G10397   8.365   5.736   8.123 -1.8501  0.6109  0.0339
   7823SM  C22F10398   8.358   5.632   8.310 -0.0238  0.1115 -0.1048
   7823SM  H22F10399   8.273   5.570   8.274 -0.9566  1.1876  0.1966
   7823SM  H22G10400   8.344   5.652   8.418 -1.7738 -0.6278 -0.1642
   7823SM  C23F10401   8.485   5.542   8.301  0.5914  0.0869  0.6371
   7823SM  H23F10402   8.469   5.450   8.360 -0.3005  0.7137  1.4093
   7823SM  H23G10403   8.575   5.596   8.338 -0.4576  2.1771  0.3119
   7823SM  H23H10404   8.501   5.504   8.198  3.5717  0.6237  0.8222
   7923SM     N10405   5.310   6.576  10.152  0.7780 -0.7912  0.3481
   7923SM   C1510406   5.186   6.603  10.231  0.2171  0.3280 -0.2046
   7923SM  H15A10407   5.151   6.510  10.275  1.3646 -0.6787 -1.3488
   7923SM  H15B10408   5.098   6.639  10.181  0.4679 -1.4338 -2.0366
   7923SM  H15C10409   5.208   6.674  10.309  0.2185 -0.0202  0.1167
   7923SM   C1410410   5.415   6.679  10.188 -0.0005 -0.4541 -0.3531
   7923SM  H14A10411   5.491   6.672  10.112 -0.6393 -1.0437 -0.9508
   7923SM  H14B10412   5.458   6.665  10.287 -2.6206  1.4382  1.1838
   7923SM  H14C10413   5.371   6.777  10.176  3.7461  1.2730 -1.4405
   7923SM   C1310414   5.365   6.449  10.184 -0.4353  0.9828  0.3745
   7923SM  H13A10415   5.300   6.369  10.150  0.8371  0.0277  0.0914
   7923SM  H13B10416   5.398   6.444  10.286 -0.5595 -0.6027  0.3571
   7923SM  H13C10417   5.456   6.434  10.127  0.0157 -0.5097  1.4427
   7923SM   C1210418   5.278   6.595  10.004  0.0298 -0.8836  0.1831
   7923SM  H12A10419   5.240   6.695   9.986 -1.0617 -1.2440  0.3963
   7923SM  H12B10420   5.199   6.524   9.981 -1.2549  0.6015 -0.1530
   7923SM   C1110421   5.387   6.550   9.893 -0.4165 -0.2734 -0.2308
   7923SM  H11A10422   5.339   6.573   9.795 -1.0941  1.4674  0.4757
   7923SM  H11B10423   5.396   6.439   9.890 -0.4000 -0.2954  0.4551
   7923SM     P10424   5.645   6.529   9.915  0.2057  0.6735  0.3950
   7923SM   O1310425   5.764   6.603   9.884 -0.0107 -0.6194  0.5144
   7923SM   O1410426   5.641   6.491  10.058  0.1750  0.5209  0.1669
   7923SM   O1110427   5.635   6.400   9.825  0.0692  0.0870 -0.5286
   7923SM   O1210428   5.515   6.618   9.886  0.0271  0.5895 -0.1510
   7923SM   C1S10429   5.588   6.403   9.685  0.1576  0.4202  1.2860
   7923SM   H1S10430   5.596   6.505   9.642  0.1693 -0.3105 -0.5226
   7923SM   H1T10431   5.484   6.366   9.680  1.5741 -4.0149  0.9313
   7923SM    NF10432   5.652   6.339   9.443  0.0177 -0.3062 -0.0015
   7923SM   HNF10433   5.587   6.278   9.399  2.5087 -1.6500 -2.0918
   7923SM   C2S10434   5.681   6.317   9.586 -0.2373 -0.4222  0.3617
   7923SM   H2S10435   5.786   6.344   9.608 -0.4564  0.3479  0.4748
   7923SM   C3S10436   5.659   6.170   9.631  0.3315 -0.8147  0.1287
   7923SM   H3S10437   5.550   6.154   9.614  0.6270 -2.5788 -0.2884
   7923SM    O310438   5.685   6.146   9.771  0.3612 -0.4070 -0.0362
   7923SM   HO310439   5.678   6.235   9.806  2.2075  0.8536 -2.6081
   7923SM   C4S10440   5.726   6.065   9.537  0.2334  0.2742  0.2416
   7923SM   H4S10441   5.652   6.040   9.460 -1.4280  1.4040  1.3949
   7923SM   C5S10442   5.855   6.015   9.525  0.4532 -0.1693  0.0421
   7923SM   H5S10443   5.934   6.061   9.586  0.9562 -0.5821 -0.2971
   7923SM   C6S10444   5.902   5.923   9.421 -0.5639 -1.2352  0.1920
   7923SM   H6S10445   6.012   5.932   9.406 -0.5521 -1.8738 -0.1459
   7923SM   H6T10446   5.853   5.950   9.325  0.3627 -1.7798 -0.4579
   7923SM   C7S10447   5.857   5.781   9.446  0.1767 -0.5731 -0.1030
   7923SM   H7S10448   5.750   5.767   9.420  0.6135 -2.7430 -1.0443
   7923SM   H7T10449   5.878   5.757   9.552  0.8365 -1.3813 -0.3946
   7923SM   C8S10450   5.935   5.679   9.360 -0.0391 -0.5841 -0.5589
   7923SM   H8S10451   5.897   5.579   9.391  0.3484 -0.5098  0.1943
   7923SM   H8T10452   6.042   5.683   9.388 -0.7436  0.7957  2.3523
   7923SM   C9S10453   5.915   5.702   9.209 -0.2973  0.1605  0.3746
   7923SM   H9S10454   5.971   5.793   9.179  4.2977 -2.2546  0.8234
   7923SM   H9T10455   5.811   5.710   9.171  0.4267  1.2673 -1.5506
   7923SM  C10S10456   5.979   5.589   9.129 -0.0899  0.1509  0.0866
   7923SM  H10S10457   5.942   5.487   9.153 -3.0193  0.7819 -1.2875
   7923SM  H10T10458   6.088   5.594   9.152 -0.3395  1.1933  1.0618
   7923SM  C11S10459   5.966   5.590   8.976 -0.0875 -0.2566  0.8624
   7923SM  H11S10460   5.983   5.695   8.942 -0.5766 -0.6768 -0.7604
   7923SM  H11T10461   5.861   5.571   8.946 -1.2241  3.8652  1.5544
   7923SM  C12S10462   6.057   5.492   8.899  0.5646  0.4047  0.9167
   7923SM  H12S10463   6.040   5.386   8.928 -2.3940  0.7359  0.7469
   7923SM  H12T10464   6.161   5.528   8.916  0.8766 -1.0155  2.2342
   7923SM  C13S10465   6.027   5.502   8.747  0.0021 -0.7518  0.0584
   7923SM  H13S10466   6.059   5.601   8.709 -0.8019 -1.0363 -1.4466
   7923SM  H13T10467   5.917   5.501   8.732  0.1437  0.1328 -1.1500
   7923SM  C14S10468   6.106   5.399   8.657 -1.0637 -0.6716 -0.6395
   7923SM  H14S10469   6.058   5.303   8.686  0.6137 -1.1985  0.5628
   7923SM  H14T10470   6.211   5.390   8.693 -0.6204  0.8772 -1.4326
   7923SM  C15S10471   6.105   5.423   8.511  0.0630  0.4512 -0.9930
   7923SM  H15S10472   6.145   5.331   8.464 -0.3258  0.3398 -1.1019
   7923SM  H15T10473   6.172   5.509   8.492 -0.1275  1.0503  0.8394
   7923SM  C16S10474   5.962   5.465   8.456 -0.5583 -0.3177  0.0355
   7923SM  H16S10475   5.977   5.498   8.351  2.0749  1.8004  0.9453
   7923SM  H16T10476   5.919   5.557   8.501  0.5000  1.0043 -1.5278
   7923SM  C17S10477   5.852   5.352   8.478 -0.6287 -0.3552 -0.9834
   7923SM  H17S10478   5.863   5.304   8.578  1.3826 -0.6932 -1.3287
   7923SM  H17T10479   5.885   5.272   8.409 -2.1517 -1.5244 -0.4295
   7923SM  C18S10480   5.707   5.398   8.444 -0.0676  0.4320 -0.4765
   7923SM  H18S10481   5.695   5.508   8.449  0.1599  0.4746 -0.8432
   7923SM  H18T10482   5.640   5.335   8.507 -0.5602 -1.3359 -2.6325
   7923SM  H18U10483   5.695   5.377   8.336 -0.5250 -1.2472 -0.1232
   7923SM   C1F10484   5.676   6.460   9.384  0.2518 -0.2695 -0.4872
   7923SM    OF10485   5.752   6.542   9.434 -0.3541 -0.0822  0.0236
   7923SM   C2F10486   5.605   6.495   9.262 -0.5206  0.0142 -0.3734
   7923SM   H2F10487   5.514   6.544   9.304  0.2536 -0.3910  1.8817
   7923SM   H2G10488   5.569   6.408   9.203  0.1449 -0.5863  0.0956
   7923SM   C3F10489   5.682   6.598   9.176 -0.5132 -0.4657  0.0007
   7923SM   H3F10490   5.694   6.691   9.235 -0.5452 -1.9970  2.5620
   7923SM   H3G10491   5.623   6.611   9.082 -0.2051  0.4279 -0.0782
   7923SM   C4F10492   5.822   6.550   9.137 -0.1995  0.8548  0.2700
   7923SM   H4F10493   5.795   6.449   9.097 -0.9989  1.1849 -0.0477
   7923SM   H4G10494   5.887   6.534   9.225 -0.1207  1.4920  0.3250
   7923SM   C5F10495   5.904   6.632   9.029  0.5935 -0.1996  0.2277
   7923SM   H5F10496   6.008   6.598   9.014 -0.0638 -1.0450 -3.2576
   7923SM   H5G10497   5.895   6.741   9.048  0.2332  0.1760 -1.8553
   7923SM   C6F10498   5.846   6.621   8.886 -0.4989  0.5773  0.0944
   7923SM   H6F10499   5.742   6.658   8.879 -0.2142  1.1702 -1.3412
   7923SM   H6G10500   5.864   6.520   8.844 -1.2512  1.1236 -1.6360
   7923SM   C7F10501   5.916   6.710   8.790  0.2585 -0.7149  0.4570
   7923SM   H7F10502   6.018   6.677   8.760 -0.0170 -0.7470 -0.4775
   7923SM   H7G10503   5.934   6.813   8.826  0.2913 -1.0477  1.4323
   7923SM   C8F10504   5.828   6.737   8.666  0.3669  0.7273 -0.5394
   7923SM   H8F10505   5.737   6.791   8.700  0.6351  1.5581 -1.0933
   7923SM   H8G10506   5.797   6.637   8.631 -1.4668  1.2960 -0.6416
   7923SM   C9F10507   5.876   6.834   8.562  0.0349 -0.2395  0.1182
   7923SM   H9F10508   5.979   6.808   8.530 -0.0780  0.3701 -0.7738
   7923SM   H9G10509   5.877   6.932   8.614 -1.0234  0.0163 -0.3113
   7923SM  C10F10510   5.786   6.839   8.442  0.2845  0.0737 -0.8126
   7923SM  H10F10511   5.681   6.868   8.463  0.4754 -0.0050  0.2809
   7923SM  H10G10512   5.784   6.744   8.384  2.1487 -0.5686  0.1143
   7923SM  C11F10513   5.840   6.936   8.343  0.3755 -0.5328 -0.2263
   7923SM  H11F10514   5.948   6.912   8.327  0.3656 -0.2200 -0.7807
   7923SM  H11G10515   5.828   7.041   8.375  1.7400  0.7238 -3.3508
   7923SM  C12F10516   5.766   6.914   8.213 -0.3289  0.4579 -0.2788
   7923SM  H12F10517   5.660   6.924   8.244 -0.1251 -0.1099  0.6520
   7923SM  H12G10518   5.779   6.812   8.171  0.5053  1.7954 -3.5982
   7923SM  C13F10519   5.794   7.018   8.112  0.0177 -0.1567  0.2128
   7923SM  H13F10520   5.806   7.115   8.165  0.5048  0.2104 -0.5456
   7923SM  H13G10521   5.703   7.025   8.049 -1.5301  0.2097  2.3463
   7923SM  C14F10522   5.918   6.994   8.023  0.6877 -0.3382 -0.1830
   7923SM  H14F10523   5.998   6.995   8.100  0.3804  1.9260  0.1818
   7923SM  H14G10524   5.930   7.072   7.945  0.0640 -0.8329 -0.7857
   7923SM  C15F10525   5.917   6.855   7.953  0.3973  0.0268  0.3440
   7923SM  H15F10526   5.820   6.844   7.900 -0.4159  1.3579  1.4888
   7923SM  H15G10527   5.933   6.763   8.012  1.0289 -1.1443 -1.5426
   7923SM  C16F10528   6.026   6.840   7.844 -0.4861  0.2843  0.1354
   7923SM  H16F10529   6.012   6.757   7.772  0.5099  1.3935 -1.4113
   7923SM  H16G10530   6.119   6.804   7.893 -0.3050 -0.6258 -0.8592
   7923SM  C17F10531   6.056   6.959   7.751 -0.0513 -0.1282 -0.5291
   7923SM  H17F10532   6.134   7.012   7.809 -0.4538 -0.6930  0.5531
   7923SM  H17G10533   5.969   7.025   7.729  0.5577  0.1915 -2.1699
   7923SM  C18F10534   6.112   6.918   7.621 -0.0885 -0.5191  0.0422
   7923SM  H18F10535   6.030   6.872   7.561 -0.1099  1.7753 -1.8117
   7923SM  H18G10536   6.203   6.855   7.632  0.6239  0.2504 -1.3079
   7923SM  C19F10537   6.141   7.041   7.533  0.3228  0.4760 -0.5438
   7923SM  H19F10538   6.224   7.100   7.577 -0.0519  0.7642 -0.2148
   7923SM  H19G10539   6.053   7.108   7.532  0.4401  0.9400  3.5826
   7923SM  C20F10540   6.189   7.005   7.398 -0.6585 -0.0747 -0.2648
   7923SM  H20F10541   6.130   6.922   7.353 -1.3483  1.5273 -2.5324
   7923SM  H20G10542   6.286   6.954   7.418 -1.5555 -2.7025 -2.0214
   7923SM  C21F10543   6.210   7.125   7.304 -0.0474  0.1327  0.2004
   7923SM  H21F10544   6.240   7.215   7.362  0.6476  1.7502 -2.4901
   7923SM  H21G10545   6.115   7.155   7.256 -0.6609  1.5066  2.1545
   7923SM  C22F10546   6.311   7.086   7.193  0.6029  0.5036 -0.5983
   7923SM  H22F10547   6.392   7.028   7.241 -0.6940 -0.0945  0.9687
   7923SM  H22G10548   6.344   7.176   7.137 -2.3695  1.7022 -0.5998
   7923SM  C23F10549   6.243   6.985   7.095  0.4434 -0.0857 -0.6281
   7923SM  H23F10550   6.199   6.898   7.147 -0.9768  2.4476  2.7821
   7923SM  H23G10551   6.320   6.953   7.021 -0.0576 -2.0451 -0.3457
   7923SM  H23H10552   6.164   7.045   7.045  0.6394  0.9902  0.3039
   8023SM     N10553   0.365   7.440  10.346 -0.2287  0.4194 -0.3684
   8023SM   C1510554   0.284   7.565  10.365  0.2534  0.6564 -0.4892
   8023SM  H15A10555   0.251   7.587  10.465  0.7164  0.1455 -0.2201
   8023SM  H15B10556   0.199   7.559  10.298 -0.8626 -0.2419  0.9581
   8023SM  H15C10557   0.325   7.651  10.314 -2.4310  0.5141 -3.2025
   8023SM   C1410558   0.511   7.459  10.369 -0.4229 -0.7048 -0.5610
   8023SM  H14A10559   0.551   7.546  10.318 -0.9291  0.3809  0.8158
   8023SM  H14B10560   0.562   7.369  10.338  1.5524  0.7253 -1.7105
   8023SM  H14C10561   0.529   7.479  10.474 -0.3125  1.4184 -0.9339
   8023SM   C1310562   0.328   7.329  10.447  0.7950  0.3016  0.2568
   8023SM  H13A10563   0.296   7.376  10.539  0.4881  0.8611 -0.1238
   8023SM  H13B10564   0.416   7.270  10.467  2.2278  2.1600 -0.2000
   8023SM  H13C10565   0.245   7.269  10.415  2.0575 -0.8698 -0.9520
   8023SM   C1210566   0.349   7.379  10.206  0.5387 -0.1693  0.1690
   8023SM  H12A10567   0.392   7.284  10.232  0.1530  0.2101  2.4931
   8023SM  H12B10568   0.412   7.428  10.134  0.0618  0.8897  0.4378
   8023SM   C1110569   0.207   7.351  10.154  0.1663  0.0207 -0.0079
   8023SM  H11A10570   0.148   7.292  10.228  0.3582 -0.4242 -0.2070
   8023SM  H11B10571   0.219   7.300  10.056  1.2063  0.1459  0.0459
   8023SM     P10572   0.007   7.485  10.069 -0.1463  0.0423 -0.1390
   8023SM   O1310573  -0.089   7.393  10.133  0.0378  0.2687  0.4016
   8023SM   O1410574  -0.029   7.626  10.063 -0.2126  0.5382  0.2641
   8023SM   O1110575   0.041   7.439   9.923  0.5458  0.1802  0.0797
   8023SM   O1210576   0.147   7.476  10.131  0.2840 -0.0902  0.2269
   8023SM   C1S10577   0.100   7.520   9.818 -0.4022  0.1698  0.3015
   8023SM   H1S10578   0.211   7.521   9.821 -0.3205 -0.2044 -1.3758
   8023SM   H1T10579   0.063   7.625   9.825 -2.5678 -0.5044 -0.2683
   8023SM    NF10580   0.110   7.556   9.571 -0.5396 -0.1402  0.0624
   8023SM   HNF10581   0.045   7.620   9.529 -1.1131 -1.5817 -1.3917
   8023SM   C2S10582   0.046   7.479   9.677 -0.4902 -0.5700  0.2660
   8023SM   H2S10583   0.073   7.374   9.654  0.0942 -1.0123  2.6495
   8023SM   C3S10584  -0.110   7.484   9.667  0.2308 -0.1252 -0.0102
   8023SM   H3S10585  -0.127   7.591   9.690 -0.3411 -0.5801  1.8109
   8023SM    O310586  -0.187   7.424   9.777 -0.4263 -0.3069 -0.1597
   8023SM   HO310587  -0.122   7.422   9.848 -1.8489  2.7719  1.4733
   8023SM   C4S10588  -0.178   7.463   9.532 -0.5860 -0.0306 -0.5891
   8023SM   H4S10589  -0.183   7.552   9.467  0.7621 -0.0214 -0.6995
   8023SM   C5S10590  -0.214   7.346   9.482  0.5327  0.1749 -0.3419
   8023SM   H5S10591  -0.204   7.255   9.543  2.3293  0.2241 -0.5041
   8023SM   C6S10592  -0.268   7.333   9.342  0.4414 -0.2380 -0.1584
   8023SM   H6S10593  -0.372   7.373   9.341 -0.4446 -2.3758 -1.5675
   8023SM   H6T10594  -0.285   7.231   9.300 -0.6913  0.6031 -1.8604
   8023SM   C7S10595  -0.186   7.408   9.232 -0.1237  0.6364 -0.1613
   8023SM   H7S10596  -0.080   7.378   9.244 -0.4957  0.1747  2.7901
   8023SM   H7T10597  -0.196   7.517   9.250 -0.5569  0.1036  3.5328
   8023SM   C8S10598  -0.238   7.384   9.090 -0.8879 -0.5994 -0.4301
   8023SM   H8S10599  -0.347   7.401   9.104 -0.6352  0.0833  0.9306
   8023SM   H8T10600  -0.212   7.280   9.063  0.0236 -1.0389  1.8803
   8023SM   C9S10601  -0.190   7.475   8.975  0.5351 -0.5144 -0.9619
   8023SM   H9S10602  -0.234   7.574   8.997  1.1820 -0.8710  2.4683
   8023SM   H9T10603  -0.219   7.446   8.871 -0.4395 -1.2473 -0.5047
   8023SM  C10S10604  -0.043   7.495   8.989  0.2508 -0.3544  0.4866
   8023SM  H10S10605   0.017   7.402   8.992 -1.9196 -1.7940  2.2771
   8023SM  H10T10606  -0.029   7.550   9.085 -1.3176 -0.4187  0.7769
   8023SM  C11S10607   0.024   7.562   8.866  0.4621 -0.3681  0.4141
   8023SM  H11S10608  -0.027   7.658   8.845  1.1146  0.0050  0.5045
   8023SM  H11T10609  -0.004   7.505   8.774  0.0695  1.5714 -0.7378
   8023SM  C12S10610   0.179   7.564   8.870 -0.0011 -0.0305 -0.5604
   8023SM  H12S10611   0.222   7.510   8.957  0.5478  3.0785  1.2525
   8023SM  H12T10612   0.200   7.673   8.879 -0.9783  0.0537  1.0181
   8023SM  C13S10613   0.252   7.506   8.746 -0.1575 -0.6501 -0.1126
   8023SM  H13S10614   0.229   7.398   8.734 -1.3261 -0.3697 -0.6461
   8023SM  H13T10615   0.362   7.505   8.762 -0.3948  1.0359  2.2018
   8023SM  C14S10616   0.225   7.576   8.615  0.6394  0.4724 -0.2128
   8023SM  H14S10617   0.121   7.560   8.579  1.3654 -0.9607 -1.8116
   8023SM  H14T10618   0.285   7.523   8.538  2.4815  0.6437  1.0401
   8023SM  C15S10619   0.248   7.730   8.609  0.1168  0.7016 -0.4294
   8023SM  H15S10620   0.171   7.787   8.666  0.3959 -1.1393  1.9580
   8023SM  H15T10621   0.242   7.756   8.501 -0.1165 -3.2638 -1.5115
   8023SM  C16S10622   0.387   7.768   8.667 -0.2155 -0.2402  0.3850
   8023SM  H16S10623   0.380   7.764   8.778  0.3507 -3.8395  0.3951
   8023SM  H16T10624   0.399   7.878   8.657 -0.7937 -0.3181 -1.4183
   8023SM  C17S10625   0.501   7.693   8.590 -0.3655  0.4345  0.6782
   8023SM  H17S10626   0.465   7.669   8.488 -2.0881 -4.7045  2.1645
   8023SM  H17T10627   0.512   7.588   8.625 -1.1064  0.4536  0.9896
   8023SM  C18S10628   0.636   7.764   8.598  0.3583 -0.4443  0.6341
   8023SM  H18S10629   0.684   7.728   8.692 -1.1581 -2.5354  0.6804
   8023SM  H18T10630   0.627   7.875   8.592  2.6188 -0.2644 -0.8068
   8023SM  H18U10631   0.711   7.732   8.522  0.2598  1.1460 -0.1697
   8023SM   C1F10632   0.237   7.546   9.540 -0.3717  0.3091  0.0532
   8023SM    OF10633   0.317   7.487   9.611 -0.1319 -0.2827  0.5581
   8023SM   C2F10634   0.279   7.628   9.416 -0.4261 -0.3758  0.1207
   8023SM   H2F10635   0.269   7.736   9.441 -1.2076 -0.7934  1.6661
   8023SM   H2G10636   0.203   7.608   9.337 -0.6309 -0.1279  0.2546
   8023SM   C3F10637   0.421   7.612   9.375 -0.0992  0.0728  0.4256
   8023SM   H3F10638   0.494   7.633   9.456  1.9282  0.4647 -1.4033
   8023SM   H3G10639   0.431   7.680   9.288 -2.8469 -1.0514 -0.9090
   8023SM   C4F10640   0.457   7.470   9.322  0.3942  0.0286 -0.3951
   8023SM   H4F10641   0.453   7.402   9.410  4.4579  1.0609  0.8208
   8023SM   H4G10642   0.565   7.472   9.296  0.9514 -3.2858  1.1073
   8023SM   C5F10643   0.365   7.424   9.205 -0.7562 -0.3838 -0.7513
   8023SM   H5F10644   0.385   7.490   9.117 -2.8726 -3.3860 -3.7500
   8023SM   H5G10645   0.258   7.437   9.231 -0.6367  2.5234 -1.3415
   8023SM   C6F10646   0.400   7.282   9.168 -0.0426  0.2160  0.0367
   8023SM   H6F10647   0.375   7.207   9.247 -1.4342 -2.5467 -2.7851
   8023SM   H6G10648   0.509   7.273   9.150 -0.0102 -0.4881  0.5338
   8023SM   C7F10649   0.328   7.225   9.039  0.0861 -0.2394 -0.0552
   8023SM   H7F10650   0.343   7.303   8.961  0.6099  0.0852  0.3604
   8023SM   H7G10651   0.219   7.237   9.055  0.3335  0.2171  1.5044
   8023SM   C8F10652   0.361   7.079   9.001  0.0839 -0.3023 -1.3755
   8023SM   H8F10653   0.324   7.018   9.086 -1.4031  0.2494 -1.6061
   8023SM   H8G10654   0.472   7.066   9.005  0.4877  2.4738 -1.2573
   8023SM   C9F10655   0.294   7.034   8.871 -0.2392 -0.3745 -0.2017
   8023SM   H9F10656   0.338   7.098   8.792  1.1839 -0.3616  0.5810
   8023SM   H9G10657   0.185   7.059   8.869 -0.0369  0.6116 -2.7533
   8023SM  C10F10658   0.312   6.878   8.846  0.2400 -0.1711 -0.1162
   8023SM  H10F10659   0.269   6.828   8.936  3.5050  0.3357  1.8971
   8023SM  H10G10660   0.419   6.850   8.851  0.7408  1.7214  0.8891
   8023SM  C11F10661   0.237   6.830   8.718  0.1559 -0.6163  0.2144
   8023SM  H11F10662   0.311   6.835   8.635 -0.5866  0.6175 -0.4017
   8023SM  H11G10663   0.170   6.914   8.689  0.0265 -0.4753  0.9210
   8023SM  C12F10664   0.177   6.692   8.715  0.3386 -0.8670 -0.4966
   8023SM  H12F10665   0.117   6.677   8.808  0.9231  1.0084  0.2260
   8023SM  H12G10666   0.266   6.626   8.712  0.0684 -1.3664  1.1620
   8023SM  C13F10667   0.084   6.675   8.594 -0.1670  0.1815  0.1630
   8023SM  H13F10668   0.121   6.732   8.506  0.3928  1.2441  1.0607
   8023SM  H13G10669  -0.009   6.724   8.632 -0.6187 -0.2303 -0.3902
   8023SM  C14F10670   0.057   6.528   8.563 -0.1111 -0.1779  0.4318
   8023SM  H14F10671   0.016   6.489   8.658 -1.3932 -1.9434 -0.7884
   8023SM  H14G10672   0.152   6.478   8.534 -1.2651 -3.3119  1.6618
   8023SM  C15F10673  -0.042   6.499   8.448 -0.3837 -0.1950  0.1522
   8023SM  H15F10674   0.021   6.519   8.359  1.0927  0.9245  1.3745
   8023SM  H15G10675  -0.133   6.563   8.452  0.9750  1.9631 -1.2256
   8023SM  C16F10676  -0.098   6.351   8.452 -0.4365  0.4335 -0.0881
   8023SM  H16F10677  -0.011   6.284   8.432 -1.0956 -0.3478 -0.3896
   8023SM  H16G10678  -0.178   6.336   8.376 -0.7910 -2.1019  0.6823
   8023SM  C17F10679  -0.157   6.307   8.588  0.0787 -1.0073 -0.1536
   8023SM  H17F10680  -0.183   6.401   8.641 -1.0429 -1.7210  0.6058
   8023SM  H17G10681  -0.081   6.262   8.655  1.2090 -1.1117 -1.4579
   8023SM  C18F10682  -0.274   6.206   8.574  0.6154  0.0762 -0.3636
   8023SM  H18F10683  -0.356   6.256   8.518  0.6861 -1.1465 -1.6171
   8023SM  H18G10684  -0.314   6.182   8.675 -0.2187  2.8034  0.0263
   8023SM  C19F10685  -0.224   6.073   8.519 -0.1864  0.1318 -0.0071
   8023SM  H19F10686  -0.144   6.039   8.589  1.9638  2.6889 -1.0670
   8023SM  H19G10687  -0.172   6.082   8.422  0.9771 -2.0467  0.3529
   8023SM  C20F10688  -0.330   5.969   8.509  0.2552  0.2429  0.4011
   8023SM  H20F10689  -0.417   6.013   8.455  0.6815 -1.6288 -1.9758
   8023SM  H20G10690  -0.360   5.934   8.610  2.1395 -0.3326  0.7934
   8023SM  C21F10691  -0.294   5.841   8.423  0.7908  0.3306  0.7865
   8023SM  H21F10692  -0.220   5.780   8.480 -0.7723 -1.6488  0.8209
   8023SM  H21G10693  -0.246   5.876   8.329 -0.8054 -0.0870 -0.2228
   8023SM  C22F10694  -0.411   5.751   8.395  0.2119 -0.2081 -0.1815
   8023SM  H22F10695  -0.381   5.692   8.306  1.6160 -0.1168  0.1955
   8023SM  H22G10696  -0.502   5.802   8.357 -0.7725 -1.6490  0.1837
   8023SM  C23F10697  -0.443   5.656   8.514  0.6045  0.0509  0.6312
   8023SM  H23F10698  -0.533   5.598   8.485  1.3825 -1.2251  0.6906
   8023SM  H23G10699  -0.462   5.717   8.605  0.5393 -0.8357  1.2325
   8023SM  H23H10700  -0.355   5.591   8.536  1.3134  1.2751  1.5401
   8123SM     N10701   3.618   2.702   6.173  0.2526  0.0395 -0.0026
   8123SM   C1510702   3.622   2.677   6.321 -0.1536  0.6496  0.7693
   8123SM  H15A10703   3.638   2.572   6.340 -0.4974  0.0161 -1.9420
   8123SM  H15B10704   3.535   2.713   6.374 -1.4396  0.0853 -0.8755
   8123SM  H15C10705   3.705   2.728   6.366 -1.1340  3.1013 -0.0451
   8123SM   C1410706   3.547   2.831   6.156  0.5041 -0.5105  0.4671
   8123SM  H14A10707   3.540   2.843   6.049  2.2431  1.5105  0.5109
   8123SM  H14B10708   3.600   2.919   6.189 -1.7881  0.7390  1.0664
   8123SM  H14C10709   3.450   2.832   6.203  0.7320 -1.5091  1.0019
   8123SM   C1310710   3.762   2.712   6.130 -0.1429 -0.6774  0.1627
   8123SM  H13A10711   3.812   2.786   6.190 -1.1507 -1.5819  2.2231
   8123SM  H13B10712   3.769   2.733   6.024 -0.4495  1.5526  0.5360
   8123SM  H13C10713   3.816   2.619   6.142  1.2199  0.0939  0.1903
   8123SM   C1210714   3.538   2.584   6.099 -1.2758  0.0475  0.5139
   8123SM  H12A10715   3.581   2.485   6.112 -0.4694  0.5289  1.6821
   8123SM  H12B10716   3.547   2.600   5.993 -0.6645  1.8930  0.8185
   8123SM   C1110717   3.385   2.563   6.128 -0.5365 -1.0755 -0.3716
   8123SM  H11A10718   3.373   2.539   6.236  0.8296 -0.5005 -0.0816
   8123SM  H11B10719   3.360   2.467   6.077 -0.4742 -2.1849  1.5750
   8123SM     P10720   3.168   2.720   6.125  0.0090 -0.3765 -0.0517
   8123SM   O1310721   3.155   2.866   6.100  0.6721  0.0168  0.0927
   8123SM   O1410722   3.061   2.628   6.075 -0.5096 -0.3080  0.5760
   8123SM   O1110723   3.182   2.688   6.279 -0.6059  0.2270  0.4433
   8123SM   O1210724   3.307   2.677   6.073 -0.5042  0.0792  0.0909
   8123SM   C1S10725   3.083   2.710   6.372  0.3278  0.2505  0.4909
   8123SM   H1S10726   2.997   2.644   6.350 -1.2444  2.4860 -0.3791
   8123SM   H1T10727   3.046   2.814   6.369 -0.3872 -0.0006  0.5066
   8123SM    NF10728   3.019   2.674   6.605  0.1759 -0.4377 -0.9611
   8123SM   HNF10729   2.995   2.755   6.659  0.4376  0.0507 -1.5638
   8123SM   C2S10730   3.135   2.689   6.521 -0.1989 -0.1465  0.0970
   8123SM   H2S10731   3.184   2.590   6.520  0.6643  0.2636 -1.4772
   8123SM   C3S10732   3.240   2.795   6.549  0.4809  0.3550 -0.2190
   8123SM   H3S10733   3.188   2.893   6.552  1.0236  0.6654 -0.7445
   8123SM    O310734   3.331   2.802   6.445  0.0443 -0.0459  0.2916
   8123SM   HO310735   3.309   2.731   6.384  0.0261 -0.3069  0.5955
   8123SM   C4S10736   3.317   2.777   6.673  0.4663  0.0057 -0.4437
   8123SM   H4S10737   3.398   2.704   6.678  1.0612  0.6739 -0.1831
   8123SM   C5S10738   3.303   2.861   6.779  0.6179  0.7009 -0.2461
   8123SM   H5S10739   3.224   2.937   6.784 -0.4949 -0.4880  1.4618
   8123SM   C6S10740   3.366   2.841   6.917 -0.3881 -0.1903  0.6676
   8123SM   H6S10741   3.335   2.919   6.991  1.5330  1.0452  0.2436
   8123SM   H6T10742   3.477   2.845   6.916 -0.3961  0.8706  1.5674
   8123SM   C7S10743   3.327   2.705   6.984  0.2193 -0.1309 -0.1581
   8123SM   H7S10744   3.369   2.622   6.922  3.0479  1.0350  0.0443
   8123SM   H7T10745   3.217   2.694   6.995  0.1227  0.6863 -0.1908
   8123SM   C8S10746   3.381   2.672   7.124 -0.2510  0.6237 -0.4872
   8123SM   H8S10747   3.491   2.687   7.123 -0.2861  0.9397 -0.0252
   8123SM   H8T10748   3.361   2.567   7.154  0.8929  0.8006  1.0063
   8123SM   C9S10749   3.322   2.769   7.231  0.6542 -0.1851 -0.2667
   8123SM   H9S10750   3.214   2.777   7.209  0.0635 -1.5242  1.8639
   8123SM   H9T10751   3.368   2.868   7.208  2.3896 -1.2166 -1.4685
   8123SM  C10S10752   3.366   2.728   7.371 -0.5626  0.6170 -0.7743
   8123SM  H10S10753   3.475   2.707   7.373 -0.3677  1.4833 -1.5237
   8123SM  H10T10754   3.308   2.636   7.392  0.7558 -0.3035 -1.0166
   8123SM  C11S10755   3.329   2.829   7.478  0.3409  0.3809 -0.7295
   8123SM  H11S10756   3.231   2.875   7.452  1.0030  1.1283 -2.0217
   8123SM  H11T10757   3.402   2.912   7.467  0.3216  0.3720 -0.9282
   8123SM  C12S10758   3.344   2.773   7.620 -0.1634 -0.3725  0.4807
   8123SM  H12S10759   3.445   2.729   7.635 -0.3511 -0.7688  0.5966
   8123SM  H12T10760   3.282   2.682   7.633  0.7378 -0.9770  0.6405
   8123SM  C13S10761   3.317   2.868   7.740 -0.2736  0.3146  0.6500
   8123SM  H13S10762   3.219   2.919   7.727 -0.6977 -0.8548 -1.1972
   8123SM  H13T10763   3.400   2.940   7.756  1.7945 -2.1119  1.4954
   8123SM  C14S10764   3.308   2.797   7.882 -0.4230  0.1278  0.0310
   8123SM  H14S10765   3.231   2.720   7.861  0.8164 -0.5076 -2.7192
   8123SM  H14T10766   3.269   2.880   7.944  2.5368  1.4588  0.3181
   8123SM  C15S10767   3.445   2.738   7.930 -0.2498 -1.0438 -0.0559
   8123SM  H15S10768   3.488   2.677   7.848 -0.3887  1.3932 -2.0518
   8123SM  H15T10769   3.425   2.674   8.019 -1.1642  0.3462  0.7643
   8123SM  C16S10770   3.552   2.842   7.973 -0.5768  0.2553  0.1623
   8123SM  H16S10771   3.521   2.886   8.071  0.7014  1.3562  0.0984
   8123SM  H16T10772   3.561   2.922   7.897  0.6643 -0.3151 -0.3179
   8123SM  C17S10773   3.694   2.779   7.977  0.2045  0.5463  0.2470
   8123SM  H17S10774   3.771   2.860   7.982  0.0150  0.8047 -0.8404
   8123SM  H17T10775   3.718   2.725   7.883  2.3630  0.9763  0.4846
   8123SM  C18S10776   3.722   2.684   8.089 -0.5687 -0.2306 -0.2624
   8123SM  H18S10777   3.686   2.582   8.066  0.1403 -0.8648  1.2380
   8123SM  H18T10778   3.679   2.725   8.183  0.6507  0.4109  0.0478
   8123SM  H18U10779   3.833   2.683   8.094 -0.4062  2.5957 -1.2592
   8123SM   C1F10780   2.921   2.588   6.590  1.1222 -0.1937 -0.0786
   8123SM    OF10781   2.936   2.484   6.524 -0.1493 -0.8782 -0.3393
   8123SM   C2F10782   2.785   2.631   6.647  0.2097 -0.2771  0.0946
   8123SM   H2F10783   2.710   2.622   6.565 -0.6376  1.2899  0.6489
   8123SM   H2G10784   2.789   2.735   6.684 -0.9956  1.1538 -3.3916
   8123SM   C3F10785   2.740   2.528   6.758  0.8743  0.1812 -0.2917
   8123SM   H3F10786   2.822   2.506   6.830  0.5476  0.6013  0.2194
   8123SM   H3G10787   2.696   2.434   6.718 -0.6536  0.8889 -0.3418
   8123SM   C4F10788   2.615   2.590   6.821  0.4485  0.4417 -0.6619
   8123SM   H4F10789   2.538   2.595   6.741  0.6304  0.5469 -0.8338
   8123SM   H4G10790   2.643   2.691   6.858 -0.9967  0.4670  0.4373
   8123SM   C5F10791   2.570   2.506   6.947  0.3177  0.2449  0.2926
   8123SM   H5F10792   2.653   2.447   6.991 -0.0187 -1.7100 -1.4949
   8123SM   H5G10793   2.493   2.430   6.922  1.1197 -0.6648  0.5289
   8123SM   C6F10794   2.487   2.586   7.044 -0.1198  0.3005 -0.2624
   8123SM   H6F10795   2.417   2.658   6.996  1.4697  1.9132 -0.2703
   8123SM   H6G10796   2.556   2.656   7.094 -0.0467  0.0514 -0.0130
   8123SM   C7F10797   2.428   2.505   7.153  0.0433 -0.0622 -0.4233
   8123SM   H7F10798   2.482   2.414   7.186  0.6595  0.9876  1.6053
   8123SM   H7G10799   2.329   2.469   7.119 -0.3645  0.1956  0.4819
   8123SM   C8F10800   2.402   2.585   7.287 -0.5113  0.4305 -0.3944
   8123SM   H8F10801   2.338   2.514   7.344 -0.0038  0.5813  0.3680
   8123SM   H8G10802   2.357   2.683   7.260 -0.3248  1.3763  2.4041
   8123SM   C9F10803   2.536   2.602   7.369  0.2338  0.5146 -0.8077
   8123SM   H9F10804   2.624   2.637   7.311 -0.8830  1.3681 -2.0430
   8123SM   H9G10805   2.566   2.503   7.410 -1.3493  0.0376 -0.7334
   8123SM  C10F10806   2.521   2.683   7.500  0.1439 -0.5027  0.3415
   8123SM  H10F10807   2.481   2.782   7.469 -1.4884 -1.6482 -1.4320
   8123SM  H10G10808   2.623   2.707   7.536 -0.5799  3.0018  0.3504
   8123SM  C11F10809   2.449   2.627   7.619  1.0995 -0.6144 -0.3104
   8123SM  H11F10810   2.473   2.690   7.707 -3.4926 -0.4430  1.0979
   8123SM  H11G10811   2.483   2.523   7.640  3.3237  0.1224  0.0011
   8123SM  C12F10812   2.291   2.623   7.608 -0.1166  0.0686 -0.1560
   8123SM  H12F10813   2.253   2.568   7.520  0.6598 -1.4745  0.4334
   8123SM  H12G10814   2.262   2.730   7.593 -2.8115 -0.0686  2.8816
   8123SM  C13F10815   2.229   2.565   7.737 -0.0553  0.5633 -0.0938
   8123SM  H13F10816   2.285   2.612   7.821 -1.3108  0.2043  0.9778
   8123SM  H13G10817   2.251   2.457   7.745 -0.5190  0.5377  1.0528
   8123SM  C14F10818   2.077   2.593   7.750  0.2068  0.1893 -0.6738
   8123SM  H14F10819   2.021   2.541   7.670 -1.1269 -1.4510  1.2320
   8123SM  H14G10820   2.047   2.699   7.743 -3.8732 -0.7900 -0.8176
   8123SM  C15F10821   2.029   2.533   7.883  0.1941 -0.4112 -0.2017
   8123SM  H15F10822   2.099   2.550   7.967  0.9444  0.2618 -0.9502
   8123SM  H15G10823   2.022   2.424   7.865 -1.9937 -0.5359  1.0244
   8123SM  C16F10824   1.891   2.586   7.931 -0.0784 -0.1359  0.1510
   8123SM  H16F10825   1.828   2.588   7.839  0.2159  0.0917 -0.0503
   8123SM  H16G10826   1.897   2.696   7.946 -2.1971  0.5485 -2.9647
   8123SM  C17F10827   1.831   2.516   8.050  0.5923  0.3827 -0.0798
   8123SM  H17F10828   1.750   2.583   8.086  2.9139  2.3717  1.7660
   8123SM  H17G10829   1.894   2.509   8.142 -1.5308 -1.9176  1.3429
   8123SM  C18F10830   1.764   2.389   8.003 -0.7912 -0.1962  0.5670
   8123SM  H18F10831   1.836   2.335   7.938 -0.1073 -0.9300  1.8852
   8123SM  H18G10832   1.670   2.407   7.946  0.2149 -0.3087 -1.1908
   8123SM  C19F10833   1.719   2.305   8.119  0.3793  0.0503  0.0467
   8123SM  H19F10834   1.630   2.353   8.166 -0.0409  1.5608 -2.1408
   8123SM  H19G10835   1.799   2.286   8.193  0.5451  0.5388 -0.0079
   8123SM  C20F10836   1.667   2.167   8.068 -0.2293 -0.0921 -0.0811
   8123SM  H20F10837   1.740   2.127   7.994  0.6291  1.7474 -0.2736
   8123SM  H20G10838   1.566   2.185   8.026 -0.0023  1.5583  0.0443
   8123SM  C21F10839   1.653   2.056   8.179 -0.9843 -0.1769  0.2773
   8123SM  H21F10840   1.746   2.082   8.234 -2.3436  1.9082  1.7549
   8123SM  H21G10841   1.650   1.951   8.145  0.6851 -0.7287  1.7324
   8123SM  C22F10842   1.542   2.081   8.281 -0.0335 -0.3270  0.4125
   8123SM  H22F10843   1.537   2.188   8.310  0.7978 -0.4512  1.0438
   8123SM  H22G10844   1.566   2.026   8.374  1.6979  0.2745  0.3510
   8123SM  C23F10845   1.401   2.040   8.232  0.4771  0.3712  0.1193
   8123SM  H23F10846   1.324   2.054   8.311  1.3558 -1.0268  1.2647
   8123SM  H23G10847   1.409   1.931   8.216 -4.1337 -0.1596 -0.0668
   8123SM  H23H10848   1.359   2.094   8.144 -1.0821 -0.1390  0.5153
   8223SM     N10849   2.829   3.000   5.929 -0.0343 -0.1767  0.2354
   8223SM   C1510850   2.948   3.092   5.925 -0.8917 -0.7682 -0.5052
   8223SM  H15A10851   2.962   3.122   6.027  0.7055 -3.2747  0.0853
   8223SM  H15B10852   2.938   3.182   5.866  2.3048 -0.1926 -0.3429
   8223SM  H15C10853   3.039   3.042   5.897 -0.2310 -1.0038  1.8557
   8223SM   C1410854   2.704   3.075   5.942 -0.1223  0.0533  0.0614
   8223SM  H14A10855   2.694   3.089   6.049  0.9912  0.6396  0.1000
   8223SM  H14B10856   2.612   3.021   5.922 -0.8543  0.8084  1.2409
   8223SM  H14C10857   2.693   3.165   5.883  2.0933  0.8537  0.7929
   8223SM   C1310858   2.833   2.944   5.790  0.0897  0.0212 -0.2185
   8223SM  H13A10859   2.750   2.879   5.769  0.5266 -0.4049 -0.6576
   8223SM  H13B10860   2.924   2.888   5.772 -0.6806 -0.3810 -3.5406
   8223SM  H13C10861   2.823   3.019   5.713 -1.6790  0.0658  0.0148
   8223SM   C1210862   2.838   2.888   6.030  0.3636  0.8257 -0.2333
   8223SM  H12A10863   2.937   2.846   6.020  0.6339  1.4886 -0.4210
   8223SM  H12B10864   2.761   2.814   6.018  1.1277  0.3509 -2.9055
   8223SM   C1110865   2.845   2.933   6.179  0.7491  0.4290 -0.0978
   8223SM  H11A10866   2.928   3.002   6.206  0.9158  0.3200 -0.3284
   8223SM  H11B10867   2.857   2.836   6.231  0.8511  0.3921 -0.1889
   8223SM     P10868   2.667   3.019   6.355  0.7075 -0.0662  0.2422
   8223SM   O1310869   2.578   3.139   6.348 -0.2328  0.7281 -0.0967
   8223SM   O1410870   2.620   2.893   6.416 -0.4656 -0.1425 -0.0429
   8223SM   O1110871   2.794   3.058   6.437 -0.1278  0.0322 -0.6512
   8223SM   O1210872   2.716   2.986   6.208  0.3184 -0.0585  0.0546
   8223SM   C1S10873   2.780   3.053   6.578 -0.6128 -0.1192  1.0589
   8223SM   H1S10874   2.762   2.950   6.616 -0.4358 -1.5291 -2.3245
   8223SM   H1T10875   2.715   3.132   6.619 -1.7671 -0.2658 -0.4075
   8223SM    NF10876   2.904   3.085   6.787 -0.3905  0.0725  0.4749
   8223SM   HNF10877   2.870   3.173   6.819 -1.9608 -0.5093  0.5064
   8223SM   C2S10878   2.917   3.077   6.642  0.6597  0.4901 -0.5027
   8223SM   H2S10879   2.981   2.992   6.609 -0.7405 -0.5852 -0.5184
   8223SM   C3S10880   2.988   3.204   6.578 -0.0064  0.6461 -0.0374
   8223SM   H3S10881   2.920   3.291   6.589 -1.3974 -0.4167 -0.0151
   8223SM    O310882   3.011   3.179   6.439  0.4449 -0.4315 -0.3640
   8223SM   HO310883   2.942   3.119   6.410  0.2172 -0.5410  0.3600
   8223SM   C4S10884   3.121   3.237   6.644 -0.1933  0.6975 -0.4649
   8223SM   H4S10885   3.101   3.319   6.715 -2.3070  1.8865 -2.2990
   8223SM   C5S10886   3.248   3.197   6.625 -0.2283  0.4138  0.6226
   8223SM   H5S10887   3.281   3.118   6.556  0.0809  1.2626 -0.2375
   8223SM   C6S10888   3.370   3.249   6.696 -0.1982 -0.0704 -0.3963
   8223SM   H6S10889   3.436   3.313   6.633  0.6826  2.4633  2.8473
   8223SM   H6T10890   3.434   3.160   6.714 -0.2784 -0.9027 -3.5384
   8223SM   C7S10891   3.343   3.326   6.830 -0.3521  1.2579 -0.1021
   8223SM   H7S10892   3.275   3.414   6.817  2.0596  3.2127 -0.1415
   8223SM   H7T10893   3.441   3.364   6.866 -0.5965 -0.2529  2.4042
   8223SM   C8S10894   3.297   3.239   6.937  0.5027  0.1564  0.0467
   8223SM   H8S10895   3.350   3.142   6.925  1.0667  0.4495  0.1432
   8223SM   H8T10896   3.189   3.233   6.911  0.1739 -2.6541  1.6630
   8223SM   C9S10897   3.330   3.289   7.083  0.4811 -0.0709 -1.1552
   8223SM   H9S10898   3.305   3.397   7.078  0.6630  0.0459  0.0034
   8223SM   H9T10899   3.441   3.288   7.094  0.7991  1.6891 -3.5228
   8223SM  C10S10900   3.261   3.217   7.195  0.1913 -0.5950 -0.2559
   8223SM  H10S10901   3.300   3.114   7.205 -0.9347 -1.0410 -0.2964
   8223SM  H10T10902   3.153   3.210   7.172  0.2777  1.5732 -1.6615
   8223SM  C11S10903   3.306   3.289   7.327  0.2157 -0.6402  0.2860
   8223SM  H11S10904   3.276   3.394   7.305 -0.7989 -1.6118 -4.0587
   8223SM  H11T10905   3.415   3.296   7.347  0.0750  0.4967  0.7369
   8223SM  C12S10906   3.228   3.228   7.444 -0.2185 -1.1204 -0.0506
   8223SM  H12S10907   3.245   3.118   7.446  2.4846 -0.7667  1.9616
   8223SM  H12T10908   3.118   3.235   7.429 -0.0143  1.8113 -0.8730
   8223SM  C13S10909   3.244   3.305   7.568  1.0087 -0.5000  0.3985
   8223SM  H13S10910   3.149   3.343   7.611  0.8721 -2.4185  1.9028
   8223SM  H13T10911   3.305   3.396   7.546 -1.1069  0.8540 -0.1091
   8223SM  C14S10912   3.303   3.232   7.688 -0.7528  0.1638 -0.6114
   8223SM  H14S10913   3.413   3.229   7.674 -0.6194  0.6409  0.3006
   8223SM  H14T10914   3.253   3.133   7.698  1.1374 -0.6821  0.9649
   8223SM  C15S10915   3.276   3.298   7.823 -0.2892  0.5313 -0.0838
   8223SM  H15S10916   3.317   3.402   7.827 -2.3155  1.3534  0.2771
   8223SM  H15T10917   3.342   3.235   7.887 -0.7488 -1.0372 -1.1097
   8223SM  C16S10918   3.136   3.290   7.868  0.1974 -0.1928  0.0475
   8223SM  H16S10919   3.086   3.200   7.826  0.1775 -0.4140  0.5404
   8223SM  H16T10920   3.088   3.378   7.821 -0.7727 -0.2297  0.9467
   8223SM  C17S10921   3.123   3.274   8.017  0.0084  1.3010  0.0217
   8223SM  H17S10922   3.161   3.173   8.044 -2.9128  0.2612  0.7376
   8223SM  H17T10923   3.015   3.269   8.046 -0.1094  1.6594 -0.3545
   8223SM  C18S10924   3.189   3.377   8.111 -0.3067  0.1368 -0.6013
   8223SM  H18S10925   3.299   3.372   8.097 -0.3253 -2.3224 -0.2606
   8223SM  H18T10926   3.176   3.355   8.219 -0.4950 -1.5705 -0.9412
   8223SM  H18U10927   3.156   3.480   8.086 -0.8167 -0.1136 -0.9898
   8223SM   C1F10928   2.919   2.980   6.868 -0.4284 -0.2175 -0.1254
   8223SM    OF10929   2.920   2.865   6.822  0.6102  0.5125  0.0873
   8223SM   C2F10930   2.939   3.003   7.016 -0.5688 -0.0661 -0.4460
   8223SM   H2F10931   2.840   3.045   7.045  0.2943  1.3010  0.6393
   8223SM   H2G10932   3.021   3.074   7.040 -0.0444 -1.7399  3.4240
   8223SM   C3F10933   2.978   2.875   7.096  0.4803 -0.8123 -0.6078
   8223SM   H3F10934   3.078   2.847   7.054  0.9310 -0.4237  0.1973
   8223SM   H3G10935   2.906   2.792   7.076  0.7997 -1.3628  0.4819
   8223SM   C4F10936   2.980   2.909   7.249  0.2617 -0.0478  0.1819
   8223SM   H4F10937   3.036   3.002   7.273 -1.5256  0.5026  2.6536
   8223SM   H4G10938   3.030   2.819   7.289 -1.3180 -0.4956  1.2154
   8223SM   C5F10939   2.845   2.929   7.313  0.2366 -0.4811 -0.1156
   8223SM   H5F10940   2.794   2.831   7.324 -0.8366  0.0601 -0.0912
   8223SM   H5G10941   2.785   2.991   7.242  0.2469  0.8385  1.0045
   8223SM   C6F10942   2.846   2.994   7.446 -0.2668 -0.1067  0.0351
   8223SM   H6F10943   2.741   3.020   7.471 -0.9753 -0.2356 -2.5373
   8223SM   H6G10944   2.903   3.088   7.432  2.9031 -1.7335  0.9487
   8223SM   C7F10945   2.913   2.919   7.565 -0.7017 -0.4600  0.3423
   8223SM   H7F10946   3.019   2.894   7.542 -0.0354  2.1066  0.3158
   8223SM   H7G10947   2.864   2.821   7.580 -1.3268 -0.2147 -0.0781
   8223SM   C8F10948   2.912   2.998   7.697  0.1010 -0.4150 -0.2048
   8223SM   H8F10949   2.920   3.106   7.672  0.0269 -0.1808  0.7579
   8223SM   H8G10950   2.995   2.977   7.768 -1.0392  1.0764  1.6731
   8223SM   C9F10951   2.790   2.978   7.781  0.1228  0.6047  0.4458
   8223SM   H9F10952   2.745   2.878   7.799 -2.3296  1.4791 -0.4031
   8223SM   H9G10953   2.709   3.035   7.730  0.4265  1.4478  0.8838
   8223SM  C10F10954   2.798   3.043   7.914 -0.2134 -0.1261 -0.0141
   8223SM  H10F10955   2.862   3.132   7.893 -0.9416  0.1965 -0.9443
   8223SM  H10G10956   2.854   2.971   7.979 -0.3564  0.4471  0.7500
   8223SM  C11F10957   2.661   3.089   7.961  0.0460 -0.0194  0.4302
   8223SM  H11F10958   2.599   3.003   7.992 -0.3899  0.5617  1.2135
   8223SM  H11G10959   2.621   3.157   7.883 -0.1454 -1.5220 -0.8328
   8223SM  C12F10960   2.668   3.174   8.095  0.0681 -0.2063  0.1714
   8223SM  H12F10961   2.567   3.212   8.119 -0.7533 -2.0514 -0.1716
   8223SM  H12G10962   2.742   3.255   8.077 -2.2592  1.9358 -0.3286
   8223SM  C13F10963   2.705   3.094   8.215 -0.9853  0.7794 -0.2640
   8223SM  H13F10964   2.764   3.004   8.185 -1.2452  0.5470 -0.0881
   8223SM  H13G10965   2.612   3.048   8.255  0.1305 -1.3567  0.0155
   8223SM  C14F10966   2.795   3.176   8.312  0.4018 -0.3656 -0.7048
   8223SM  H14F10967   2.884   3.212   8.257  2.9750 -2.4422  1.7497
   8223SM  H14G10968   2.835   3.105   8.389  1.0934  0.2175 -0.5134
   8223SM  C15F10969   2.720   3.296   8.383  0.3167  0.0350 -1.2876
   8223SM  H15F10970   2.649   3.255   8.458  0.4558  0.5222 -0.8834
   8223SM  H15G10971   2.679   3.358   8.301  0.2126  0.0384 -1.2323
   8223SM  C16F10972   2.824   3.390   8.460  0.4959  0.3463  0.3793
   8223SM  H16F10973   2.888   3.330   8.528 -1.2897 -0.3895  1.4898
   8223SM  H16G10974   2.755   3.463   8.508 -1.2443 -1.0223  0.0435
   8223SM  C17F10975   2.901   3.473   8.355 -0.6579  0.0996  0.4280
   8223SM  H17F10976   2.827   3.524   8.290  0.2509 -0.6021 -1.2133
   8223SM  H17G10977   2.963   3.409   8.288  1.7436  0.8721  1.7947
   8223SM  C18F10978   2.984   3.589   8.413 -0.0655  0.2637  0.2206
   8223SM  H18F10979   2.916   3.667   8.453 -0.3514 -0.9113  2.1763
   8223SM  H18G10980   3.039   3.638   8.330  1.7462 -2.2937 -0.1810
   8223SM  C19F10981   3.094   3.537   8.507  0.2572  0.1232 -0.2139
   8223SM  H19F10982   3.157   3.474   8.441 -0.3353  1.5778 -2.2770
   8223SM  H19G10983   3.049   3.480   8.591 -0.0931  2.2506  1.1252
   8223SM  C20F10984   3.178   3.654   8.558 -0.0354 -0.7350  0.0881
   8223SM  H20F10985   3.112   3.737   8.591 -0.4478 -1.2933  0.7085
   8223SM  H20G10986   3.234   3.704   8.477 -3.8556  0.3042 -2.1470
   8223SM  C21F10987   3.268   3.627   8.685  0.3567 -0.7985 -0.3195
   8223SM  H21F10988   3.369   3.598   8.649  0.6334  0.7207 -0.8636
   8223SM  H21G10989   3.223   3.535   8.729 -0.6845 -0.0760  0.1667
   8223SM  C22F10990   3.283   3.742   8.788  0.1012  0.2492 -0.3210
   8223SM  H22F10991   3.181   3.753   8.830 -0.4210 -3.0736 -0.4403
   8223SM  H22G10992   3.301   3.838   8.735 -0.4596  0.7403  0.3450
   8223SM  C23F10993   3.391   3.712   8.892 -0.0858  0.5591  0.0066
   8223SM  H23F10994   3.350   3.633   8.957 -1.9597  1.2075 -0.3269
   8223SM  H23G10995   3.408   3.799   8.959 -0.0209  0.1022  0.5952
   8223SM  H23H10996   3.477   3.668   8.836  0.6418  1.5078  0.3343
   8323SM     N10997   4.474   2.661   5.818  0.3694  0.5084  0.3693
   8323SM   C1510998   4.519   2.644   5.676  0.4454  0.3160  1.1764
   8323SM  H15A10999   4.624   2.617   5.681  0.9403  2.2397  1.7993
   8323SM  H15B11000   4.502   2.724   5.606  1.0481 -0.6121 -0.0817
   8323SM  H15C11001   4.472   2.553   5.640  1.3542 -0.7545  2.5472
   8323SM   C1411002   4.354   2.741   5.818  0.2628  0.7500  0.8614
   8323SM  H14A11003   4.371   2.840   5.779  0.7676  0.5781  0.6376
   8323SM  H14B11004   4.313   2.744   5.918 -0.2582 -1.4338  0.7653
   8323SM  H14C11005   4.275   2.698   5.758 -0.5112  2.8220  0.3042
   8323SM   C1311006   4.456   2.524   5.873 -0.1832  0.1481  0.2398
   8323SM  H13A11007   4.436   2.507   5.977 -2.6516  2.2620  0.2106
   8323SM  H13B11008   4.543   2.463   5.850  0.4010  0.4206  1.6341
   8323SM  H13C11009   4.377   2.471   5.822 -2.2036  1.5397  1.7668
   8323SM   C1211010   4.573   2.733   5.897  0.6903  0.4106  0.0096
   8323SM  H12A11011   4.618   2.814   5.843 -0.0566  1.5591  1.0535
   8323SM  H12B11012   4.660   2.671   5.915 -0.4908 -0.6463  2.6969
   8323SM   C1111013   4.532   2.773   6.040  0.7621 -0.4623  0.4107
   8323SM  H11A11014   4.604   2.752   6.121  0.7660 -0.1309  0.4957
   8323SM  H11B11015   4.439   2.716   6.059 -0.6579  1.6482  0.2300
   8323SM     P11016   4.573   3.037   6.048  0.1189  0.0302 -0.0718
   8323SM   O1311017   4.704   3.001   6.102 -0.3666 -0.4079 -0.1027
   8323SM   O1411018   4.567   3.123   5.931  0.2587  0.1779  0.2696
   8323SM   O1111019   4.484   3.098   6.165 -0.3259 -0.3589  0.1774
   8323SM   O1211020   4.482   2.909   6.030 -0.2200  0.0501  0.4876
   8323SM   C1S11021   4.478   3.012   6.284  0.1839 -0.4609  0.0720
   8323SM   H1S11022   4.580   3.002   6.326 -0.9672 -0.3433  3.1762
   8323SM   H1T11023   4.429   2.912   6.273  0.1836 -0.4230 -0.2638
   8323SM    NF11024   4.376   2.977   6.509 -0.3424 -0.0455 -0.1142
   8323SM   HNF11025   4.291   2.926   6.515  1.3848 -2.9808  2.9513
   8323SM   C2S11026   4.381   3.069   6.400  0.1193 -0.0737 -0.1012
   8323SM   H2S11027   4.434   3.162   6.430 -2.8663  1.8120 -0.2716
   8323SM   C3S11028   4.240   3.123   6.338 -0.4580  0.5988  0.6860
   8323SM   H3S11029   4.175   3.034   6.330  0.9194 -0.3283 -0.6485
   8323SM    O311030   4.242   3.175   6.209  0.3705 -0.6281 -0.1136
   8323SM   HO311031   4.327   3.139   6.182  0.1515 -2.2217  1.1554
   8323SM   C4S11032   4.176   3.215   6.432  0.2587 -0.3767  0.7779
   8323SM   H4S11033   4.094   3.181   6.496  0.1779  1.2878  1.6161
   8323SM   C5S11034   4.226   3.339   6.452  1.4304  0.2172 -0.0955
   8323SM   H5S11035   4.322   3.366   6.407  1.8757  0.1463  0.7830
   8323SM   C6S11036   4.175   3.437   6.556  0.0678  0.0053  1.0472
   8323SM   H6S11037   4.084   3.483   6.512 -0.6805 -2.8141 -0.5996
   8323SM   H6T11038   4.255   3.510   6.578  0.1692 -0.0118  0.7428
   8323SM   C7S11039   4.127   3.366   6.687 -0.5228 -0.4674 -0.0948
   8323SM   H7S11040   4.204   3.292   6.719 -1.2338 -0.8487  0.7930
   8323SM   H7T11041   4.036   3.304   6.674 -0.9794  0.4067 -1.2455
   8323SM   C8S11042   4.095   3.467   6.794 -0.4446 -0.4438 -0.2316
   8323SM   H8S11043   4.032   3.556   6.775  1.5322  1.2586  0.6948
   8323SM   H8T11044   4.197   3.507   6.813 -0.4462 -0.2400 -0.6441
   8323SM   C9S11045   4.034   3.402   6.914 -0.0063  0.0827 -0.2730
   8323SM   H9S11046   4.078   3.302   6.933 -0.5341  0.0531  0.9492
   8323SM   H9T11047   3.929   3.380   6.885 -0.5353  1.9329  0.1114
   8323SM  C10S11048   4.026   3.490   7.034 -0.1989  0.2373  0.2896
   8323SM  H10S11049   3.949   3.568   7.017  0.0795  0.3986 -0.2968
   8323SM  H10T11050   4.118   3.552   7.045 -1.2909  1.7201  1.5040
   8323SM  C11S11051   3.994   3.413   7.162 -0.3071  0.1737  0.7118
   8323SM  H11S11052   4.064   3.328   7.179  1.0006  0.9959 -0.3469
   8323SM  H11T11053   3.896   3.362   7.158  0.6837 -1.8127  0.1492
   8323SM  C12S11054   3.972   3.501   7.284 -0.1635  0.1610  0.6043
   8323SM  H12S11055   3.896   3.579   7.262 -1.0753 -1.1569 -1.0875
   8323SM  H12T11056   4.070   3.551   7.297 -0.1019 -0.1836  1.5433
   8323SM  C13S11057   3.940   3.424   7.416  0.1390 -0.1477 -1.0691
   8323SM  H13S11058   4.002   3.333   7.428  1.0928  0.3746 -1.8829
   8323SM  H13T11059   3.840   3.375   7.411 -0.3498  0.5553  0.7245
   8323SM  C14S11060   3.924   3.515   7.546  0.2537  0.5492  0.4384
   8323SM  H14S11061   3.889   3.460   7.636  3.4572 -0.8922  0.9671
   8323SM  H14T11062   3.856   3.594   7.510  0.3114 -0.5358 -2.2898
   8323SM  C15S11063   4.063   3.574   7.581  0.2231 -0.4011  0.5357
   8323SM  H15S11064   4.043   3.677   7.618 -2.4209 -1.0156  1.0185
   8323SM  H15T11065   4.133   3.585   7.496 -0.2983 -0.2931  0.1148
   8323SM  C16S11066   4.124   3.490   7.698 -0.0491 -0.3365  0.4633
   8323SM  H16S11067   4.234   3.504   7.701  0.0061 -0.5579 -0.3654
   8323SM  H16T11068   4.104   3.382   7.682  0.7565 -0.8671  2.7032
   8323SM  C17S11069   4.056   3.527   7.834  0.4243  0.1407 -0.2538
   8323SM  H17S11070   3.946   3.517   7.837  0.4370 -0.3929 -1.2447
   8323SM  H17T11071   4.078   3.636   7.833 -1.9082  0.6615  0.0926
   8323SM  C18S11072   4.117   3.454   7.946 -0.0151  0.3356 -0.0735
   8323SM  H18S11073   4.100   3.345   7.933 -0.6454  0.4679 -0.3945
   8323SM  H18T11074   4.067   3.474   8.043 -0.3785  0.7679 -0.3463
   8323SM  H18U11075   4.226   3.472   7.954 -0.2259  1.1748  1.1547
   8323SM   C1F11076   4.462   2.955   6.605  0.4268  0.1865 -0.0284
   8323SM    OF11077   4.571   3.005   6.595 -0.6640 -0.3892  0.5077
   8323SM   C2F11078   4.412   2.874   6.725 -0.0568 -0.2960 -0.2724
   8323SM   H2F11079   4.496   2.806   6.750  0.3394  0.0112 -0.7472
   8323SM   H2G11080   4.325   2.814   6.690  1.2128 -1.0291 -2.3623
   8323SM   C3F11081   4.371   2.964   6.845  0.1833  0.9021  0.2253
   8323SM   H3F11082   4.290   3.034   6.817  1.3253  1.4319 -2.0391
   8323SM   H3G11083   4.456   3.028   6.876 -0.2113  0.7554  1.6592
   8323SM   C4F11084   4.347   2.893   6.980 -0.4115  0.1799 -0.2125
   8323SM   H4F11085   4.437   2.832   7.002 -1.8199 -1.4175  1.3797
   8323SM   H4G11086   4.271   2.813   6.971  0.4793 -0.7899  0.6613
   8323SM   C5F11087   4.322   3.000   7.091  0.5436  0.4820  0.0639
   8323SM   H5F11088   4.232   3.056   7.059  1.2128  1.7807  0.3781
   8323SM   H5G11089   4.407   3.072   7.096  1.9059 -1.0968  0.8827
   8323SM   C6F11090   4.302   2.929   7.227 -0.6390 -0.4174  0.2054
   8323SM   H6F11091   4.388   2.864   7.254 -1.8160 -1.9401  0.4178
   8323SM   H6G11092   4.203   2.880   7.216 -0.9499  0.1965  0.2117
   8323SM   C7F11093   4.286   3.025   7.342  1.1351  0.2257 -0.4084
   8323SM   H7F11094   4.196   3.088   7.328  1.5715  0.4084 -2.8057
   8323SM   H7G11095   4.379   3.086   7.340  1.1417  0.2682  0.5110
   8323SM   C8F11096   4.265   2.943   7.481  0.9331  0.7452  0.0683
   8323SM   H8F11097   4.363   2.896   7.502  1.4551  0.8311 -1.9378
   8323SM   H8G11098   4.198   2.855   7.472  1.7486  0.1518 -0.2555
   8323SM   C9F11099   4.231   3.039   7.594  0.3200 -0.1680  0.6119
   8323SM   H9F11100   4.144   3.103   7.566  0.1979 -0.3950  0.4695
   8323SM   H9G11101   4.316   3.110   7.599 -0.9186  1.7468 -2.4042
   8323SM  C10F11102   4.206   2.970   7.733 -0.1972  0.0015 -0.5953
   8323SM  H10F11103   4.286   2.895   7.750  0.6096  1.0157  0.2276
   8323SM  H10G11104   4.108   2.918   7.723  0.4325 -1.0622 -1.5047
   8323SM  C11F11105   4.212   3.065   7.859 -0.2589  0.4223  0.3021
   8323SM  H11F11106   4.146   3.150   7.831 -2.0282 -1.0085 -0.0792
   8323SM  H11G11107   4.317   3.099   7.872  0.3317 -1.3170  0.3277
   8323SM  C12F11108   4.166   2.998   7.986  0.1513  0.4595  0.0579
   8323SM  H12F11109   4.247   2.928   8.015  0.6269  0.9514 -0.0786
   8323SM  H12G11110   4.073   2.941   7.964  1.1984 -1.7205  0.9519
   8323SM  C13F11111   4.156   3.094   8.106  0.4752 -0.0249  0.2793
   8323SM  H13F11112   4.080   3.174   8.096  0.4486  0.0566  1.1164
   8323SM  H13G11113   4.250   3.151   8.122  0.0036  0.0391  3.2608
   8323SM  C14F11114   4.120   3.013   8.233  0.3376 -0.1668  0.1547
   8323SM  H14F11115   4.118   3.078   8.323  0.6288  1.1431 -0.7425
   8323SM  H14G11116   4.189   2.933   8.266  0.5543  0.5800  1.5642
   8323SM  C15F11117   3.988   2.938   8.231  0.3116  0.8491 -0.0049
   8323SM  H15F11118   3.995   2.843   8.174  1.1026 -0.5952  2.3921
   8323SM  H15G11119   3.917   3.008   8.179  0.5696 -0.2325 -1.9159
   8323SM  C16F11120   3.939   2.896   8.377  0.8727  0.4017  0.5575
   8323SM  H16F11121   3.990   2.951   8.460 -1.1847  0.8049  1.6063
   8323SM  H16G11122   3.965   2.788   8.374 -1.5557 -0.2558 -3.4384
   8323SM  C17F11123   3.786   2.903   8.396 -0.4634 -0.2699 -0.2135
   8323SM  H17F11124   3.744   2.865   8.300 -1.3386 -2.3287  0.9205
   8323SM  H17G11125   3.754   3.010   8.399 -3.2093 -1.0312  0.0975
   8323SM  C18F11126   3.727   2.827   8.519  1.2643 -0.0182 -0.0295
   8323SM  H18F11127   3.795   2.840   8.606 -0.1083 -0.8767  1.2112
   8323SM  H18G11128   3.704   2.721   8.499 -1.5326  0.3413  0.7892
   8323SM  C19F11129   3.588   2.883   8.563  1.0570 -0.3728 -1.1585
   8323SM  H19F11130   3.602   2.987   8.598  0.3578 -1.2004  1.8530
   8323SM  H19G11131   3.548   2.810   8.637  1.3908  0.5084 -0.0837
   8323SM  C20F11132   3.469   2.886   8.456 -0.6646  0.5210 -0.2672
   8323SM  H20F11133   3.516   2.916   8.360  0.9574  0.0418  0.3436
   8323SM  H20G11134   3.403   2.974   8.475  1.0865  1.4690  1.8166
   8323SM  C21F11135   3.380   2.758   8.449 -0.5053  0.2683 -0.3200
   8323SM  H21F11136   3.369   2.718   8.552  0.9646  0.2347 -0.1566
   8323SM  H21G11137   3.449   2.694   8.390 -0.0034 -1.5842  2.1192
   8323SM  C22F11138   3.245   2.787   8.384 -0.1172  0.6331  0.9671
   8323SM  H22F11139   3.210   2.884   8.425 -0.9324  0.8487 -0.1816
   8323SM  H22G11140   3.174   2.704   8.403  0.3347 -0.5942 -2.0740
   8323SM  C23F11141   3.247   2.825   8.239 -0.1023  0.0908  0.6331
   8323SM  H23F11142   3.292   2.738   8.187  0.2513  0.3890  0.4269
   8323SM  H23G11143   3.316   2.912   8.226  1.3241 -0.7700  2.0735
   8323SM  H23H11144   3.148   2.849   8.195  0.7042  0.2477 -1.1515
   8423SM     N11145   1.959   0.785   5.874 -0.2299  0.2904  0.5197
   8423SM   C1511146   2.017   0.863   5.991 -0.1334 -0.1487  0.2513
   8423SM  H15A11147   1.999   0.970   5.988 -2.2479 -0.4122 -3.6463
   8423SM  H15B11148   2.125   0.860   5.987 -0.1127 -0.4515  0.9324
   8423SM  H15C11149   1.968   0.838   6.084 -0.1553  1.5818  0.7399
   8423SM   C1411150   2.017   0.831   5.742 -0.5398 -0.4118 -0.2501
   8423SM  H14A11151   2.036   0.937   5.738  1.2607 -0.6012  1.5263
   8423SM  H14B11152   1.943   0.797   5.672  0.3219 -2.4636 -0.2376
   8423SM  H14C11153   2.116   0.792   5.724  0.2881  0.3916  2.1517
   8423SM   C1311154   2.000   0.645   5.896 -0.3917 -0.5372 -0.0861
   8423SM  H13A11155   1.956   0.589   5.977  0.1576 -1.9087 -0.7042
   8423SM  H13B11156   2.105   0.654   5.919 -0.6637  1.1110  0.6611
   8423SM  H13C11157   2.003   0.576   5.813  2.1304  0.5481 -1.0204
   8423SM   C1211158   1.806   0.800   5.876 -0.4404  0.2419  0.5931
   8423SM  H12A11159   1.771   0.753   5.785 -1.9992  1.8733  0.2932
   8423SM  H12B11160   1.784   0.906   5.876 -0.8563  0.2219 -1.9802
   8423SM   C1111161   1.726   0.745   5.994 -0.6666  0.5982 -0.1911
   8423SM  H11A11162   1.741   0.635   6.004 -1.0584  0.6563  1.2898
   8423SM  H11B11163   1.622   0.758   5.959 -0.2922  0.8093 -1.2531
   8423SM     P11164   1.696   0.934   6.167  0.0574 -0.5243  0.3292
   8423SM   O1311165   1.730   1.049   6.078  0.3105  0.1672  0.0225
   8423SM   O1411166   1.548   0.905   6.181 -0.3285 -1.3093  0.1840
   8423SM   O1111167   1.762   0.948   6.306 -0.0425 -0.2624  0.0782
   8423SM   O1211168   1.770   0.804   6.114 -0.6337  0.2014 -0.4222
   8423SM   C1S11169   1.761   1.071   6.371 -0.2133  0.0268  0.2179
   8423SM   H1S11170   1.660   1.108   6.397 -1.1537  0.0325 -3.0727
   8423SM   H1T11171   1.800   1.157   6.313  1.1823 -0.6910  0.0341
   8423SM    NF11172   1.816   1.162   6.594  0.0536 -0.2743 -0.1679
   8423SM   HNF11173   1.896   1.212   6.626  1.0670 -1.8889 -0.0850
   8423SM   C2S11174   1.843   1.058   6.498 -0.2164  0.0381  0.0491
   8423SM   H2S11175   1.825   0.956   6.538  0.4103 -0.4266 -0.8279
   8423SM   C3S11176   1.995   1.038   6.459  0.1493 -0.9833  0.0031
   8423SM   H3S11177   2.043   1.138   6.455 -0.3408 -0.5323  3.0322
   8423SM    O311178   2.014   0.972   6.338 -0.5377 -0.3229  0.7794
   8423SM   HO311179   1.928   0.946   6.305 -1.0468  1.2417  0.7759
   8423SM   C4S11180   2.070   0.976   6.575 -0.2905 -0.2284 -0.3337
   8423SM   H4S11181   2.122   1.050   6.637  0.8083  0.2707 -1.7820
   8423SM   C5S11182   2.105   0.846   6.594 -0.5686 -0.0974 -0.1019
   8423SM   H5S11183   2.060   0.774   6.525 -0.7689 -2.1074  2.0056
   8423SM   C6S11184   2.178   0.783   6.708  0.2355  0.3679 -0.1811
   8423SM   H6S11185   2.257   0.713   6.673 -1.3964 -1.8638  0.4006
   8423SM   H6T11186   2.099   0.727   6.762  0.1928  0.3972 -0.2129
   8423SM   C7S11187   2.228   0.883   6.805 -0.4570  1.1736 -0.4181
   8423SM   H7S11188   2.160   0.953   6.858  0.1885  2.0929 -0.7726
   8423SM   H7T11189   2.293   0.955   6.751 -0.0791  2.6978  1.8751
   8423SM   C8S11190   2.319   0.817   6.918 -0.4890  0.2771 -0.1213
   8423SM   H8S11191   2.382   0.894   6.967  0.2806 -0.9464  0.9002
   8423SM   H8T11192   2.384   0.741   6.869  0.8836  0.8295  0.7575
   8423SM   C9S11193   2.240   0.737   7.026  0.0571  0.0401  0.3237
   8423SM   H9S11194   2.156   0.678   6.984  1.9770 -1.3750 -1.8059
   8423SM   H9T11195   2.185   0.814   7.084  0.0782  1.5264 -1.5414
   8423SM  C10S11196   2.327   0.664   7.130  0.5665  0.2413  0.2184
   8423SM  H10S11197   2.379   0.744   7.188 -1.0323 -0.0645  2.1957
   8423SM  H10T11198   2.409   0.604   7.085 -0.2800 -1.5944  0.9718
   8423SM  C11S11199   2.247   0.564   7.215 -0.3086 -0.4321  0.5183
   8423SM  H11S11200   2.202   0.487   7.150  2.3020 -0.0133 -1.9656
   8423SM  H11T11201   2.165   0.622   7.263 -0.0795  1.7099 -1.4835
   8423SM  C12S11202   2.338   0.507   7.324 -0.3666  0.2037 -0.2253
   8423SM  H12S11203   2.354   0.591   7.396  2.6540 -1.3319  1.0562
   8423SM  H12T11204   2.441   0.472   7.305 -0.0629 -1.0618  3.1097
   8423SM  C13S11205   2.274   0.396   7.404 -0.2507  0.2905  0.0404
   8423SM  H13S11206   2.236   0.315   7.339  2.3000 -1.6916  0.8472
   8423SM  H13T11207   2.190   0.416   7.474  0.4964 -1.7906  1.6281
   8423SM  C14S11208   2.372   0.332   7.510 -0.1904  0.1605 -0.9164
   8423SM  H14S11209   2.392   0.400   7.596  0.8022 -1.0493 -0.1663
   8423SM  H14T11210   2.471   0.326   7.460  0.7779 -0.1839  0.9386
   8423SM  C15S11211   2.304   0.205   7.572  0.2366  0.8961 -0.7186
   8423SM  H15S11212   2.236   0.153   7.501 -2.5260  1.7204  1.1237
   8423SM  H15T11213   2.238   0.244   7.652  0.8951 -0.5141  0.5668
   8423SM  C16S11214   2.397   0.104   7.646  0.4344  0.0082 -0.1545
   8423SM  H16S11215   2.358   0.010   7.691  1.9013 -0.3422  0.4431
   8423SM  H16T11216   2.447   0.169   7.721  0.9697  0.6891 -1.0861
   8423SM  C17S11217   2.497   0.054   7.543 -0.0521 -0.2654  0.1176
   8423SM  H17S11218   2.557   0.145   7.519 -2.5132  1.5497  0.4442
   8423SM  H17T11219   2.452   0.012   7.450  1.0801  0.0998 -0.6075
   8423SM  C18S11220   2.589  -0.053   7.606  0.4079  0.1351 -0.1514
   8423SM  H18S11221   2.534  -0.149   7.619 -1.1322  0.9940 -0.0416
   8423SM  H18T11222   2.650  -0.025   7.694 -0.3914  0.6726  0.2410
   8423SM  H18U11223   2.668  -0.074   7.531  2.0002 -0.7455  1.7085
   8423SM   C1F11224   1.706   1.187   6.650  0.1453 -0.4395 -0.5260
   8423SM    OF11225   1.612   1.112   6.632  1.0121 -0.0052  0.3865
   8423SM   C2F11226   1.693   1.318   6.717 -0.4401 -0.6001 -0.6281
   8423SM   H2F11227   1.602   1.373   6.684  0.4968  0.8192 -0.9491
   8423SM   H2G11228   1.789   1.371   6.701  1.0843 -2.5311  1.4954
   8423SM   C3F11229   1.690   1.284   6.869  0.5463 -0.1740  0.9448
   8423SM   H3F11230   1.787   1.245   6.907  0.5630 -1.0843 -0.0065
   8423SM   H3G11231   1.617   1.204   6.891  0.6643 -0.6212 -0.2147
   8423SM   C4F11232   1.655   1.406   6.957  0.0339 -0.2799 -0.2947
   8423SM   H4F11233   1.545   1.424   6.954 -0.1889 -1.5431 -0.0376
   8423SM   H4G11234   1.712   1.486   6.906 -1.3311  0.8745 -0.0990
   8423SM   C5F11235   1.677   1.395   7.109 -0.7332 -0.0103 -0.2550
   8423SM   H5F11236   1.752   1.315   7.126 -1.2232 -0.2876  0.7107
   8423SM   H5G11237   1.583   1.358   7.154 -1.0375  1.1830  0.1382
   8423SM   C6F11238   1.728   1.527   7.172  0.2589 -0.5549 -0.8589
   8423SM   H6F11239   1.719   1.504   7.280 -0.6054  0.6680 -0.6590
   8423SM   H6G11240   1.655   1.606   7.146 -0.8829 -1.2310  0.1826
   8423SM   C7F11241   1.875   1.561   7.125 -0.0766  0.5905 -0.2516
   8423SM   H7F11242   1.882   1.549   7.015  0.8054 -5.0022  0.0979
   8423SM   H7G11243   1.941   1.476   7.156 -1.3761 -0.5122 -0.4115
   8423SM   C8F11244   1.933   1.690   7.183  0.4699 -0.9001 -0.0856
   8423SM   H8F11245   1.863   1.765   7.141  0.7640 -1.1833 -1.1135
   8423SM   H8G11246   2.033   1.706   7.136  0.6050  0.5990  0.6653
   8423SM   C9F11247   1.951   1.690   7.335 -0.3683 -0.1896  0.1206
   8423SM   H9F11248   1.848   1.663   7.366  0.0723 -0.3452  1.5240
   8423SM   H9G11249   1.973   1.797   7.358 -0.4414  0.1349 -1.2323
   8423SM  C10F11250   2.054   1.589   7.400  0.8019 -0.0267  0.8119
   8423SM  H10F11251   2.155   1.593   7.356  1.1128 -1.8371  1.2544
   8423SM  H10G11252   2.006   1.489   7.386  0.3092  0.1361  1.2785
   8423SM  C11F11253   2.052   1.612   7.549  0.1826  0.4649  0.0763
   8423SM  H11F11254   1.947   1.630   7.579  0.0543 -0.4663  0.2304
   8423SM  H11G11255   2.110   1.704   7.570  0.3050  0.7834 -1.5638
   8423SM  C12F11256   2.100   1.490   7.627 -0.4967 -0.1735 -0.1245
   8423SM  H12F11257   2.199   1.465   7.584  0.4570  0.3693  1.6757
   8423SM  H12G11258   2.028   1.407   7.608 -0.6731  0.0875 -0.6251
   8423SM  C13F11259   2.127   1.518   7.776  0.0631 -0.3243 -0.8117
   8423SM  H13F11260   2.167   1.622   7.777 -0.0143 -0.2550  1.8059
   8423SM  H13G11261   2.211   1.461   7.821 -0.9489 -1.5349 -0.4042
   8423SM  C14F11262   2.000   1.498   7.860 -0.1657  0.6277  0.1941
   8423SM  H14F11263   1.950   1.404   7.828 -0.1792 -1.5583  5.5712
   8423SM  H14G11264   1.926   1.580   7.854 -2.6187 -1.3653  1.2020
   8423SM  C15F11265   2.037   1.474   8.004 -0.0240 -0.5768  0.3225
   8423SM  H15F11266   1.956   1.498   8.076 -1.3015 -0.1058 -1.2151
   8423SM  H15G11267   2.114   1.551   8.025 -0.8735 -0.5246  3.8473
   8423SM  C16F11268   2.089   1.329   8.042  0.5723 -0.5045  0.4508
   8423SM  H16F11269   2.120   1.335   8.149 -1.1143  0.8939  0.9230
   8423SM  H16G11270   2.174   1.299   7.977 -0.1055  0.7047 -1.0726
   8423SM  C17F11271   1.970   1.230   8.024 -0.2289  0.1464 -0.0608
   8423SM  H17F11272   2.010   1.127   8.012 -0.0534  0.0953  0.8886
   8423SM  H17G11273   1.908   1.250   7.934 -2.3049  0.2374  1.3228
   8423SM  C18F11274   1.875   1.220   8.141 -0.1221 -0.6725 -0.0490
   8423SM  H18F11275   1.793   1.151   8.110 -1.4460 -0.3278  2.3897
   8423SM  H18G11276   1.815   1.312   8.159 -0.6112 -0.8331 -0.8175
   8423SM  C19F11277   1.935   1.170   8.267  0.3656 -0.1154 -0.8411
   8423SM  H19F11278   2.034   1.212   8.293 -0.8328  2.0737  0.4760
   8423SM  H19G11279   1.958   1.062   8.251 -0.4740  0.0902 -4.0541
   8423SM  C20F11280   1.848   1.188   8.391  0.4309 -0.1415  0.2073
   8423SM  H20F11281   1.749   1.141   8.376  0.5188 -0.1441 -0.3695
   8423SM  H20G11282   1.846   1.299   8.392  3.7771  0.0793 -1.9092
   8423SM  C21F11283   1.907   1.151   8.531  0.0347  1.2943  0.3431
   8423SM  H21F11284   2.005   1.195   8.558  0.0226  0.9154  1.0274
   8423SM  H21G11285   1.913   1.041   8.527 -1.7939  0.9704  3.3059
   8423SM  C22F11286   1.808   1.188   8.643 -0.0882  0.3601  0.2347
   8423SM  H22F11287   1.817   1.296   8.667 -0.4508  0.2238  1.0152
   8423SM  H22G11288   1.845   1.144   8.737 -1.6304  0.3147  0.8568
   8423SM  C23F11289   1.658   1.143   8.621 -0.3965 -0.5617  0.1392
   8423SM  H23F11290   1.599   1.185   8.536  1.1362  0.2037 -0.5814
   8423SM  H23G11291   1.600   1.139   8.716 -1.2915  0.4804 -0.3421
   8423SM  H23H11292   1.654   1.042   8.576  0.3399  0.4061 -2.2501
   8523SM     N11293   4.540   1.863   5.743  0.4749 -0.0944  0.0510
   8523SM   C1511294   4.579   1.750   5.649  0.2098  0.0374 -1.0714
   8523SM  H15A11295   4.543   1.656   5.690  2.3539 -0.6122 -0.4936
   8523SM  H15B11296   4.685   1.735   5.633  0.4904  1.4461 -0.6778
   8523SM  H15C11297   4.545   1.791   5.555 -0.2366  2.0921 -0.0665
   8523SM   C1411298   4.593   1.986   5.679  0.6102  0.2054 -0.6575
   8523SM  H14A11299   4.562   2.075   5.733  3.0947 -0.5258  2.2604
   8523SM  H14B11300   4.557   1.995   5.578 -0.0646 -1.4760 -0.5906
   8523SM  H14C11301   4.701   1.981   5.678  0.7434  1.8111  0.7702
   8523SM   C1311302   4.385   1.859   5.757 -0.1084 -0.2549 -0.1503
   8523SM  H13A11303   4.356   1.761   5.791  1.5362 -0.9974 -0.7855
   8523SM  H13B11304   4.352   1.860   5.655 -1.8520 -0.6776  0.3668
   8523SM  H13C11305   4.354   1.936   5.827  0.3312 -1.4625  1.4285
   8523SM   C1211306   4.602   1.831   5.882  0.0059  0.3689 -0.4202
   8523SM  H12A11307   4.707   1.815   5.865  0.0633 -1.6899  1.3800
   8523SM  H12B11308   4.562   1.735   5.913  2.2617 -0.5874 -0.3154
   8523SM   C1111309   4.574   1.936   5.985 -0.3784  0.2459  0.2313
   8523SM  H11A11310   4.574   2.041   5.951 -2.2180  0.7482  1.6119
   8523SM  H11B11311   4.652   1.925   6.064 -0.2952  1.9393  0.4123
   8523SM     P11312   4.411   1.819   6.158 -0.0351 -0.4786 -0.2590
   8523SM   O1311313   4.267   1.805   6.189 -0.0001  0.5050 -0.5466
   8523SM   O1411314   4.476   1.689   6.141 -0.4688  0.8902 -0.1319
   8523SM   O1111315   4.475   1.882   6.280 -0.4870  0.0773  0.6613
   8523SM   O1211316   4.441   1.922   6.039  0.4408  0.1807  0.4574
   8523SM   C1S11317   4.454   2.015   6.325 -0.3580  0.0156 -0.6115
   8523SM   H1S11318   4.352   2.054   6.305 -0.3361  1.1916  1.2597
   8523SM   H1T11319   4.527   2.082   6.274 -2.0885  2.5207 -0.0121
   8523SM    NF11320   4.482   2.171   6.509 -0.8293  0.2323 -0.2505
   8523SM   HNF11321   4.567   2.222   6.497 -1.9000  1.7194 -2.2555
   8523SM   C2S11322   4.483   2.032   6.481 -0.0193  0.9417 -0.5977
   8523SM   H2S11323   4.405   1.977   6.537  2.0769 -0.1031  1.4414
   8523SM   C3S11324   4.611   1.963   6.532  0.4200 -0.5157 -0.5249
   8523SM   H3S11325   4.695   2.018   6.483  0.7811  0.0361  0.6783
   8523SM    O311326   4.632   1.831   6.485  0.2900 -0.0973  0.0136
   8523SM   HO311327   4.575   1.835   6.407 -0.7863  0.3454  0.7954
   8523SM   C4S11328   4.630   1.981   6.677  0.2457 -0.5089 -0.5022
   8523SM   H4S11329   4.688   2.066   6.715 -2.0802  0.1392  1.8543
   8523SM   C5S11330   4.584   1.904   6.775  0.3865  0.0763 -0.1092
   8523SM   H5S11331   4.529   1.812   6.751 -0.2129  0.2567  0.5223
   8523SM   C6S11332   4.599   1.929   6.923  0.4565 -0.4493  0.4958
   8523SM   H6S11333   4.703   1.903   6.953  1.6606  1.8215 -1.3947
   8523SM   H6T11334   4.526   1.866   6.977  0.0101 -1.3295 -1.0512
   8523SM   C7S11335   4.594   2.075   6.966 -0.3045  0.7206  0.1550
   8523SM   H7S11336   4.656   2.142   6.902  0.5931  1.4421  1.7291
   8523SM   H7T11337   4.629   2.081   7.071 -1.3573 -0.1197  0.5707
   8523SM   C8S11338   4.451   2.125   6.982 -1.0610 -1.3135  0.1830
   8523SM   H8S11339   4.403   2.093   6.887  0.3914  0.2008 -1.1340
   8523SM   H8T11340   4.437   2.234   6.997 -1.4641 -1.2371 -0.6974
   8523SM   C9S11341   4.388   2.062   7.115 -0.4990 -0.1928  0.1756
   8523SM   H9S11342   4.396   1.951   7.116 -0.7858 -0.2142  1.5337
   8523SM   H9T11343   4.279   2.086   7.116 -0.3092  0.8090 -0.7650
   8523SM  C10S11344   4.453   2.113   7.247  0.8212  0.0424  0.0250
   8523SM  H10S11345   4.507   2.211   7.249  3.4212 -1.2659  2.4506
   8523SM  H10T11346   4.530   2.038   7.278  1.0416  0.5576  0.7729
   8523SM  C11S11347   4.347   2.103   7.365  0.8653 -0.4209  0.9006
   8523SM  H11S11348   4.320   1.995   7.366  2.0991 -0.8326 -2.1811
   8523SM  H11T11349   4.254   2.155   7.332  0.8713  0.5845  2.3735
   8523SM  C12S11350   4.400   2.143   7.503 -0.8177 -0.2567  0.0725
   8523SM  H12S11351   4.435   2.248   7.497  0.8675 -0.8000 -0.2641
   8523SM  H12T11352   4.477   2.070   7.539 -0.9135 -0.1855  0.4252
   8523SM  C13S11353   4.284   2.119   7.594 -1.1347  0.6271 -1.1538
   8523SM  H13S11354   4.229   2.022   7.589  0.9558 -0.7765  1.0295
   8523SM  H13T11355   4.216   2.200   7.560 -1.2408  0.8476 -0.4342
   8523SM  C14S11356   4.324   2.151   7.740 -0.3923  0.0613  0.6639
   8523SM  H14S11357   4.228   2.171   7.793 -0.6787 -0.5600  0.3890
   8523SM  H14T11358   4.391   2.239   7.748 -1.6209  0.9597  1.4792
   8523SM  C15S11359   4.409   2.037   7.807 -0.0642  0.7379 -0.0946
   8523SM  H15S11360   4.493   1.997   7.748  1.5864  1.4572  1.6693
   8523SM  H15T11361   4.342   1.950   7.823  1.3314 -0.4150 -0.3587
   8523SM  C16S11362   4.480   2.084   7.927  0.5805 -0.7392  1.0553
   8523SM  H16S11363   4.537   2.174   7.896 -1.7911  1.0939  1.7455
   8523SM  H16T11364   4.552   2.011   7.970  0.4679 -0.9299  0.9236
   8523SM  C17S11365   4.387   2.116   8.045  0.0751  0.0203  0.1449
   8523SM  H17S11366   4.366   2.027   8.108  2.7234 -0.5007  0.3901
   8523SM  H17T11367   4.297   2.169   8.007 -2.1131 -0.3867  4.2655
   8523SM  C18S11368   4.457   2.210   8.139  0.6475 -0.7432 -0.4890
   8523SM  H18S11369   4.465   2.311   8.095  0.5278  1.5054  4.0324
   8523SM  H18T11370   4.560   2.170   8.153  0.5902 -0.0949  2.6540
   8523SM  H18U11371   4.391   2.220   8.229 -1.1307  2.3147 -1.9635
   8523SM   C1F11372   4.374   2.248   6.496  0.0179 -0.6936 -0.2331
   8523SM    OF11373   4.261   2.213   6.460  0.0071 -0.3444 -0.2281
   8523SM   C2F11374   4.400   2.398   6.500  0.1320  0.7279  0.3319
   8523SM   H2F11375   4.389   2.437   6.397  1.4093 -1.5236 -0.7194
   8523SM   H2G11376   4.506   2.414   6.526  0.1144 -0.2598  1.0671
   8523SM   C3F11377   4.303   2.469   6.602  0.2691 -0.2660 -0.0179
   8523SM   H3F11378   4.197   2.450   6.573  0.6114  0.2923 -1.7762
   8523SM   H3G11379   4.316   2.579   6.612  0.2396 -0.3610  1.2475
   8523SM   C4F11380   4.323   2.436   6.754  0.1528  0.0224  0.7636
   8523SM   H4F11381   4.423   2.464   6.793  0.2340  0.9998 -0.0941
   8523SM   H4G11382   4.316   2.326   6.756  2.0958 -0.1336  0.9145
   8523SM   C5F11383   4.209   2.491   6.838  0.3581  0.6024 -0.4205
   8523SM   H5F11384   4.119   2.480   6.775 -0.3546 -0.9320  0.7983
   8523SM   H5G11385   4.231   2.599   6.853  0.7656  0.4028  0.4552
   8523SM   C6F11386   4.190   2.415   6.977  0.0406 -0.1452 -0.5091
   8523SM   H6F11387   4.293   2.392   7.013 -0.8923 -2.1497  1.0532
   8523SM   H6G11388   4.140   2.318   6.956  0.1809 -0.7651  1.8053
   8523SM   C7F11389   4.119   2.500   7.089 -0.6353  0.1180  0.6462
   8523SM   H7F11390   4.035   2.561   7.049 -0.1157  0.7549  0.4899
   8523SM   H7G11391   4.205   2.568   7.110 -0.4067  0.2561 -0.6372
   8523SM   C8F11392   4.074   2.405   7.205  0.1113 -0.6030 -0.6776
   8523SM   H8F11393   4.149   2.325   7.222  1.1600  0.4471 -0.2618
   8523SM   H8G11394   3.982   2.351   7.175  1.3871 -3.2289 -0.1403
   8523SM   C9F11395   4.033   2.477   7.335 -0.1933 -0.3377 -0.0278
   8523SM   H9F11396   3.969   2.413   7.400 -0.2164 -0.0695  0.2160
   8523SM   H9G11397   3.969   2.563   7.305 -1.6443 -1.4174 -0.1510
   8523SM  C10F11398   4.160   2.536   7.411  0.1032 -0.0859 -0.2860
   8523SM  H10F11399   4.221   2.595   7.339  1.9278 -2.1607 -0.5276
   8523SM  H10G11400   4.230   2.455   7.437  3.5785  2.2997 -1.4968
   8523SM  C11F11401   4.130   2.597   7.548 -0.1102 -0.6257 -0.0155
   8523SM  H11F11402   4.051   2.669   7.520  1.0766 -0.3267 -2.8895
   8523SM  H11G11403   4.215   2.663   7.573 -0.0406 -1.0541  0.9534
   8523SM  C12F11404   4.100   2.498   7.657  0.6539 -0.1387  0.3618
   8523SM  H12F11405   4.191   2.434   7.662  0.8134  0.1899  3.9628
   8523SM  H12G11406   4.009   2.442   7.629  0.5229  0.4570 -0.4410
   8523SM  C13F11407   4.079   2.567   7.789 -0.0056  0.0595 -0.9289
   8523SM  H13F11408   3.972   2.592   7.803  0.1258 -0.8316  2.3043
   8523SM  H13G11409   4.150   2.651   7.804  2.0464 -1.9491  1.5884
   8523SM  C14F11410   4.120   2.466   7.901  0.1944  1.0862  0.6125
   8523SM  H14F11411   4.230   2.467   7.914  0.1654 -0.7283  1.2685
   8523SM  H14G11412   4.093   2.362   7.873  1.2456  1.4720 -2.2100
   8523SM  C15F11413   4.057   2.493   8.037  0.5298 -0.6318  0.1122
   8523SM  H15F11414   3.949   2.470   8.033  0.4597 -0.8016  2.0136
   8523SM  H15G11415   4.071   2.598   8.070 -0.2901 -0.1709 -0.9465
   8523SM  C16F11416   4.122   2.406   8.144  0.3330  0.0787  0.3423
   8523SM  H16F11417   4.227   2.442   8.137  0.4483 -0.4380 -0.7172
   8523SM  H16G11418   4.101   2.301   8.117 -0.7704  0.1378  0.8959
   8523SM  C17F11419   4.055   2.439   8.280  0.4502  0.5287  0.5696
   8523SM  H17F11420   3.946   2.428   8.261  0.4228  1.4263  0.1566
   8523SM  H17G11421   4.076   2.546   8.300  0.4776  0.6537 -0.0928
   8523SM  C18F11422   4.101   2.344   8.392  0.5242  0.0344 -0.2707
   8523SM  H18F11423   4.211   2.356   8.387  0.3105  1.7591 -2.8916
   8523SM  H18G11424   4.073   2.238   8.372  0.2023  0.3247 -1.4536
   8523SM  C19F11425   4.048   2.400   8.528 -0.4186 -0.4729  0.4171
   8523SM  H19F11426   4.082   2.504   8.550  5.9710 -1.7274 -1.5492
   8523SM  H19G11427   4.099   2.339   8.606 -0.3126  0.8513  1.4250
   8523SM  C20F11428   3.896   2.378   8.539  0.0187 -0.0820 -0.2559
   8523SM  H20F11429   3.865   2.275   8.514 -1.0851 -0.5864  2.8093
   8523SM  H20G11430   3.844   2.449   8.470 -0.5804 -1.9657 -1.8294
   8523SM  C21F11431   3.841   2.425   8.670  0.3745  0.3579 -0.0319
   8523SM  H21F11432   3.883   2.519   8.712  0.1055  0.1018  0.8385
   8523SM  H21G11433   3.870   2.350   8.747  0.6379  0.3771 -0.1105
   8523SM  C22F11434   3.689   2.437   8.667 -0.8351 -0.0148  0.0856
   8523SM  H22F11435   3.645   2.339   8.636 -0.5022 -0.3698  0.7217
   8523SM  H22G11436   3.671   2.512   8.588 -0.3435  0.9057  0.8292
   8523SM  C23F11437   3.634   2.476   8.802 -0.1147 -0.1876  0.8069
   8523SM  H23F11438   3.694   2.561   8.841  0.7267  0.3516 -1.4703
   8523SM  H23G11439   3.649   2.397   8.878 -1.5821  0.4899  1.8411
   8523SM  H23H11440   3.527   2.498   8.786  0.2292 -0.5396 -2.8059
   8623SM     N11441   0.936   1.333   5.892 -0.1443 -0.2025  0.1662
   8623SM   C1511442   0.848   1.320   5.771  0.4941  0.3056 -0.6594
   8623SM  H15A11443   0.888   1.366   5.682 -1.5456  1.1912 -1.1715
   8623SM  H15B11444   0.764   1.380   5.802  1.8397  1.7155  0.4019
   8623SM  H15C11445   0.826   1.216   5.755  0.4014  0.0711  0.8372
   8623SM   C1411446   1.059   1.240   5.869  1.0550 -0.1754 -0.0346
   8623SM  H14A11447   1.033   1.137   5.847  2.5083 -0.2411 -1.6987
   8623SM  H14B11448   1.122   1.234   5.956  1.6818  0.7553 -0.4209
   8623SM  H14C11449   1.111   1.273   5.780 -1.5932  1.7481 -1.0087
   8623SM   C1311450   0.989   1.472   5.893 -0.3070 -0.0393 -0.0099
   8623SM  H13A11451   0.906   1.540   5.879 -1.1488 -1.3816 -2.0656
   8623SM  H13B11452   1.043   1.488   5.801 -1.5273 -1.2234 -0.9783
   8623SM  H13C11453   1.050   1.492   5.980  1.4640  0.2237 -1.2764
   8623SM   C1211454   0.878   1.298   6.029 -0.0500  0.2824  0.2622
   8623SM  H12A11455   0.840   1.197   6.033  2.4747 -0.6918  1.1970
   8623SM  H12B11456   0.789   1.359   6.043 -0.1914  0.3960 -0.9813
   8623SM   C1111457   0.979   1.312   6.153 -0.6927 -0.1814 -0.7574
   8623SM  H11A11458   0.917   1.323   6.244  1.0815  1.3670  0.3591
   8623SM  H11B11459   1.029   1.409   6.131 -1.4192  0.0685 -1.3266
   8623SM     P11460   1.035   1.070   6.198  0.3030  0.0726 -0.0735
   8623SM   O1311461   0.922   1.028   6.115  0.4290 -0.1066 -0.3250
   8623SM   O1411462   1.149   0.981   6.194 -0.0673 -0.8838  0.6316
   8623SM   O1111463   0.983   1.071   6.349 -0.2439  0.1227  0.1567
   8623SM   O1211464   1.079   1.217   6.165 -0.5074 -0.1190  0.4064
   8623SM   C1S11465   1.030   1.152   6.453  0.8971 -0.4204  0.3008
   8623SM   H1S11466   0.973   1.248   6.453  1.1367 -0.1687  3.7881
   8623SM   H1T11467   1.136   1.181   6.440  0.1747  2.1775 -0.6037
   8623SM    NF11468   1.078   1.189   6.696  0.0855 -0.2507  0.3603
   8623SM   HNF11469   1.176   1.196   6.715 -0.1478  0.2933  1.4660
   8623SM   C2S11470   1.038   1.091   6.595 -0.5775  0.2440  0.0742
   8623SM   H2S11471   0.940   1.054   6.633  0.1182 -0.8869  0.8132
   8623SM   C3S11472   1.119   0.958   6.599 -1.0088  0.5329  0.6093
   8623SM   H3S11473   1.222   0.978   6.561 -1.1080 -0.4539 -0.2211
   8623SM    O311474   1.078   0.863   6.507  1.1227 -0.4092 -0.0935
   8623SM   HO311475   1.017   0.910   6.450  0.3973 -1.3229 -0.0866
   8623SM   C4S11476   1.140   0.903   6.742  0.0238 -0.6647  0.3827
   8623SM   H4S11477   1.048   0.879   6.797  0.2910  0.2098  1.2399
   8623SM   C5S11478   1.261   0.897   6.807 -0.0512 -0.0676 -0.2054
   8623SM   H5S11479   1.354   0.924   6.754 -0.8428 -0.0781 -1.6335
   8623SM   C6S11480   1.276   0.842   6.943 -0.2233 -0.5307  0.2121
   8623SM   H6S11481   1.194   0.880   7.007 -0.4889  1.7150 -1.3371
   8623SM   H6T11482   1.374   0.880   6.980 -0.4344  0.0538  0.1811
   8623SM   C7S11483   1.291   0.691   6.939 -0.0080 -0.4532 -0.7545
   8623SM   H7S11484   1.351   0.657   6.852  0.2044  0.4418 -0.9677
   8623SM   H7T11485   1.189   0.648   6.928 -0.2616 -0.3020  0.8380
   8623SM   C8S11486   1.353   0.626   7.063  0.9805 -0.6231 -0.0104
   8623SM   H8S11487   1.454   0.669   7.080 -0.2781  1.7887  2.1324
   8623SM   H8T11488   1.361   0.516   7.056  0.4015 -0.6374 -0.5509
   8623SM   C9S11489   1.261   0.657   7.191 -0.6881  0.0544 -0.1255
   8623SM   H9S11490   1.163   0.606   7.179  0.1290 -1.4732 -0.4494
   8623SM   H9T11491   1.226   0.762   7.199 -3.2208 -0.6236 -1.3726
   8623SM  C10S11492   1.326   0.609   7.324 -0.1571  0.5691 -1.2381
   8623SM  H10S11493   1.421   0.667   7.330 -0.4204  0.8244  1.3731
   8623SM  H10T11494   1.353   0.501   7.321 -2.1749 -0.0234  0.5032
   8623SM  C11S11495   1.273   0.651   7.464 -0.1424 -0.1009 -0.2344
   8623SM  H11S11496   1.169   0.613   7.479 -0.3648  0.8786  0.8347
   8623SM  H11T11497   1.256   0.759   7.482 -0.6582  0.3056 -2.8711
   8623SM  C12S11498   1.362   0.594   7.582 -0.2380 -0.4734 -0.0648
   8623SM  H12S11499   1.457   0.651   7.588 -0.2456 -0.4154 -0.4606
   8623SM  H12T11500   1.397   0.491   7.559  1.0764  0.0720 -0.6122
   8623SM  C13S11501   1.272   0.595   7.710  0.2496  0.0285  0.4169
   8623SM  H13S11502   1.299   0.515   7.782 -2.3837 -2.3001 -0.9742
   8623SM  H13T11503   1.169   0.567   7.677  1.0321 -0.2104 -2.0858
   8623SM  C14S11504   1.277   0.732   7.782 -0.4103 -0.9086  0.7842
   8623SM  H14S11505   1.246   0.805   7.704 -0.6542 -1.5133  0.3074
   8623SM  H14T11506   1.379   0.762   7.816  0.1972 -1.2159 -0.6808
   8623SM  C15S11507   1.183   0.743   7.903  0.4296  0.3672 -0.5126
   8623SM  H15S11508   1.081   0.711   7.873 -0.0445  0.4388  0.9662
   8623SM  H15T11509   1.173   0.850   7.933  1.7318  1.2080 -2.7828
   8623SM  C16S11510   1.243   0.663   8.017  0.6184  0.9360 -0.0396
   8623SM  H16S11511   1.346   0.702   8.027  0.5477  0.6110  2.7441
   8623SM  H16T11512   1.255   0.559   7.981  2.7869  0.9584  0.5304
   8623SM  C17S11513   1.159   0.662   8.144  0.5526 -0.0372  0.1614
   8623SM  H17S11514   1.065   0.605   8.130  1.9758 -2.2839 -0.9651
   8623SM  H17T11515   1.138   0.770   8.157 -0.4995  0.4277 -3.8957
   8623SM  C18S11516   1.232   0.595   8.256  0.2403 -0.4338 -0.2065
   8623SM  H18S11517   1.155   0.558   8.327 -0.4537 -0.5115 -0.9722
   8623SM  H18T11518   1.291   0.675   8.306  0.6869  0.0390 -1.4596
   8623SM  H18U11519   1.309   0.525   8.218  0.0676  0.9214 -3.4295
   8623SM   C1F11520   1.001   1.292   6.736 -0.2879 -0.1754  0.2862
   8623SM    OF11521   0.890   1.305   6.681  0.2473  0.1402 -0.0763
   8623SM   C2F11522   1.053   1.389   6.840  0.2815  0.8001 -0.6029
   8623SM   H2F11523   1.145   1.436   6.799 -0.6112  2.0630 -1.2339
   8623SM   H2G11524   1.073   1.344   6.939 -1.2269  1.6133  0.1065
   8623SM   C3F11525   0.946   1.499   6.856 -0.5170  0.0754 -0.3029
   8623SM   H3F11526   0.852   1.462   6.900  0.0965 -2.2185 -0.7965
   8623SM   H3G11527   0.914   1.541   6.758 -0.6709 -1.5864 -0.9885
   8623SM   C4F11528   1.004   1.620   6.937 -0.0176  0.3505  0.3489
   8623SM   H4F11529   1.030   1.580   7.037 -1.1705  1.1057  0.9722
   8623SM   H4G11530   0.932   1.703   6.954  0.5952  1.2688 -1.3042
   8623SM   C5F11531   1.122   1.690   6.867 -0.1414 -0.4139  0.5185
   8623SM   H5F11532   1.107   1.800   6.871 -0.0615 -0.4378  2.4438
   8623SM   H5G11533   1.106   1.652   6.764 -0.4532  0.2351  0.3235
   8623SM   C6F11534   1.264   1.659   6.908 -0.0203  0.4551 -0.0456
   8623SM   H6F11535   1.338   1.704   6.838  2.5419 -1.2914  1.3667
   8623SM   H6G11536   1.278   1.549   6.918  1.7482  0.7232  0.8963
   8623SM   C7F11537   1.294   1.709   7.053 -0.2537 -0.1636 -0.1021
   8623SM   H7F11538   1.400   1.688   7.078 -0.6060 -0.6445  1.0519
   8623SM   H7G11539   1.227   1.653   7.122 -1.2205  0.2808 -0.6770
   8623SM   C8F11540   1.280   1.854   7.075  0.1040 -0.1999  0.5106
   8623SM   H8F11541   1.178   1.886   7.047  0.8218  0.2118 -1.8952
   8623SM   H8G11542   1.356   1.904   7.010 -2.9070  3.0381 -0.8491
   8623SM   C9F11543   1.308   1.905   7.222 -0.2591 -0.8305  0.3525
   8623SM   H9F11544   1.419   1.908   7.217 -0.2709  0.8887  0.6368
   8623SM   H9G11545   1.266   1.836   7.298 -3.0550  1.7305  1.3091
   8623SM  C10F11546   1.226   2.044   7.249  0.8158 -0.1789 -0.6820
   8623SM  H10F11547   1.127   2.044   7.199  0.8409 -1.2174 -0.7534
   8623SM  H10G11548   1.288   2.126   7.207  2.0890  0.2092  1.7319
   8623SM  C11F11549   1.211   2.067   7.396 -0.0288 -0.2881 -0.4400
   8623SM  H11F11550   1.151   1.982   7.437  0.8740  0.0316  1.6953
   8623SM  H11G11551   1.160   2.164   7.414 -2.4938 -1.2043 -1.8815
   8623SM  C12F11552   1.351   2.067   7.468 -0.6996  0.8340  0.8565
   8623SM  H12F11553   1.424   2.098   7.390 -1.9385  0.1920 -0.6263
   8623SM  H12G11554   1.377   1.961   7.489 -2.2446  0.1535 -0.4534
   8623SM  C13F11555   1.357   2.134   7.607 -0.8833 -0.7218  0.0342
   8623SM  H13F11556   1.318   2.238   7.597  0.4774 -0.2319 -0.4034
   8623SM  H13G11557   1.459   2.152   7.647 -1.9720  2.8136  1.7370
   8623SM  C14F11558   1.269   2.066   7.710 -0.1940  0.4788  0.2751
   8623SM  H14F11559   1.299   1.961   7.731 -0.3441  0.2617 -0.5576
   8623SM  H14G11560   1.171   2.054   7.659  1.2197  0.9175 -2.8130
   8623SM  C15F11561   1.249   2.151   7.846 -0.8957 -0.9323  0.3100
   8623SM  H15F11562   1.239   2.257   7.812 -1.9786 -1.2464 -0.4240
   8623SM  H15G11563   1.336   2.141   7.913 -0.6752  0.0447  0.1948
   8623SM  C16F11564   1.114   2.116   7.923  0.0057 -0.2166  0.8260
   8623SM  H16F11565   1.029   2.124   7.852 -1.6239  0.3913  2.7563
   8623SM  H16G11566   1.082   2.185   8.003  0.7221 -1.2411  2.0262
   8623SM  C17F11567   1.113   1.974   7.987  0.4936  0.5912  0.2436
   8623SM  H17F11568   1.199   1.968   8.057 -0.0494  2.0075  1.0810
   8623SM  H17G11569   1.121   1.896   7.909 -0.6274 -0.9310  1.5750
   8623SM  C18F11570   0.981   1.943   8.064 -0.1751  0.3003  0.0545
   8623SM  H18F11571   0.896   1.995   8.015 -0.6522 -0.3548  0.1779
   8623SM  H18G11572   0.983   1.986   8.166  2.0421  0.9564 -0.2151
   8623SM  C19F11573   0.940   1.795   8.090  0.1371 -0.0494 -0.2095
   8623SM  H19F11574   0.845   1.786   8.148  0.9765 -0.7559  1.1138
   8623SM  H19G11575   1.024   1.760   8.153  1.1425  1.9985 -0.3159
   8623SM  C20F11576   0.930   1.716   7.960  0.3710  0.1647 -0.2401
   8623SM  H20F11577   1.026   1.712   7.904 -0.8054 -0.4226 -2.3221
   8623SM  H20G11578   0.853   1.762   7.894 -0.2074 -1.8772 -1.0511
   8623SM  C21F11579   0.898   1.566   7.996 -0.5583  0.5255  0.2252
   8623SM  H21F11580   0.843   1.528   7.907 -0.0057 -0.4948  0.3063
   8623SM  H21G11581   0.819   1.554   8.073 -2.6130 -0.5830 -1.9216
   8623SM  C22F11582   1.021   1.476   8.018  0.7307 -1.1803  0.3418
   8623SM  H22F11583   1.088   1.534   8.085  0.4427 -1.2779  0.7140
   8623SM  H22G11584   1.067   1.458   7.919 -1.3857 -0.3336 -0.8710
   8623SM  C23F11585   1.001   1.349   8.094  0.1820  0.1083 -0.1879
   8623SM  H23F11586   0.939   1.364   8.186  0.5203  1.0055 -0.0906
   8623SM  H23G11587   1.091   1.289   8.118 -0.1478 -0.1369  0.4607
   8623SM  H23H11588   0.935   1.293   8.025  0.9560  0.4373 -1.2046
   8723SM     N11589   2.761   1.068   6.141 -0.3047 -0.4439  0.1980
   8723SM   C1511590   2.905   1.057   6.104 -0.1547  0.1750 -0.1683
   8723SM  H15A11591   2.955   0.964   6.125 -1.4352 -0.9707 -1.9085
   8723SM  H15B11592   2.959   1.136   6.154  0.4916 -0.9480  0.9609
   8723SM  H15C11593   2.903   1.065   5.996 -0.1630 -1.2904 -0.2974
   8723SM   C1411594   2.708   1.194   6.085  0.1696  0.4728 -0.0684
   8723SM  H14A11595   2.607   1.217   6.118  0.3004 -0.4628  1.0335
   8723SM  H14B11596   2.695   1.169   5.981  0.4373 -0.9468  0.2234
   8723SM  H14C11597   2.777   1.276   6.096 -0.0077  0.4555  1.4332
   8723SM   C1311598   2.684   0.957   6.071  0.1054 -0.2232 -0.3460
   8723SM  H13A11599   2.706   0.949   5.966 -0.5212  0.6654 -0.5527
   8723SM  H13B11600   2.576   0.954   6.081  0.0814  0.2787 -0.4496
   8723SM  H13C11601   2.724   0.868   6.118 -0.6017 -0.1387  0.4557
   8723SM   C1211602   2.745   1.059   6.290  0.5203 -0.3585 -0.0272
   8723SM  H12A11603   2.803   0.976   6.327  2.2331  0.6943 -0.2469
   8723SM  H12B11604   2.638   1.056   6.304  0.1146  2.0989 -1.9296
   8723SM   C1111605   2.805   1.183   6.374  0.4676  0.5006 -0.7616
   8723SM  H11A11606   2.748   1.180   6.469 -2.0889 -1.3042 -2.2176
   8723SM  H11B11607   2.764   1.275   6.326 -0.6809  0.3782 -0.0269
   8723SM     P11608   3.028   1.081   6.456  0.1126  0.1455  0.1831
   8723SM   O1311609   3.133   1.028   6.370 -0.6541  0.3075  0.0260
   8723SM   O1411610   3.059   1.148   6.586 -0.6769 -0.2412 -0.1755
   8723SM   O1111611   2.924   0.965   6.483  0.1909 -0.0222 -0.6009
   8723SM   O1211612   2.946   1.191   6.372 -0.1264  0.6348 -0.1425
   8723SM   C1S11613   2.962   0.820   6.487  0.2204 -0.7987 -0.3672
   8723SM   H1S11614   3.024   0.799   6.397 -1.5944 -0.6827 -1.7034
   8723SM   H1T11615   2.867   0.762   6.486 -0.0420 -0.3872  0.2262
   8723SM    NF11616   3.091   0.641   6.613 -0.6031 -0.0369 -0.1833
   8723SM   HNF11617   3.041   0.563   6.649  0.2599 -0.2850  0.5220
   8723SM   C2S11618   3.033   0.779   6.619  0.1648  0.3429  0.0025
   8723SM   H2S11619   3.111   0.858   6.628 -1.0110  1.6253 -0.6125
   8723SM   C3S11620   2.944   0.806   6.746  0.3128 -0.0809  0.1662
   8723SM   H3S11621   2.857   0.739   6.729 -0.6727  0.9725  0.8932
   8723SM    O311622   2.875   0.931   6.755  0.5642  0.0683  0.4409
   8723SM   HO311623   2.885   0.969   6.667  2.5596  2.0195  1.4140
   8723SM   C4S11624   3.024   0.778   6.867  0.5571 -0.0397 -0.1529
   8723SM   H4S11625   3.017   0.673   6.897 -0.2223  0.4364  1.4369
   8723SM   C5S11626   3.099   0.863   6.939 -0.1169 -0.6058 -0.1120
   8723SM   H5S11627   3.125   0.965   6.908 -0.8738 -0.3148  0.1876
   8723SM   C6S11628   3.160   0.819   7.072  0.0976  0.6391  0.5738
   8723SM   H6S11629   3.102   0.862   7.157 -0.4862  0.9994  0.0093
   8723SM   H6T11630   3.256   0.872   7.089  0.8569  0.4375 -2.5433
   8723SM   C7S11631   3.174   0.665   7.098  0.3887  0.5709  0.0233
   8723SM   H7S11632   3.222   0.608   7.016  0.3784 -0.8583  0.9851
   8723SM   H7T11633   3.070   0.628   7.110  0.2660  0.9661  0.2292
   8723SM   C8S11634   3.237   0.631   7.231  0.1437  0.2636  0.6684
   8723SM   H8S11635   3.332   0.688   7.240 -0.4564  1.3659  0.3365
   8723SM   H8T11636   3.262   0.523   7.239  0.0456  0.0989 -0.9474
   8723SM   C9S11637   3.146   0.657   7.353  0.8366 -0.4410  0.5085
   8723SM   H9S11638   3.042   0.620   7.340  0.7783 -1.1666  2.7028
   8723SM   H9T11639   3.126   0.767   7.359  0.2841 -0.4701 -0.4785
   8723SM  C10S11640   3.198   0.601   7.491 -0.6595 -0.0802 -0.8591
   8723SM  H10S11641   3.275   0.671   7.531 -1.4491 -0.0729  0.7129
   8723SM  H10T11642   3.248   0.505   7.466 -0.3365 -0.0618 -0.3015
   8723SM  C11S11643   3.089   0.572   7.601 -0.4462 -1.1561 -0.4192
   8723SM  H11S11644   3.034   0.481   7.569 -0.0626 -1.2419 -0.8577
   8723SM  H11T11645   3.019   0.658   7.598  2.2037  1.2481  0.8443
   8723SM  C12S11646   3.142   0.556   7.750 -0.5126  0.5822 -0.7027
   8723SM  H12S11647   3.053   0.513   7.801  1.9166 -0.1044  3.4144
   8723SM  H12T11648   3.164   0.656   7.792 -0.5278  1.0160 -1.6801
   8723SM  C13S11649   3.266   0.463   7.775 -0.6997  0.1575  0.0973
   8723SM  H13S11650   3.363   0.497   7.732  0.4351 -0.5987  1.9130
   8723SM  H13T11651   3.244   0.368   7.721  1.1172  0.8291 -1.9980
   8723SM  C14S11652   3.290   0.448   7.925 -0.6360 -0.3752  0.1540
   8723SM  H14S11653   3.201   0.395   7.965 -0.4011 -0.5584  0.4477
   8723SM  H14T11654   3.299   0.550   7.969 -1.0959  0.1112 -0.8652
   8723SM  C15S11655   3.423   0.368   7.939 -0.0450  0.0201 -0.4013
   8723SM  H15S11656   3.500   0.419   7.877 -1.8763  1.7408 -1.3680
   8723SM  H15T11657   3.400   0.270   7.891  2.5442 -1.0377  0.3485
   8723SM  C16S11658   3.475   0.360   8.084  0.1449 -0.0260  0.1977
   8723SM  H16S11659   3.575   0.313   8.075 -0.4640 -1.3657  0.2179
   8723SM  H16T11660   3.406   0.289   8.135  0.2961 -1.7270 -1.8275
   8723SM  C17S11661   3.495   0.488   8.165 -0.4117 -0.5930 -0.3742
   8723SM  H17S11662   3.535   0.464   8.266 -0.5857 -1.6190 -0.5450
   8723SM  H17T11663   3.396   0.539   8.172 -0.7104 -0.7102 -2.9738
   8723SM  C18S11664   3.585   0.591   8.093  0.3872 -0.1125  0.3864
   8723SM  H18S11665   3.683   0.539   8.087  1.3513  1.7933 -1.1259
   8723SM  H18T11666   3.591   0.686   8.151  0.9031 -0.0564  0.2458
   8723SM  H18U11667   3.556   0.626   7.992  0.4659  0.8988  0.6989
   8723SM   C1F11668   3.206   0.617   6.552 -0.6409 -0.3424 -0.4145
   8723SM    OF11669   3.265   0.706   6.485 -0.4989  0.3393 -0.0021
   8723SM   C2F11670   3.259   0.477   6.566 -0.5989 -0.4468 -0.2586
   8723SM   H2F11671   3.348   0.463   6.501  0.1034 -0.6355  0.7222
   8723SM   H2G11672   3.168   0.433   6.521 -1.7593  2.7152 -1.3358
   8723SM   C3F11673   3.296   0.434   6.708  0.2763  0.4806  0.3666
   8723SM   H3F11674   3.300   0.323   6.710  1.5017  0.5020 -0.3205
   8723SM   H3G11675   3.214   0.454   6.781 -0.2610 -2.4376  0.6745
   8723SM   C4F11676   3.421   0.495   6.762  0.4147 -0.4647  0.6321
   8723SM   H4F11677   3.399   0.587   6.820 -0.6095 -0.2959  0.0158
   8723SM   H4G11678   3.481   0.525   6.674  0.5894  1.2021  1.2918
   8723SM   C5F11679   3.507   0.393   6.841 -0.8130 -0.0804  0.1349
   8723SM   H5F11680   3.611   0.430   6.851 -0.0458 -2.0809 -0.1279
   8723SM   H5G11681   3.519   0.304   6.775 -0.1793 -0.2436  0.4684
   8723SM   C6F11682   3.450   0.359   6.977 -0.1108  0.7237  0.2177
   8723SM   H6F11683   3.402   0.259   6.967 -0.9256  1.2235 -1.1283
   8723SM   H6G11684   3.377   0.437   7.005 -0.9838  0.1738 -0.4491
   8723SM   C7F11685   3.565   0.357   7.087 -0.0986 -0.0267  1.0847
   8723SM   H7F11686   3.640   0.437   7.094  2.9502 -2.6405  0.5935
   8723SM   H7G11687   3.607   0.255   7.070 -0.4865 -0.0793  0.4032
   8723SM   C8F11688   3.494   0.350   7.216 -0.2025 -0.1613  0.3608
   8723SM   H8F11689   3.398   0.294   7.212 -0.3326 -0.1620  2.4195
   8723SM   H8G11690   3.474   0.451   7.257 -2.3124 -0.6353  0.6075
   8723SM   C9F11691   3.584   0.280   7.317  0.4045 -0.6797 -0.1504
   8723SM   H9F11692   3.684   0.327   7.310 -0.8583  1.9593 -2.3746
   8723SM   H9G11693   3.592   0.173   7.290 -0.0626 -0.3835 -1.5656
   8723SM  C10F11694   3.528   0.305   7.452 -0.6394 -0.4308  0.1110
   8723SM  H10F11695   3.420   0.280   7.444 -0.6867 -0.5621  1.0617
   8723SM  H10G11696   3.524   0.413   7.476 -0.6307  0.3926 -3.0366
   8723SM  C11F11697   3.581   0.220   7.572  0.5903 -0.0807  0.5241
   8723SM  H11F11698   3.589   0.292   7.657 -0.3335  1.2477 -0.4613
   8723SM  H11G11699   3.685   0.190   7.549  0.2642 -0.8847  0.0367
   8723SM  C12F11700   3.488   0.103   7.594  0.8911  0.2714 -0.3621
   8723SM  H12F11701   3.386   0.144   7.583  0.6825 -0.1495 -0.0347
   8723SM  H12G11702   3.503   0.073   7.700  1.0025 -1.3661 -0.8099
   8723SM  C13F11703   3.521  -0.014   7.504 -0.0102 -0.8470  0.1297
   8723SM  H13F11704   3.623  -0.055   7.511  0.7826  0.5229 -2.1734
   8723SM  H13G11705   3.513   0.017   7.398 -0.9328  0.9757  0.6817
   8723SM  C14F11706   3.432  -0.137   7.533  0.3184  0.1723 -0.2838
   8723SM  H14F11707   3.326  -0.112   7.512  0.0073 -0.6429  0.2657
   8723SM  H14G11708   3.448  -0.163   7.639  0.8960  1.2137 -0.1075
   8723SM  C15F11709   3.465  -0.265   7.448  0.4461 -0.9942  0.0105
   8723SM  H15F11710   3.568  -0.294   7.475  1.0908 -1.3693 -2.5975
   8723SM  H15G11711   3.462  -0.247   7.339  0.0667 -0.1020  0.1566
   8723SM  C16F11712   3.371  -0.386   7.465  0.0910 -1.0597  0.0402
   8723SM  H16F11713   3.410  -0.482   7.423  1.0367 -1.0649  0.8886
   8723SM  H16G11714   3.276  -0.365   7.412  1.4285 -1.1969 -2.5630
   8723SM  C17F11715   3.340  -0.423   7.607  0.2934  0.5150 -0.1383
   8723SM  H17F11716   3.245  -0.481   7.603 -0.9720  2.5387 -3.4856
   8723SM  H17G11717   3.298  -0.328   7.648 -0.3361  0.8985 -1.6208
   8723SM  C18F11718   3.449  -0.470   7.695  0.1148  0.1525  0.4539
   8723SM  H18F11719   3.540  -0.411   7.673 -0.4729  0.3106 -1.7909
   8723SM  H18G11720   3.450  -0.578   7.671 -2.8233 -0.0198  0.6543
   8723SM  C19F11721   3.422  -0.456   7.844 -0.4592 -0.3791  0.2892
   8723SM  H19F11722   3.508  -0.492   7.904 -0.1839 -1.0650 -0.4925
   8723SM  H19G11723   3.339  -0.523   7.876 -1.4660 -0.1279 -1.5787
   8723SM  C20F11724   3.389  -0.312   7.897  0.6123 -0.3621  0.0666
   8723SM  H20F11725   3.296  -0.266   7.859  0.4887  0.6883  1.5302
   8723SM  H20G11726   3.464  -0.237   7.864  0.3649 -0.3808 -0.5365
   8723SM  C21F11727   3.389  -0.317   8.050 -0.0120  0.3712 -0.5806
   8723SM  H21F11728   3.490  -0.344   8.088 -1.7384 -1.0127  3.5360
   8723SM  H21G11729   3.324  -0.400   8.085  0.8351 -0.4497 -0.8916
   8723SM  C22F11730   3.337  -0.188   8.118 -0.2022 -0.2455 -0.0423
   8723SM  H22F11731   3.325  -0.202   8.227 -1.3662  1.7858  0.1440
   8723SM  H22G11732   3.237  -0.163   8.076  0.6641 -1.6951 -3.3531
   8723SM  C23F11733   3.415  -0.064   8.087 -0.0445  0.4238 -0.8053
   8723SM  H23F11734   3.455  -0.067   7.984  0.9235 -3.9555 -0.5129
   8723SM  H23G11735   3.510  -0.059   8.144  0.3457 -2.4427 -1.0715
   8723SM  H23H11736   3.352   0.025   8.108  2.1146  1.8067  0.2131
   8823SM     N11737   5.821   0.833   5.518  0.4598 -0.5163  0.3974
   8823SM   C1511738   5.798   0.976   5.522 -0.0692 -0.3629  0.7915
   8823SM  H15A11739   5.732   1.009   5.443 -1.2236 -0.1513  1.8149
   8823SM  H15B11740   5.890   1.032   5.518 -0.3462  0.1081  0.9809
   8823SM  H15C11741   5.762   1.012   5.617  0.6752 -1.0021  1.3294
   8823SM   C1411742   5.692   0.766   5.540 -0.1876  0.2389 -0.5828
   8823SM  H14A11743   5.647   0.784   5.637  0.1784  2.4462 -0.7607
   8823SM  H14B11744   5.699   0.659   5.529  1.9754  0.2989 -0.1920
   8823SM  H14C11745   5.621   0.793   5.463 -2.2487  0.8392  1.4320
   8823SM   C1311746   5.865   0.799   5.379  0.0217  0.1203 -0.0847
   8823SM  H13A11747   5.965   0.823   5.345 -0.4863 -0.2086 -1.9706
   8823SM  H13B11748   5.802   0.854   5.311 -1.2040 -0.3303  0.6513
   8823SM  H13C11749   5.852   0.694   5.355  0.9889  0.6159 -3.2531
   8823SM   C1211750   5.914   0.789   5.629 -0.5215 -0.2993  0.3063
   8823SM  H12A11751   6.015   0.809   5.599 -1.6104  2.2058 -2.1466
   8823SM  H12B11752   5.914   0.681   5.632 -0.5743 -0.3969 -1.7659
   8823SM   C1111753   5.889   0.837   5.771  0.1025  0.2698 -0.9321
   8823SM  H11A11754   5.940   0.763   5.838 -0.7496  0.7301  0.2648
   8823SM  H11B11755   5.780   0.829   5.790  0.3835 -0.8876  0.4373
   8823SM     P11756   6.085   1.007   5.801  0.0507  0.0527  0.0846
   8823SM   O1311757   6.160   0.928   5.701 -0.2911  0.1352 -1.1135
   8823SM   O1411758   6.100   1.154   5.788 -0.1105 -0.0723 -0.1829
   8823SM   O1111759   6.133   0.970   5.948 -0.0208 -0.3776 -0.0361
   8823SM   O1211760   5.937   0.969   5.785 -0.6725 -0.1204 -0.5252
   8823SM   C1S11761   6.036   0.930   6.050 -0.2660  0.0407  0.5889
   8823SM   H1S11762   6.030   0.819   6.040 -0.4435  0.1990 -1.5658
   8823SM   H1T11763   5.934   0.969   6.030 -0.3318 -1.2844 -2.2471
   8823SM    NF11764   6.001   0.885   6.290 -0.8329  0.3209  0.4804
   8823SM   HNF11765   5.915   0.922   6.325 -0.7234  0.7370  0.3120
   8823SM   C2S11766   6.079   0.963   6.195  0.6616 -0.5522 -0.1887
   8823SM   H2S11767   6.190   0.957   6.197  0.7660  0.0500 -2.0989
   8823SM   C3S11768   6.053   1.113   6.216 -0.5866 -0.1704  0.3454
   8823SM   H3S11769   5.946   1.141   6.206 -0.6864 -1.0560 -1.7864
   8823SM    O311770   6.128   1.200   6.131 -0.1519 -0.5447 -0.0545
   8823SM   HO311771   6.150   1.150   6.052 -0.2343  0.8750 -1.0140
   8823SM   C4S11772   6.081   1.148   6.367  0.4297 -0.0587  0.5025
   8823SM   H4S11773   5.987   1.160   6.424  0.3357  0.4591  0.2455
   8823SM   C5S11774   6.180   1.212   6.423 -0.2095  0.1192  0.1961
   8823SM   H5S11775   6.260   1.251   6.358  0.8916 -1.4952  0.5358
   8823SM   C6S11776   6.180   1.259   6.565  0.1625 -1.3417  0.0016
   8823SM   H6S11777   6.091   1.217   6.617 -0.6020 -0.3642 -0.4875
   8823SM   H6T11778   6.181   1.370   6.558  0.8333 -1.3455 -0.0398
   8823SM   C7S11779   6.305   1.235   6.644  0.6499  0.5659  0.2274
   8823SM   H7S11780   6.399   1.260   6.589  1.6289 -0.1016  1.5352
   8823SM   H7T11781   6.306   1.128   6.673 -1.5279  0.2932 -0.5796
   8823SM   C8S11782   6.306   1.321   6.769  0.0545 -0.4743  0.0960
   8823SM   H8S11783   6.220   1.301   6.837  0.3642  0.5197  0.8049
   8823SM   H8T11784   6.287   1.423   6.727 -2.0498 -0.5618  0.7287
   8823SM   C9S11785   6.436   1.315   6.847  0.1728  0.0106 -0.3072
   8823SM   H9S11786   6.513   1.371   6.791  0.1366  1.9351  1.4636
   8823SM   H9T11787   6.464   1.207   6.852 -2.0828 -0.5826  1.1444
   8823SM  C10S11788   6.428   1.373   6.991 -0.0974  0.2977  0.9036
   8823SM  H10S11789   6.380   1.473   6.999 -1.4535 -0.3700  1.6347
   8823SM  H10T11790   6.522   1.395   7.045  0.1168  1.6810  0.0101
   8823SM  C11S11791   6.366   1.276   7.093 -0.3320 -0.6360 -0.2819
   8823SM  H11S11792   6.442   1.196   7.109  0.5638  0.2583  0.0270
   8823SM  H11T11793   6.279   1.224   7.047 -0.7511 -0.6135  0.4619
   8823SM  C12S11794   6.317   1.337   7.229 -0.7074 -0.1028 -0.1381
   8823SM  H12S11795   6.234   1.405   7.200 -1.1017 -0.4763  0.0911
   8823SM  H12T11796   6.391   1.402   7.279 -1.6343 -0.0631  1.2525
   8823SM  C13S11797   6.272   1.238   7.335  0.9145 -0.0118 -0.0940
   8823SM  H13S11798   6.340   1.152   7.355 -0.0856 -0.3144  2.3741
   8823SM  H13T11799   6.177   1.191   7.305 -0.2869  0.3296  2.8415
   8823SM  C14S11800   6.254   1.319   7.470 -0.4649  0.4750  0.1486
   8823SM  H14S11801   6.190   1.409   7.461  0.0859  0.8863  0.2599
   8823SM  H14T11802   6.352   1.348   7.514  0.9474 -2.4680 -0.8069
   8823SM  C15S11803   6.177   1.223   7.571  0.2066 -0.1958 -0.3880
   8823SM  H15S11804   6.244   1.136   7.588  1.9712  0.8117 -1.8449
   8823SM  H15T11805   6.091   1.166   7.530  0.3607 -0.6925 -0.0333
   8823SM  C16S11806   6.123   1.310   7.679  0.2484 -0.8098  0.7675
   8823SM  H16S11807   6.072   1.391   7.623  0.6372 -0.3547  1.0638
   8823SM  H16T11808   6.203   1.358   7.739 -0.4275  0.1497  0.9299
   8823SM  C17S11809   6.013   1.242   7.771 -0.4909 -0.1028  0.7772
   8823SM  H17S11810   5.933   1.214   7.699  0.8528 -2.0271 -0.0537
   8823SM  H17T11811   5.966   1.323   7.830  0.6345  1.5872 -0.5561
   8823SM  C18S11812   6.060   1.118   7.851  0.2599  0.0210  0.0962
   8823SM  H18S11813   6.145   1.130   7.922  1.0641 -0.3684 -0.7826
   8823SM  H18T11814   6.076   1.043   7.770 -1.5841 -0.3937  0.0577
   8823SM  H18U11815   5.976   1.064   7.900  0.8208 -1.1171 -0.1461
   8823SM   C1F11816   6.034   0.757   6.306 -0.1995 -0.0311 -0.0630
   8823SM    OF11817   6.140   0.709   6.272  0.2381  0.1085 -0.6359
   8823SM   C2F11818   5.929   0.672   6.381 -0.2131 -0.1018 -0.0144
   8823SM   H2F11819   5.832   0.674   6.326 -1.1548  1.8652  1.5731
   8823SM   H2G11820   5.914   0.724   6.478 -0.3618 -0.0451 -0.0664
   8823SM   C3F11821   5.977   0.528   6.402  0.1816  0.2917  0.5528
   8823SM   H3F11822   6.069   0.535   6.465  0.0596 -0.8154  0.8836
   8823SM   H3G11823   6.001   0.479   6.306 -0.7032  1.4049 -0.2610
   8823SM   C4F11824   5.875   0.425   6.461  0.2655 -1.0101  0.0427
   8823SM   H4F11825   5.901   0.317   6.450 -4.1659 -2.3872  1.1278
   8823SM   H4G11826   5.794   0.423   6.385  1.4689 -2.4726 -1.2933
   8823SM   C5F11827   5.824   0.454   6.610 -0.4373 -0.4248  0.9847
   8823SM   H5F11828   5.735   0.389   6.622 -0.0113 -0.6860  3.2069
   8823SM   H5G11829   5.798   0.559   6.636 -1.2179  0.1451 -1.7605
   8823SM   C6F11830   5.924   0.398   6.712 -0.0247 -0.0565 -0.3373
   8823SM   H6F11831   6.019   0.454   6.696 -0.5803  0.0704 -3.8096
   8823SM   H6G11832   5.953   0.293   6.689  0.4989  0.4178 -1.9511
   8823SM   C7F11833   5.889   0.402   6.867  0.8632 -0.1124 -0.1099
   8823SM   H7F11834   5.813   0.323   6.886  1.7206 -0.6327  1.3541
   8823SM   H7G11835   5.845   0.501   6.892  0.8049 -0.1473 -0.0741
   8823SM   C8F11836   6.008   0.376   6.958 -0.6214  0.0194 -0.7375
   8823SM   H8F11837   6.028   0.269   6.978  1.0974  0.3390 -0.5472
   8823SM   H8G11838   5.971   0.413   7.057  1.2991 -0.6566  0.2942
   8823SM   C9F11839   6.138   0.454   6.925  0.6107 -0.2475 -0.5187
   8823SM   H9F11840   6.109   0.561   6.915  0.4865 -0.2156  0.1668
   8823SM   H9G11841   6.165   0.414   6.825  0.6875  1.3083 -1.1501
   8823SM  C10F11842   6.248   0.443   7.032  0.5856  0.1019 -0.3863
   8823SM  H10F11843   6.271   0.334   7.034 -1.3609 -0.3366  0.0385
   8823SM  H10G11844   6.204   0.464   7.132 -0.2268 -1.6165 -0.3487
   8823SM  C11F11845   6.379   0.526   7.011 -0.0436  0.1160  0.0531
   8823SM  H11F11846   6.359   0.635   7.016  0.5091  0.2044  0.4018
   8823SM  H11G11847   6.420   0.504   6.910 -1.0007 -1.9208  0.0589
   8823SM  C12F11848   6.484   0.482   7.113 -0.4989  0.8880  0.0191
   8823SM  H12F11849   6.578   0.527   7.074 -0.8064  1.4039 -0.1335
   8823SM  H12G11850   6.501   0.372   7.101  1.4782  1.2201 -0.5976
   8823SM  C13F11851   6.455   0.545   7.249 -0.1599 -0.7141 -0.0489
   8823SM  H13F11852   6.375   0.486   7.299  0.2566 -0.8606  0.4570
   8823SM  H13G11853   6.414   0.648   7.234 -0.9596 -1.0785 -0.4493
   8823SM  C14F11854   6.578   0.559   7.341  0.4409 -0.0440 -0.0801
   8823SM  H14F11855   6.658   0.611   7.284  1.6067  0.3687  1.8401
   8823SM  H14G11856   6.617   0.455   7.351  4.1097  1.2235  0.3916
   8823SM  C15F11857   6.556   0.624   7.477  0.4880  0.2078 -0.3840
   8823SM  H15F11858   6.637   0.593   7.546 -0.1881  1.0290  0.8128
   8823SM  H15G11859   6.456   0.600   7.518  0.3685  0.4256 -0.5439
   8823SM  C16F11860   6.575   0.778   7.482  0.4589  0.6097  0.4304
   8823SM  H16F11861   6.487   0.818   7.427  1.1564  0.9519 -0.4703
   8823SM  H16G11862   6.667   0.812   7.429  1.2267 -1.7838  0.1140
   8823SM  C17F11863   6.568   0.844   7.621  0.2316  0.6744  0.1063
   8823SM  H17F11864   6.665   0.834   7.675 -0.2391  1.2979  1.0791
   8823SM  H17G11865   6.491   0.781   7.670  0.3357  0.6785  0.2746
   8823SM  C18F11866   6.531   0.993   7.606 -0.1294  0.2629  0.1634
   8823SM  H18F11867   6.432   1.006   7.557  0.0220  0.1829 -0.1688
   8823SM  H18G11868   6.603   1.041   7.536 -1.0046  2.3994  0.6525
   8823SM  C19F11869   6.533   1.062   7.738 -0.2458 -0.0175  0.0274
   8823SM  H19F11870   6.492   1.164   7.720  1.2204  0.7098  0.6330
   8823SM  H19G11871   6.641   1.068   7.765 -0.4635 -2.2277  1.6355
   8823SM  C20F11872   6.461   0.993   7.859 -0.0204  0.1006  0.6099
   8823SM  H20F11873   6.501   0.893   7.887 -0.3754  0.1054  1.1718
   8823SM  H20G11874   6.353   0.979   7.836  0.2559 -0.1838 -0.5490
   8823SM  C21F11875   6.476   1.076   7.986 -0.2160  0.3874 -0.4287
   8823SM  H21F11876   6.428   1.174   7.966  0.1980  0.4972 -0.8908
   8823SM  H21G11877   6.582   1.096   8.014 -0.7671  0.4240  1.8640
   8823SM  C22F11878   6.405   1.011   8.108  0.4199  0.1529 -0.2637
   8823SM  H22F11879   6.463   0.919   8.129 -1.7069 -1.3278 -0.6299
   8823SM  H22G11880   6.299   0.987   8.085  1.0642 -1.3630 -1.7628
   8823SM  C23F11881   6.409   1.091   8.239  0.1412 -0.2428  0.1490
   8823SM  H23F11882   6.507   1.087   8.291 -0.3276  1.5958  1.2432
   8823SM  H23G11883   6.339   1.049   8.313  0.7154 -0.2821  0.6742
   8823SM  H23H11884   6.391   1.200   8.228  2.5740  0.2608  0.5127
   8923SM     N11885   3.584   0.740   6.201  0.1236  0.1023 -0.6803
   8923SM   C1511886   3.527   0.876   6.221 -0.8895  0.2767  0.4233
   8923SM  H15A11887   3.557   0.945   6.144  0.0740  1.0534  1.4523
   8923SM  H15B11888   3.566   0.906   6.317  0.4349 -0.9364  0.3140
   8923SM  H15C11889   3.420   0.884   6.224 -1.0150 -1.1095  0.2548
   8923SM   C1411890   3.558   0.652   6.318 -0.2761 -0.2954 -0.3127
   8923SM  H14A11891   3.453   0.640   6.342 -0.3146  0.0784 -0.2754
   8923SM  H14B11892   3.602   0.697   6.406 -2.2364 -0.6794  0.9484
   8923SM  H14C11893   3.598   0.553   6.310  0.4661 -0.1361  0.9879
   8923SM   C1311894   3.531   0.675   6.077 -0.5859  0.3690  0.4716
   8923SM  H13A11895   3.426   0.651   6.078 -0.3200 -0.8566  0.1032
   8923SM  H13B11896   3.588   0.590   6.044 -1.5867 -0.2172  0.2011
   8923SM  H13C11897   3.548   0.755   6.006  0.2985 -0.6638 -0.5138
   8923SM   C1211898   3.735   0.747   6.177 -0.1796  0.5396  0.2274
   8923SM  H12A11899   3.775   0.647   6.168 -0.1355  0.1494  3.6491
   8923SM  H12B11900   3.785   0.780   6.267  1.0150 -0.0709 -0.1901
   8923SM   C1111901   3.793   0.829   6.053  0.3316  0.5925  0.3257
   8923SM  H11A11902   3.782   0.764   5.964  2.4512 -0.7546  0.9918
   8923SM  H11B11903   3.904   0.832   6.046  0.2874 -0.2721 -0.8742
   8923SM     P11904   3.824   1.086   6.057  0.1147  0.1419 -0.4859
   8923SM   O1311905   3.913   1.114   5.946  0.5680  0.0696  1.1222
   8923SM   O1411906   3.737   1.201   6.086 -0.2784  0.0983 -0.0723
   8923SM   O1111907   3.909   1.055   6.183 -0.1828 -0.1355 -0.6513
   8923SM   O1211908   3.733   0.956   6.031 -0.5345  0.2962 -0.4957
   8923SM   C1S11909   3.856   1.079   6.312 -0.5308 -0.0987 -0.0803
   8923SM   H1S11910   3.752   1.042   6.324 -0.6840  0.8510  1.9182
   8923SM   H1T11911   3.847   1.188   6.332 -0.1199 -0.0016 -0.4027
   8923SM    NF11912   3.857   1.020   6.551 -0.1787 -0.7977  1.0404
   8923SM   HNF11913   3.891   1.087   6.616  0.5393 -0.6481  0.5325
   8923SM   C2S11914   3.936   1.015   6.432 -0.7207 -0.8443  0.1478
   8923SM   H2S11915   3.957   0.910   6.402 -1.6518 -1.3053  1.0229
   8923SM   C3S11916   4.076   1.090   6.438  0.0339  0.0543 -0.2038
   8923SM   H3S11917   4.053   1.198   6.448 -2.3899 -0.4129 -0.2286
   8923SM    O311918   4.144   1.069   6.314  0.3397 -0.0146  0.2584
   8923SM   HO311919   4.076   1.045   6.252  0.7885  1.9521 -1.0835
   8923SM   C4S11920   4.169   1.043   6.556  0.0567  0.1287  0.1682
   8923SM   H4S11921   4.200   0.938   6.552  0.9728  0.3877 -4.1150
   8923SM   C5S11922   4.213   1.128   6.650 -0.2278  0.1765  0.0147
   8923SM   H5S11923   4.184   1.234   6.642 -0.7088 -0.0650 -2.1201
   8923SM   C6S11924   4.299   1.085   6.772  0.6641  0.6741  0.0733
   8923SM   H6S11925   4.394   1.142   6.776  0.7353  0.5019  0.9155
   8923SM   H6T11926   4.333   0.979   6.768  1.4072  0.9275 -0.9122
   8923SM   C7S11927   4.219   1.102   6.897  0.4237 -0.0524 -0.0285
   8923SM   H7S11928   4.158   1.194   6.893  0.0720 -0.3085 -2.5934
   8923SM   H7T11929   4.297   1.091   6.975  2.5635 -3.5675 -2.3640
   8923SM   C8S11930   4.121   0.985   6.923  0.4820  0.3798  0.4457
   8923SM   H8S11931   4.183   0.894   6.944 -0.2157 -0.0494  0.6843
   8923SM   H8T11932   4.051   0.982   6.837 -1.7670  1.1289  2.1540
   8923SM   C9S11933   4.024   1.010   7.045 -0.0583 -0.1259  0.1754
   8923SM   H9S11934   3.946   0.930   7.035  1.9200 -2.0774 -0.6047
   8923SM   H9T11935   3.970   1.104   7.020 -0.2796  0.0229  1.1842
   8923SM  C10S11936   4.082   0.990   7.188  0.5757 -0.5188  0.0269
   8923SM  H10S11937   4.146   1.078   7.211 -1.8862  1.6668 -0.8927
   8923SM  H10T11938   4.143   0.897   7.190  1.9665  0.3771  1.6866
   8923SM  C11S11939   3.959   0.967   7.276 -0.0028  0.1572  0.1439
   8923SM  H11S11940   3.911   0.867   7.261  0.2531 -0.1652  1.3764
   8923SM  H11T11941   3.883   1.047   7.265  2.8720  3.3108  1.5545
   8923SM  C12S11942   3.999   0.963   7.430  0.4970  0.1146 -0.2732
   8923SM  H12S11943   4.045   1.065   7.432  1.5581 -0.2714 -1.9625
   8923SM  H12T11944   4.078   0.889   7.454  1.5080  0.1936 -3.0021
   8923SM  C13S11945   3.884   0.951   7.527  0.4587 -0.1468 -0.4367
   8923SM  H13S11946   3.827   0.858   7.510 -4.4506  2.6165 -0.9124
   8923SM  H13T11947   3.810   1.033   7.511 -0.3950 -0.9364 -0.5742
   8923SM  C14S11948   3.911   0.964   7.678 -0.3961  0.3095 -0.5624
   8923SM  H14S11949   3.823   0.990   7.740  1.9235  0.5302  2.9249
   8923SM  H14T11950   3.977   1.052   7.688  1.5763 -1.2806  1.6836
   8923SM  C15S11951   3.970   0.835   7.734  0.3267 -0.3022  0.0247
   8923SM  H15S11952   4.066   0.823   7.679  0.4164 -0.2916  0.1763
   8923SM  H15T11953   3.904   0.748   7.715  1.3653 -1.0879 -0.0612
   8923SM  C16S11954   4.000   0.850   7.884 -0.4563  1.1856 -0.1122
   8923SM  H16S11955   3.986   0.752   7.935 -0.0793  1.3206  0.2527
   8923SM  H16T11956   3.922   0.921   7.919 -2.7674 -0.9999 -0.5226
   8923SM  C17S11957   4.133   0.908   7.923  0.6633 -0.5615 -0.2041
   8923SM  H17S11958   4.140   0.922   8.033 -1.3102 -0.8140 -0.0103
   8923SM  H17T11959   4.138   1.012   7.884  0.3240 -0.5240 -0.1540
   8923SM  C18S11960   4.248   0.815   7.874  0.1839  0.0008  0.4283
   8923SM  H18S11961   4.217   0.709   7.886  1.8739 -0.4012  1.7501
   8923SM  H18T11962   4.341   0.838   7.930 -0.4698 -0.0249  1.5531
   8923SM  H18U11963   4.266   0.829   7.766 -1.7211  1.1564  0.2254
   8923SM   C1F11964   3.743   0.950   6.569 -0.8391 -0.3942 -0.5981
   8923SM    OF11965   3.715   0.853   6.493  0.0788 -0.0330 -0.5738
   8923SM   C2F11966   3.645   0.992   6.673  0.3647  0.4702 -0.3841
   8923SM   H2F11967   3.556   1.036   6.623 -2.5325 -1.9417  2.2563
   8923SM   H2G11968   3.682   1.073   6.740 -2.2081  1.9992 -0.6792
   8923SM   C3F11969   3.605   0.872   6.764 -0.2758 -0.7068 -0.9822
   8923SM   H3F11970   3.540   0.799   6.712  0.4650 -3.2966  1.4420
   8923SM   H3G11971   3.540   0.911   6.845  0.1181  1.8402 -1.8057
   8923SM   C4F11972   3.727   0.790   6.821  0.6835  0.0148  0.3566
   8923SM   H4F11973   3.814   0.857   6.837  1.0658 -0.7562  1.6797
   8923SM   H4G11974   3.748   0.717   6.740 -0.8214 -0.0934  0.0465
   8923SM   C5F11975   3.692   0.723   6.958  0.1349  0.6178 -0.3165
   8923SM   H5F11976   3.778   0.662   6.993 -0.2364  0.4339  0.2889
   8923SM   H5G11977   3.608   0.659   6.923 -0.1672  0.5476  0.5210
   8923SM   C6F11978   3.647   0.827   7.064  0.1064  1.0389 -0.8257
   8923SM   H6F11979   3.549   0.874   7.040  0.1101  2.3707  1.4985
   8923SM   H6G11980   3.722   0.904   7.090  0.2943 -0.7234  5.1968
   8923SM   C7F11981   3.642   0.768   7.205  0.6765 -0.3506  0.2805
   8923SM   H7F11982   3.743   0.730   7.230  0.0883 -2.1491  0.1163
   8923SM   H7G11983   3.580   0.678   7.184  1.2101 -0.2400 -2.0217
   8923SM   C8F11984   3.580   0.865   7.308  0.2918  0.4041  0.1982
   8923SM   H8F11985   3.489   0.912   7.266 -0.3420 -1.5847 -0.8045
   8923SM   H8G11986   3.645   0.951   7.335  0.2046  0.6262 -0.2785
   8923SM   C9F11987   3.537   0.794   7.439  0.0730 -0.2683 -0.4114
   8923SM   H9F11988   3.623   0.740   7.483 -0.8188 -0.0603  1.7114
   8923SM   H9G11989   3.457   0.718   7.428 -0.3145  0.1332 -0.4396
   8923SM  C10F11990   3.505   0.907   7.544  0.4785 -0.1767 -0.3570
   8923SM  H10F11991   3.435   0.990   7.519 -1.7643 -1.3058  1.6760
   8923SM  H10G11992   3.598   0.951   7.585 -0.6635  0.8733  1.2500
   8923SM  C11F11993   3.446   0.848   7.675  0.2355 -0.0667 -0.5441
   8923SM  H11F11994   3.474   0.741   7.687 -1.1317 -0.1954  2.2872
   8923SM  H11G11995   3.336   0.860   7.665  0.3298  2.4350  0.6651
   8923SM  C12F11996   3.478   0.931   7.800 -0.5389 -0.8802 -0.1511
   8923SM  H12F11997   3.487   1.037   7.768  3.3214 -1.0321 -0.0952
   8923SM  H12G11998   3.582   0.912   7.836  0.1059  0.3060 -1.2886
   8923SM  C13F11999   3.390   0.901   7.920  0.2970 -0.6052  1.3529
   8923SM  H13F12000   3.382   0.791   7.936  0.0467 -0.8652 -0.3069
   8923SM  H13G12001   3.288   0.937   7.896  0.7370 -0.5045 -0.5944
   8923SM  C14F12002   3.436   0.975   8.050 -0.2962  0.2767  0.8398
   8923SM  H14F12003   3.448   1.083   8.027  2.6914 -0.8536 -4.3741
   8923SM  H14G12004   3.535   0.934   8.076 -0.6983 -0.7097  0.8401
   8923SM  C15F12005   3.331   0.963   8.158  0.2813 -0.2379 -0.0168
   8923SM  H15F12006   3.302   0.856   8.165 -1.4600  0.2495  0.8050
   8923SM  H15G12007   3.241   1.022   8.129  1.6565  1.3959 -1.1750
   8923SM  C16F12008   3.385   1.007   8.292  0.0807 -0.0986 -0.0612
   8923SM  H16F12009   3.445   1.100   8.295 -0.4187  0.4218 -3.1399
   8923SM  H16G12010   3.439   0.921   8.338 -1.3448 -0.5630  0.8277
   8923SM  C17F12011   3.269   1.020   8.393  0.1026 -0.2176 -0.6746
   8923SM  H17F12012   3.193   0.944   8.366 -1.1566  0.2141  1.3861
   8923SM  H17G12013   3.232   1.122   8.370  2.4174  0.8492  0.1048
   8923SM  C18F12014   3.321   1.012   8.546 -0.2697  0.5559  0.2950
   8923SM  H18F12015   3.403   1.088   8.543  1.8141 -1.5221  1.4017
   8923SM  H18G12016   3.372   0.914   8.553  1.2541  1.3452  0.9751
   8923SM  C19F12017   3.221   1.036   8.665  0.0087  0.8969 -0.3620
   8923SM  H19F12018   3.289   1.034   8.753  1.6329 -1.8865 -1.5603
   8923SM  H19G12019   3.155   0.947   8.673  1.2943 -0.5754 -4.0500
   8923SM  C20F12020   3.140   1.159   8.659  0.2833 -0.4561  0.0771
   8923SM  H20F12021   3.076   1.154   8.568 -2.4925 -1.6723  1.9640
   8923SM  H20G12022   3.203   1.249   8.641 -1.0576  0.6171  0.5474
   8923SM  C21F12023   3.057   1.182   8.785 -0.0944 -0.5361  0.3171
   8923SM  H21F12024   2.981   1.100   8.789  1.0259 -1.6464 -0.2949
   8923SM  H21G12025   2.992   1.269   8.760  1.6330  0.8639  0.5402
   8923SM  C22F12026   3.125   1.173   8.922 -0.6602 -1.0233  0.2760
   8923SM  H22F12027   3.196   1.257   8.936  0.3019 -2.0660  2.0454
   8923SM  H22G12028   3.198   1.089   8.923  1.6140  0.8412 -0.7240
   8923SM  C23F12029   3.035   1.160   9.042 -0.1308 -0.4181  0.1593
   8923SM  H23F12030   2.967   1.247   9.053  1.3645  0.6028  2.0364
   8923SM  H23G12031   3.088   1.146   9.139  1.0247 -0.5401 -0.4722
   8923SM  H23H12032   2.977   1.068   9.023  2.1903 -1.9633  0.2329
   9023SM     N12033   4.819   0.368   6.343 -0.1337  0.1094  0.1708
   9023SM   C1512034   4.948   0.420   6.313 -1.0063 -0.5593  0.5558
   9023SM  H15A12035   4.977   0.388   6.214 -1.8834 -0.6727  0.3268
   9023SM  H15B12036   5.023   0.384   6.382  0.1404 -1.0585 -0.8925
   9023SM  H15C12037   4.956   0.527   6.303 -0.1244 -0.6005  0.7106
   9023SM   C1412038   4.763   0.427   6.475  0.0146  1.0143  0.2375
   9023SM  H14A12039   4.835   0.412   6.554  0.4148 -2.8101 -0.6867
   9023SM  H14B12040   4.670   0.382   6.506  1.3570 -1.1044  1.4221
   9023SM  H14C12041   4.760   0.535   6.467  0.7639  0.9265 -1.9876
   9023SM   C1312042   4.730   0.406   6.224  0.2889 -0.1274 -0.6042
   9023SM  H13A12043   4.750   0.508   6.196  3.9723 -0.8632 -1.0937
   9023SM  H13B12044   4.626   0.386   6.246  0.4221  0.0156  0.1970
   9023SM  H13C12045   4.762   0.348   6.139  0.1575 -1.2629  0.1045
   9023SM   C1212046   4.818   0.213   6.356 -0.3925 -0.2644 -0.1216
   9023SM  H12A12047   4.725   0.188   6.404 -0.0621  2.7609  2.4616
   9023SM  H12B12048   4.897   0.193   6.427 -0.1317  1.1600  0.0219
   9023SM   C1112049   4.845   0.127   6.232  0.3205  0.3195  0.3760
   9023SM  H11A12050   4.876   0.026   6.267  0.6067 -1.2025 -3.7166
   9023SM  H11B12051   4.934   0.168   6.180 -0.7276  0.3454 -1.4728
   9023SM     P12052   4.618   0.020   6.161  0.2367  0.0429  0.1693
   9023SM   O1312053   4.502   0.071   6.087  0.7233  0.0094  0.2700
   9023SM   O1412054   4.663  -0.118   6.124  0.6162  0.1118 -0.5027
   9023SM   O1112055   4.591   0.039   6.314 -0.4004  0.4189 -0.5234
   9023SM   O1212056   4.739   0.127   6.136  0.0080  1.0174 -0.2009
   9023SM   C1S12057   4.563  -0.081   6.392 -0.4345  0.4641 -0.8988
   9023SM   H1S12058   4.650  -0.149   6.395 -0.0126  1.0324  0.6716
   9023SM   H1T12059   4.473  -0.133   6.354 -0.3612 -0.7974  0.5709
   9023SM    NF12060   4.546  -0.157   6.619  0.2793  0.3539 -0.3283
   9023SM   HNF12061   4.465  -0.215   6.626  0.7064 -0.5343 -2.0820
   9023SM   C2S12062   4.541  -0.039   6.537 -0.2291  0.2958  0.0741
   9023SM   H2S12063   4.620   0.030   6.572 -0.9875  1.1158  0.2100
   9023SM   C3S12064   4.411   0.051   6.555 -0.4135  0.3715 -0.7266
   9023SM   H3S12065   4.321  -0.010   6.535 -1.8338  1.5714  1.5645
   9023SM    O312066   4.424   0.168   6.473 -0.1539 -0.0660 -0.0322
   9023SM   HO312067   4.504   0.150   6.424 -0.6066  0.1305 -0.8685
   9023SM   C4S12068   4.395   0.084   6.701 -0.8388 -0.5359 -0.4169
   9023SM   H4S12069   4.354   0.004   6.765  1.1279 -1.3736 -0.1157
   9023SM   C5S12070   4.434   0.205   6.759  0.5675 -0.2887 -0.3429
   9023SM   H5S12071   4.481   0.287   6.704  2.3214 -1.0117  0.0195
   9023SM   C6S12072   4.431   0.248   6.904  0.4244 -0.4175  0.5397
   9023SM   H6S12073   4.358   0.331   6.916  2.5198  1.7292 -0.6554
   9023SM   H6T12074   4.529   0.294   6.929  1.2858 -0.7495 -1.9157
   9023SM   C7S12075   4.399   0.144   7.007  0.0020  0.3354 -0.2135
   9023SM   H7S12076   4.467   0.059   6.986  0.7966  0.9357 -0.1312
   9023SM   H7T12077   4.293   0.113   6.992  0.0525  0.6399 -1.3173
   9023SM   C8S12078   4.404   0.189   7.157  0.2041 -0.0233 -0.1647
   9023SM   H8S12079   4.327   0.268   7.169 -0.3653 -0.8727  2.7855
   9023SM   H8T12080   4.500   0.234   7.190  1.4496 -1.5592 -1.4968
   9023SM   C9S12081   4.362   0.079   7.257 -0.4090  0.3020 -0.1229
   9023SM   H9S12082   4.426  -0.011   7.251  0.6612  1.0671 -0.4818
   9023SM   H9T12083   4.264   0.044   7.217 -0.2233  0.3850 -0.6586
   9023SM  C10S12084   4.343   0.131   7.405  0.5104 -0.6946 -0.2195
   9023SM  H10S12085   4.253   0.196   7.405 -0.5276 -2.0726  0.8866
   9023SM  H10T12086   4.432   0.195   7.426  1.0679 -0.6581 -2.4411
   9023SM  C11S12087   4.319   0.017   7.498  0.1586 -0.2356 -0.1241
   9023SM  H11S12088   4.414  -0.033   7.524 -0.6465 -1.0432  1.4132
   9023SM  H11T12089   4.255  -0.064   7.458  0.3253 -1.1691  1.4049
   9023SM  C12S12090   4.262   0.080   7.625  0.3056 -0.0160  0.0676
   9023SM  H12S12091   4.156   0.105   7.605  0.8226  0.6245 -2.1940
   9023SM  H12T12092   4.322   0.171   7.649 -0.4171  0.9131 -1.5143
   9023SM  C13S12093   4.270  -0.011   7.750  0.1337  0.0009  0.7429
   9023SM  H13S12094   4.374  -0.049   7.764  0.5520  1.6171  2.3790
   9023SM  H13T12095   4.209  -0.099   7.720 -1.4188  1.3463 -0.1807
   9023SM  C14S12096   4.226   0.055   7.885  1.1139 -0.4031  0.4220
   9023SM  H14S12097   4.123   0.096   7.872  1.9986  1.3897 -1.6265
   9023SM  H14T12098   4.302   0.132   7.910  0.8181 -0.0587  0.2599
   9023SM  C15S12099   4.219  -0.032   8.002 -0.4918 -0.6094  0.0051
   9023SM  H15S12100   4.319  -0.062   8.039 -0.4163  1.2923  1.4997
   9023SM  H15T12101   4.162  -0.123   7.975 -2.0979  0.0819  0.9390
   9023SM  C16S12102   4.135   0.029   8.117  0.5707 -0.0375 -0.4422
   9023SM  H16S12103   4.035   0.051   8.074  0.7342 -0.5634 -1.1094
   9023SM  H16T12104   4.187   0.121   8.150  0.8030 -0.0580 -0.7464
   9023SM  C17S12105   4.130  -0.075   8.236  0.3786 -0.2790  0.1214
   9023SM  H17S12106   4.228  -0.127   8.240 -0.2766 -1.4982  1.0915
   9023SM  H17T12107   4.052  -0.153   8.222  1.1981 -0.6792 -2.7157
   9023SM  C18S12108   4.094   0.001   8.364 -0.0062 -0.1727  0.1877
   9023SM  H18S12109   4.102  -0.070   8.449  1.6124 -0.8201 -0.4560
   9023SM  H18T12110   3.995   0.052   8.364 -0.5485 -1.2038  0.0776
   9023SM  H18U12111   4.176   0.075   8.375 -0.0467  0.1408 -1.3466
   9023SM   C1F12112   4.661  -0.222   6.645  0.7363 -0.1490  1.2199
   9023SM    OF12113   4.771  -0.173   6.626  0.2680 -0.0706  0.0292
   9023SM   C2F12114   4.651  -0.364   6.696  0.6925 -0.4014  0.6258
   9023SM   H2F12115   4.698  -0.434   6.623 -0.2311 -0.6837  0.2936
   9023SM   H2G12116   4.543  -0.389   6.704  0.4690  0.6644  1.0910
   9023SM   C3F12117   4.717  -0.386   6.834  0.3882 -0.2416 -0.2041
   9023SM   H3F12118   4.824  -0.361   6.822  0.3702 -0.5916 -1.1679
   9023SM   H3G12119   4.694  -0.493   6.853  2.1908 -0.6460 -0.1522
   9023SM   C4F12120   4.656  -0.298   6.940 -0.8347  0.6488 -0.5907
   9023SM   H4F12121   4.660  -0.190   6.914 -0.0215  0.7398 -0.1011
   9023SM   H4G12122   4.712  -0.307   7.035  1.5005  1.1273 -1.8628
   9023SM   C5F12123   4.523  -0.358   6.984 -0.0016 -0.2481  0.8385
   9023SM   H5F12124   4.542  -0.465   7.007  2.2621 -0.3347 -1.0636
   9023SM   H5G12125   4.457  -0.344   6.895  3.7256  1.2761 -1.9872
   9023SM   C6F12126   4.449  -0.302   7.100  0.5301 -0.0167 -0.9230
   9023SM   H6F12127   4.427  -0.196   7.075 -0.3059 -0.3695 -1.7363
   9023SM   H6G12128   4.517  -0.319   7.186  0.0481  1.1285 -0.2932
   9023SM   C7F12129   4.312  -0.375   7.124  0.6063 -0.1024  1.1591
   9023SM   H7F12130   4.322  -0.485   7.129 -0.0278 -0.1311  1.7960
   9023SM   H7G12131   4.249  -0.353   7.035  0.6857 -1.9175  0.6067
   9023SM   C8F12132   4.233  -0.338   7.248 -0.6090  0.0829 -0.6257
   9023SM   H8F12133   4.133  -0.387   7.243 -1.2143  1.3892 -2.4104
   9023SM   H8G12134   4.214  -0.228   7.249 -1.9407 -0.0979 -2.1646
   9023SM   C9F12135   4.301  -0.369   7.378 -0.4745  0.3634 -0.3565
   9023SM   H9F12136   4.379  -0.292   7.393 -0.3898 -0.0916  1.8523
   9023SM   H9G12137   4.350  -0.468   7.362  0.7407  0.7660  0.6903
   9023SM  C10F12138   4.216  -0.358   7.504  0.5218 -0.8247 -0.3000
   9023SM  H10F12139   4.124  -0.420   7.504 -0.1979  0.2151  0.3062
   9023SM  H10G12140   4.197  -0.250   7.516  0.8265 -0.7534 -0.4343
   9023SM  C11F12141   4.294  -0.407   7.635 -0.9431 -0.8616  0.9169
   9023SM  H11F12142   4.379  -0.337   7.649 -2.6808  1.7967 -0.7972
   9023SM  H11G12143   4.339  -0.502   7.601 -1.4684 -0.8056  0.0317
   9023SM  C12F12144   4.212  -0.436   7.758 -0.0561  0.4086 -0.9997
   9023SM  H12F12145   4.108  -0.464   7.731 -1.0244  0.8294  1.9052
   9023SM  H12G12146   4.205  -0.348   7.827 -2.2880 -2.3515  2.6767
   9023SM  C13F12147   4.283  -0.541   7.841  0.2483  0.0694  0.3473
   9023SM  H13F12148   4.385  -0.502   7.859  0.2361 -0.3253  1.3087
   9023SM  H13G12149   4.295  -0.640   7.792  1.0474 -0.1649  0.9954
   9023SM  C14F12150   4.227  -0.543   7.981 -0.9638  0.9762 -0.0665
   9023SM  H14F12151   4.231  -0.647   8.021 -1.9169 -1.0268 -4.4845
   9023SM  H14G12152   4.118  -0.522   7.990 -1.4555 -1.1882 -0.2827
   9023SM  C15F12153   4.292  -0.449   8.083  1.1453 -0.4571 -0.6281
   9023SM  H15F12154   4.293  -0.347   8.039 -0.0524  0.3309  1.0954
   9023SM  H15G12155   4.396  -0.484   8.105  0.6217 -1.5700  0.1739
   9023SM  C16F12156   4.213  -0.434   8.219 -0.7996 -0.0439 -0.3777
   9023SM  H16F12157   4.117  -0.379   8.205 -0.8180 -0.2329 -1.0095
   9023SM  H16G12158   4.282  -0.384   8.291  0.2081 -0.6641 -0.8919
   9023SM  C17F12159   4.182  -0.567   8.293  0.5678  0.3029  0.8152
   9023SM  H17F12160   4.275  -0.616   8.329  0.5028  1.4330  2.6640
   9023SM  H17G12161   4.125  -0.632   8.223  0.2151  1.4150  0.0446
   9023SM  C18F12162   4.098  -0.547   8.421  0.2280  0.3100 -0.7411
   9023SM  H18F12163   4.004  -0.491   8.405  0.3895  0.7979 -0.0500
   9023SM  H18G12164   4.149  -0.485   8.499 -0.9669 -0.9764  1.1521
   9023SM  C19F12165   4.074  -0.683   8.483  0.5407  0.1186  0.0392
   9023SM  H19F12166   4.168  -0.742   8.487  0.3207 -0.1558  1.8678
   9023SM  H19G12167   3.999  -0.730   8.416  0.4306 -0.2248  0.3994
   9023SM  C20F12168   4.017  -0.664   8.620  0.4406  0.3534  0.4487
   9023SM  H20F12169   4.073  -0.580   8.666  0.1940  1.1655 -0.7039
   9023SM  H20G12170   4.045  -0.756   8.677 -0.2198 -1.2980 -1.7609
   9023SM  C21F12171   3.860  -0.649   8.620 -0.5416  0.9340  0.0186
   9023SM  H21F12172   3.821  -0.740   8.570 -0.1173  0.6367  0.2237
   9023SM  H21G12173   3.839  -0.560   8.558  0.8655  2.0027  1.0079
   9023SM  C22F12174   3.814  -0.637   8.765  0.2208  0.0342 -0.2282
   9023SM  H22F12175   3.832  -0.736   8.811 -2.5774 -0.8254 -0.8021
   9023SM  H22G12176   3.706  -0.610   8.761  0.8931  2.9910 -1.5624
   9023SM  C23F12177   3.880  -0.529   8.849  0.2288 -0.0841 -0.2731
   9023SM  H23F12178   3.837  -0.505   8.948  0.4534  2.2530 -0.6771
   9023SM  H23G12179   3.872  -0.435   8.790  2.4236  0.3956  0.1002
   9023SM  H23H12180   3.990  -0.539   8.858  0.5268 -0.5623 -3.3118
   9123SM     N12181   6.937   2.982   5.920 -0.0080  0.2835  0.6406
   9123SM   C1512182   6.991   2.898   5.808 -0.0273 -0.0105  0.9159
   9123SM  H15A12183   7.090   2.930   5.782  1.1045 -3.7883 -0.0758
   9123SM  H15B12184   6.930   2.900   5.719  5.2546  0.4647 -3.2014
   9123SM  H15C12185   6.996   2.794   5.836  1.4624 -0.6268 -1.3941
   9123SM   C1412186   6.945   3.129   5.877 -0.6685 -0.0917 -0.2460
   9123SM  H14A12187   6.887   3.177   5.955 -0.1627 -0.0931  0.1391
   9123SM  H14B12188   6.909   3.151   5.778 -0.7978  0.9329  0.0168
   9123SM  H14C12189   7.043   3.172   5.891 -0.7301  0.2589 -0.8715
   9123SM   C1312190   6.796   2.948   5.947 -0.5224  0.4837 -0.2369
   9123SM  H13A12191   6.773   2.993   6.043 -0.4274 -1.2866  0.6559
   9123SM  H13B12192   6.781   2.841   5.943 -0.6410  0.5243 -3.0750
   9123SM  H13C12193   6.729   2.998   5.878 -1.2640  2.3694  1.7486
   9123SM   C1212194   7.023   2.959   6.043  0.4677 -0.0905 -0.2705
   9123SM  H12A12195   7.127   2.964   6.014  1.4677 -2.5299  2.4791
   9123SM  H12B12196   7.007   2.858   6.078 -0.1788  0.5639  1.4611
   9123SM   C1112197   7.016   3.047   6.169 -0.3172 -0.2130 -0.4438
   9123SM  H11A12198   7.030   3.153   6.138  0.5636 -0.1225  0.2302
   9123SM  H11B12199   7.100   3.016   6.234  0.1311 -2.4357 -1.9713
   9123SM     P12200   6.791   3.133   6.271 -0.0899 -0.2616  0.0419
   9123SM   O1312201   6.826   3.200   6.402 -0.0408 -0.3888 -0.0516
   9123SM   O1412202   6.764   3.224   6.156  0.2662 -0.3623  0.0229
   9123SM   O1112203   6.657   3.050   6.298 -0.9267 -0.1567 -0.1024
   9123SM   O1212204   6.893   3.020   6.238 -0.3925  0.0422 -0.2892
   9123SM   C1S12205   6.654   2.954   6.406 -0.1565  0.1121 -0.4060
   9123SM   H1S12206   6.757   2.919   6.425  0.0975  1.4239  0.8711
   9123SM   H1T12207   6.593   2.869   6.369  1.4562 -0.7986 -1.0575
   9123SM    NF12208   6.584   2.901   6.640 -0.2203  0.3621 -0.0638
   9123SM   HNF12209   6.491   2.877   6.667  0.4473 -1.3431  0.8941
   9123SM   C2S12210   6.593   3.005   6.538  0.0210 -0.3625 -0.4964
   9123SM   H2S12211   6.654   3.091   6.571 -0.2582  0.5391 -2.2108
   9123SM   C3S12212   6.459   3.074   6.512  0.5834 -0.2685  0.0053
   9123SM   H3S12213   6.388   3.005   6.460  2.3329 -2.2010  0.0691
   9123SM    O312214   6.467   3.193   6.430  0.2700 -0.7539 -0.3966
   9123SM   HO312215   6.547   3.169   6.383 -0.2708  0.2612 -1.9224
   9123SM   C4S12216   6.399   3.119   6.641  0.4673  0.0473  0.6219
   9123SM   H4S12217   6.458   3.183   6.708 -1.5099 -1.0607  3.6758
   9123SM   C5S12218   6.278   3.099   6.687  0.1213 -0.2316  0.2246
   9123SM   H5S12219   6.215   3.033   6.625  0.5785 -2.3815  1.9215
   9123SM   C6S12220   6.215   3.141   6.816 -0.3980 -0.2632 -0.4341
   9123SM   H6S12221   6.222   3.062   6.894 -1.9511  0.0903  0.1006
   9123SM   H6T12222   6.106   3.154   6.797 -0.1115  0.6331 -1.6360
   9123SM   C7S12223   6.282   3.265   6.887 -0.3146 -0.0129  0.6272
   9123SM   H7S12224   6.277   3.339   6.805  0.5322 -1.0402 -0.3819
   9123SM   H7T12225   6.383   3.250   6.930 -0.3945  0.0093  0.8245
   9123SM   C8S12226   6.203   3.310   7.012 -0.0223 -0.2844  0.3801
   9123SM   H8S12227   6.182   3.218   7.071  1.3255  0.5524  2.2488
   9123SM   H8T12228   6.109   3.364   6.985  0.5913  0.6101  0.0141
   9123SM   C9S12229   6.293   3.409   7.092  0.7354  0.3675  0.2316
   9123SM   H9S12230   6.324   3.500   7.037  1.4743 -0.1199 -0.1723
   9123SM   H9T12231   6.389   3.355   7.108  2.2992  1.8391 -3.1257
   9123SM  C10S12232   6.227   3.450   7.227  0.2830  0.4598  0.4666
   9123SM  H10S12233   6.142   3.513   7.194  0.6909  0.6145 -0.3142
   9123SM  H10T12234   6.291   3.524   7.281 -0.3830 -1.0331  3.5396
   9123SM  C11S12235   6.199   3.331   7.330  0.0881 -0.0762  0.1720
   9123SM  H11S12236   6.117   3.272   7.283  0.5082  0.5370 -1.3849
   9123SM  H11T12237   6.147   3.376   7.417  0.0016  1.1563 -0.5002
   9123SM  C12S12238   6.307   3.229   7.377  0.1112  0.0461 -0.0564
   9123SM  H12S12239   6.394   3.294   7.401 -0.3642  0.3537  0.8664
   9123SM  H12T12240   6.341   3.173   7.286  0.3342  1.1686 -0.6851
   9123SM  C13S12241   6.263   3.133   7.484  0.3252 -0.2035 -0.0420
   9123SM  H13S12242   6.203   3.057   7.429  0.8099 -0.5328 -0.1215
   9123SM  H13T12243   6.200   3.183   7.560  0.4646 -1.7405  1.1274
   9123SM  C14S12244   6.393   3.069   7.543  0.3926 -0.2077 -0.3621
   9123SM  H14S12245   6.451   3.149   7.593 -0.2056  1.3698 -2.1129
   9123SM  H14T12246   6.446   3.031   7.453 -1.7475 -1.6191 -1.1054
   9123SM  C15S12247   6.372   2.951   7.651  0.8847  0.0596 -0.9421
   9123SM  H15S12248   6.302   2.874   7.614  1.3353 -1.8401  1.8643
   9123SM  H15T12249   6.327   3.006   7.736 -0.4415 -0.4093 -1.3240
   9123SM  C16S12250   6.505   2.870   7.691 -0.0538  0.0197  0.3017
   9123SM  H16S12251   6.582   2.945   7.718 -1.7140  2.6586 -1.8068
   9123SM  H16T12252   6.531   2.817   7.596 -2.1199  0.1290 -0.3653
   9123SM  C17S12253   6.468   2.766   7.799 -0.2020 -0.4647 -0.6237
   9123SM  H17S12254   6.551   2.692   7.805  0.9148  0.6672 -1.5870
   9123SM  H17T12255   6.378   2.713   7.763  0.2693 -2.5785  1.0612
   9123SM  C18S12256   6.453   2.831   7.943  0.3669 -0.5609 -0.4559
   9123SM  H18S12257   6.384   2.918   7.942  0.2230 -0.6173  1.3175
   9123SM  H18T12258   6.550   2.872   7.980  0.7468  0.5952 -2.5786
   9123SM  H18U12259   6.419   2.749   8.010  0.3494 -0.6311 -0.5503
   9123SM   C1F12260   6.693   2.837   6.680 -0.1532  0.5625 -0.2184
   9123SM    OF12261   6.804   2.882   6.662 -0.1695  0.2864 -0.2005
   9123SM   C2F12262   6.669   2.703   6.743 -0.3014  0.1371 -0.5906
   9123SM   H2F12263   6.646   2.630   6.662 -1.9230  1.8220 -1.7230
   9123SM   H2G12264   6.573   2.704   6.799 -1.7207 -1.8027 -2.7735
   9123SM   C3F12265   6.793   2.662   6.827  0.0302  0.5774  0.1110
   9123SM   H3F12266   6.832   2.741   6.894 -2.9687  2.0562  0.2766
   9123SM   H3G12267   6.870   2.641   6.750 -3.1608 -1.3916 -2.8190
   9123SM   C4F12268   6.770   2.525   6.889 -0.9320 -0.1879  0.2375
   9123SM   H4F12269   6.863   2.475   6.924 -0.9061 -1.1100 -1.0844
   9123SM   H4G12270   6.728   2.466   6.806 -1.1838  0.6899 -0.2681
   9123SM   C5F12271   6.662   2.520   7.002 -0.1853  0.6829 -0.5087
   9123SM   H5F12272   6.568   2.571   6.972  0.6683  1.4025 -2.0695
   9123SM   H5G12273   6.705   2.581   7.085  1.7119  0.0901 -1.0027
   9123SM   C6F12274   6.625   2.377   7.056 -0.7218  0.1224 -0.7558
   9123SM   H6F12275   6.563   2.329   6.977  0.6748 -1.9902 -0.6341
   9123SM   H6G12276   6.558   2.379   7.144  0.0350 -0.7464 -0.1493
   9123SM   C7F12277   6.751   2.289   7.088 -0.0904 -0.6118 -0.4695
   9123SM   H7F12278   6.807   2.314   7.180 -0.5877 -1.6386  0.1365
   9123SM   H7G12279   6.817   2.292   6.999 -2.5610  0.3946 -2.3805
   9123SM   C8F12280   6.717   2.138   7.100  0.8855 -0.6826  0.3017
   9123SM   H8F12281   6.673   2.109   7.002 -0.6788 -0.7685  1.0033
   9123SM   H8G12282   6.636   2.138   7.176  1.7365 -0.1408  1.2423
   9123SM   C9F12283   6.841   2.049   7.132 -0.9070  0.3467  0.3660
   9123SM   H9F12284   6.914   2.081   7.054 -1.0888  0.5894  0.2939
   9123SM   H9G12285   6.825   1.941   7.114  0.5037  0.0947  0.4532
   9123SM  C10F12286   6.896   2.041   7.278  0.2357 -0.2962 -0.0078
   9123SM  H10F12287   6.951   2.132   7.311  1.0938 -0.6521 -0.4411
   9123SM  H10G12288   6.967   1.956   7.285 -0.8135 -1.0663  1.7735
   9123SM  C11F12289   6.786   2.006   7.378  0.4044 -0.2386 -0.1168
   9123SM  H11F12290   6.725   1.920   7.344  0.0102 -0.6292  1.4943
   9123SM  H11G12291   6.711   2.088   7.374  0.5492 -0.1510 -1.0776
   9123SM  C12F12292   6.833   1.998   7.519  0.4485  0.3169 -0.3249
   9123SM  H12F12293   6.863   2.102   7.542 -1.1738  0.3128  2.2418
   9123SM  H12G12294   6.924   1.934   7.529  1.2993  1.6147  0.5630
   9123SM  C13F12295   6.728   1.938   7.616 -0.1548 -0.5577 -0.1879
   9123SM  H13F12296   6.703   1.833   7.588 -1.8420  0.6150 -3.6184
   9123SM  H13G12297   6.626   1.976   7.593  0.2597 -0.6275 -2.3672
   9123SM  C14F12298   6.764   1.936   7.766 -0.0370  0.3346 -0.7380
   9123SM  H14F12299   6.691   1.882   7.830 -0.5884  0.2126 -1.4593
   9123SM  H14G12300   6.748   2.043   7.791 -1.1196 -0.1442  0.6992
   9123SM  C15F12301   6.900   1.880   7.799  0.3102 -0.2415  0.4681
   9123SM  H15F12302   6.979   1.955   7.777 -0.8244  1.5317  2.1731
   9123SM  H15G12303   6.935   1.796   7.736 -1.6436  1.0328 -2.5624
   9123SM  C16F12304   6.911   1.834   7.938 -0.1051 -0.2378 -0.0064
   9123SM  H16F12305   6.844   1.752   7.970 -0.2517  0.4690  1.6098
   9123SM  H16G12306   6.875   1.917   8.003  1.7558  1.8235 -1.4461
   9123SM  C17F12307   7.050   1.804   7.994 -0.3154 -0.1201 -0.0202
   9123SM  H17F12308   7.069   1.865   8.085  0.9992  1.8192 -1.5143
   9123SM  H17G12309   7.124   1.831   7.916  1.1229  0.3612  1.4533
   9123SM  C18F12310   7.060   1.657   8.022 -0.2781  0.1245  0.2320
   9123SM  H18F12311   7.022   1.596   7.937 -1.3016  2.0652 -0.7902
   9123SM  H18G12312   7.004   1.617   8.109  1.1581 -0.2783  0.9979
   9123SM  C19F12313   7.203   1.605   8.052  0.0030 -0.1550 -0.3325
   9123SM  H19F12314   7.200   1.503   8.097  0.6594 -1.1536 -2.4554
   9123SM  H19G12315   7.238   1.673   8.133  0.2025  0.3275 -0.8210
   9123SM  C20F12316   7.302   1.606   7.929 -0.2030  1.2522  0.4837
   9123SM  H20F12317   7.289   1.704   7.878 -3.3467 -0.4291 -2.3279
   9123SM  H20G12318   7.272   1.522   7.863  2.4677  0.2423  0.4245
   9123SM  C21F12319   7.442   1.565   7.986  0.1230 -0.4699 -0.1807
   9123SM  H21F12320   7.468   1.459   7.964  1.0469 -0.3919  0.4743
   9123SM  H21G12321   7.441   1.588   8.095 -0.4308 -0.5819 -0.1588
   9123SM  C22F12322   7.554   1.671   7.951 -0.6894  1.0694  0.4215
   9123SM  H22F12323   7.508   1.772   7.959  1.9629  2.3146  1.2732
   9123SM  H22G12324   7.592   1.643   7.851  1.0682 -3.8523  2.1751
   9123SM  C23F12325   7.672   1.675   8.049 -0.2349 -0.0384  0.0198
   9123SM  H23F12326   7.716   1.573   8.056 -2.5450 -1.0172  1.4894
   9123SM  H23G12327   7.638   1.714   8.147 -1.2078 -0.1195 -0.2749
   9123SM  H23H12328   7.748   1.745   8.008  0.0354 -0.9583 -1.1284
   9223SM     N12329   4.133   0.092   6.150 -0.1599 -0.0167  0.1180
   9223SM   C1512330   4.136   0.239   6.170  0.6138  0.0970  0.3674
   9223SM  H15A12331   4.228   0.288   6.143  0.6304 -1.0415 -1.8313
   9223SM  H15B12332   4.098   0.270   6.266 -0.5927  0.9639 -0.3663
   9223SM  H15C12333   4.058   0.272   6.104 -0.3050 -2.2208  0.1773
   9223SM   C1412334   4.200   0.048   6.021  0.3751 -0.5064  0.5232
   9223SM  H14A12335   4.303   0.080   6.016  0.3909 -0.5924  0.3023
   9223SM  H14B12336   4.140   0.090   5.942  0.2348 -0.1908  0.7927
   9223SM  H14C12337   4.206  -0.059   6.016  0.4460 -0.4432 -1.3134
   9223SM   C1312338   4.209   0.030   6.263 -0.6933  0.4770 -0.5922
   9223SM  H13A12339   4.204  -0.077   6.248  1.9584  0.3677 -1.1427
   9223SM  H13B12340   4.169   0.071   6.355  0.9187  2.3410 -0.6425
   9223SM  H13C12341   4.314   0.054   6.265  0.4024 -3.5242 -1.1238
   9223SM   C1212342   3.995   0.043   6.159 -0.7314  0.0344  0.4517
   9223SM  H12A12343   3.965   0.070   6.259  0.9988 -0.7092  1.2123
   9223SM  H12B12344   3.997  -0.064   6.145  0.4405 -0.1281  1.6289
   9223SM   C1112345   3.898   0.107   6.057  0.5993  0.3685 -0.6327
   9223SM  H11A12346   3.805   0.047   6.064  1.1074 -0.4430 -0.7165
   9223SM  H11B12347   3.940   0.104   5.954  1.4864  0.5210 -0.2859
   9223SM     P12348   3.741   0.320   6.090 -0.2780  0.3370  0.1751
   9223SM   O1312349   3.770   0.460   6.056  0.6482  0.1826 -0.0621
   9223SM   O1412350   3.646   0.249   6.000 -0.8326 -0.4899  0.1737
   9223SM   O1112351   3.685   0.306   6.240  0.4553  0.7698  0.2323
   9223SM   O1212352   3.876   0.240   6.096  0.3177 -0.2672 -0.5941
   9223SM   C1S12353   3.777   0.307   6.348 -0.5691 -0.4507  0.4121
   9223SM   H1S12354   3.795   0.410   6.385 -0.0754 -0.4326  0.1399
   9223SM   H1T12355   3.876   0.261   6.326 -0.4791 -0.6966  1.2994
   9223SM    NF12356   3.841   0.228   6.573 -0.1868  0.2076  0.4060
   9223SM   HNF12357   3.919   0.168   6.556 -1.7477 -1.2010 -2.5688
   9223SM   C2S12358   3.734   0.217   6.472  0.5472  0.8081 -0.0453
   9223SM   H2S12359   3.645   0.266   6.517  2.5384  3.6438  1.1264
   9223SM   C3S12360   3.689   0.071   6.430 -0.6423  0.2506  0.0674
   9223SM   H3S12361   3.778   0.013   6.396 -1.6129 -1.4371  0.3003
   9223SM    O312362   3.601   0.076   6.319 -0.5180  0.0567  0.1505
   9223SM   HO312363   3.604   0.166   6.286 -1.2261 -0.1324 -0.4534
   9223SM   C4S12364   3.620   0.006   6.544  0.4870 -0.3206 -0.2648
   9223SM   H4S12365   3.520   0.050   6.560  0.3604 -0.4297 -0.7440
   9223SM   C5S12366   3.664  -0.089   6.629  0.4515 -0.5420 -0.0642
   9223SM   H5S12367   3.773  -0.105   6.620  1.4058  3.5513  1.7507
   9223SM   C6S12368   3.598  -0.137   6.753  0.1888 -0.2115  0.0411
   9223SM   H6S12369   3.573  -0.245   6.762 -0.6453 -0.1178 -0.9515
   9223SM   H6T12370   3.503  -0.082   6.770  0.0089 -0.3473 -0.5008
   9223SM   C7S12371   3.683  -0.083   6.869  0.0791  0.2158  0.2102
   9223SM   H7S12372   3.671   0.026   6.892  0.4541  0.0719  1.1441
   9223SM   H7T12373   3.790  -0.096   6.845  0.3565  1.7919  0.4266
   9223SM   C8S12374   3.658  -0.155   7.003 -0.1098 -0.8461 -0.3000
   9223SM   H8S12375   3.698  -0.257   6.993  0.3728 -0.7745  0.8558
   9223SM   H8T12376   3.549  -0.176   7.008  0.0965 -1.9276 -0.1332
   9223SM   C9S12377   3.708  -0.092   7.130  0.2743  0.1529  0.6587
   9223SM   H9S12378   3.666  -0.155   7.212 -0.5209  1.0124  0.9285
   9223SM   H9T12379   3.663   0.009   7.146 -1.1984 -0.2292 -0.8006
   9223SM  C10S12380   3.866  -0.072   7.134  0.3083  0.0319 -0.4747
   9223SM  H10S12381   3.897   0.007   7.061 -0.5848  0.4425 -0.4115
   9223SM  H10T12382   3.918  -0.169   7.116  1.7487  0.8803 -1.1354
   9223SM  C11S12383   3.905  -0.019   7.269 -0.1579 -0.1201  0.3046
   9223SM  H11S12384   3.828   0.056   7.296 -0.1510  0.3479 -0.9299
   9223SM  H11T12385   4.011   0.011   7.279 -0.3094  0.4042  0.3231
   9223SM  C12S12386   3.895  -0.126   7.382 -0.0710  0.1144 -0.6935
   9223SM  H12S12387   3.980  -0.196   7.364 -0.5919 -0.5721 -0.5596
   9223SM  H12T12388   3.805  -0.189   7.361  0.7226 -0.8985 -1.1510
   9223SM  C13S12389   3.917  -0.075   7.525  0.0609 -0.0142  0.4970
   9223SM  H13S12390   3.854   0.016   7.537  1.8544  1.4079 -0.3553
   9223SM  H13T12391   4.021  -0.046   7.553  0.1362 -1.2738  1.5904
   9223SM  C14S12392   3.876  -0.174   7.639  0.6144  0.6828  0.3426
   9223SM  H14S12393   3.965  -0.242   7.637  0.7261  0.8372 -1.1793
   9223SM  H14T12394   3.788  -0.234   7.607  0.6046  0.3853  0.9082
   9223SM  C15S12395   3.836  -0.124   7.777 -0.0985 -0.5961  0.4726
   9223SM  H15S12396   3.729  -0.094   7.778 -0.1793 -0.4623 -2.3632
   9223SM  H15T12397   3.878  -0.022   7.791 -2.3544  0.6440 -1.0451
   9223SM  C16S12398   3.870  -0.215   7.895 -0.4613  0.6021 -0.7392
   9223SM  H16S12399   3.848  -0.156   7.986 -1.2182  1.6385 -1.5641
   9223SM  H16T12400   3.979  -0.231   7.887 -0.2442  1.3121  0.5233
   9223SM  C17S12401   3.786  -0.343   7.891  0.2451  0.1431 -0.2766
   9223SM  H17S12402   3.778  -0.404   7.798 -1.0740 -0.2841  0.0930
   9223SM  H17T12403   3.686  -0.298   7.906  0.7602  1.9085 -1.7622
   9223SM  C18S12404   3.815  -0.436   8.009 -0.4898 -0.1336 -0.5544
   9223SM  H18S12405   3.728  -0.501   8.030 -0.1185 -0.5308 -0.2337
   9223SM  H18T12406   3.845  -0.378   8.099 -0.1315  0.6371 -1.1589
   9223SM  H18U12407   3.901  -0.499   7.980 -0.2595 -0.1107  0.0621
   9223SM   C1F12408   3.873   0.348   6.635 -0.7380 -0.1439  0.3053
   9223SM    OF12409   3.785   0.437   6.653 -0.2381  0.6931  0.1727
   9223SM   C2F12410   4.018   0.373   6.657  0.0879  0.3355  0.0748
   9223SM   H2F12411   4.055   0.449   6.586 -1.0692  0.3521 -0.5412
   9223SM   H2G12412   4.070   0.276   6.650  2.2936  1.5817 -2.0746
   9223SM   C3F12413   4.043   0.436   6.802  0.1207 -0.8685 -0.5971
   9223SM   H3F12414   3.983   0.530   6.808  0.2323 -0.8020 -0.5114
   9223SM   H3G12415   4.151   0.462   6.802 -0.6204  2.7942  0.5656
   9223SM   C4F12416   4.017   0.341   6.924  0.1700  0.6709  0.7520
   9223SM   H4F12417   4.076   0.247   6.925 -1.6737 -0.5540  0.2140
   9223SM   H4G12418   3.908   0.316   6.925 -0.3581  2.5654 -1.3809
   9223SM   C5F12419   4.038   0.412   7.052  0.1807 -0.3364 -0.0077
   9223SM   H5F12420   3.993   0.511   7.031  2.7306  0.5776 -1.5685
   9223SM   H5G12421   4.147   0.428   7.065  0.2263  0.0410 -0.8258
   9223SM   C6F12422   3.974   0.340   7.176 -0.4904  0.1008  0.1984
   9223SM   H6F12423   4.007   0.234   7.176 -2.5717 -0.6002 -0.4844
   9223SM   H6G12424   3.865   0.333   7.153 -0.8457  1.2710  1.4200
   9223SM   C7F12425   4.010   0.410   7.305  0.8660 -0.7906  0.0822
   9223SM   H7F12426   3.979   0.516   7.294 -0.7787 -1.3421 -0.9625
   9223SM   H7G12427   4.121   0.403   7.311  0.8855 -0.7232 -0.1975
   9223SM   C8F12428   3.961   0.345   7.434  0.1309  0.5187  0.3380
   9223SM   H8F12429   4.016   0.248   7.436  1.1304  1.0447 -0.4558
   9223SM   H8G12430   3.851   0.330   7.435  0.2054 -0.2193 -0.9380
   9223SM   C9F12431   3.998   0.423   7.562  0.1650 -0.7385  0.1225
   9223SM   H9F12432   3.966   0.529   7.548 -0.1049 -0.9370 -0.8448
   9223SM   H9G12433   4.108   0.426   7.573  0.4258 -0.8980 -2.0121
   9223SM  C10F12434   3.933   0.372   7.690  0.3338  0.0445  0.3614
   9223SM  H10F12435   3.961   0.266   7.705  0.9433  0.3924  1.8630
   9223SM  H10G12436   3.823   0.383   7.681  0.5588  0.6939 -2.4851
   9223SM  C11F12437   3.993   0.431   7.821 -0.0041 -0.3568 -0.0371
   9223SM  H11F12438   3.978   0.541   7.830 -0.3297 -0.2505 -1.5337
   9223SM  H11G12439   4.103   0.419   7.810  0.1211  2.5246 -4.6890
   9223SM  C12F12440   3.937   0.358   7.949 -0.4711  0.5418  1.0776
   9223SM  H12F12441   3.957   0.249   7.943 -0.4534  0.5111  1.6737
   9223SM  H12G12442   3.826   0.354   7.944 -0.4868 -1.2717  2.0413
   9223SM  C13F12443   3.965   0.427   8.087 -0.4982  0.4524 -0.4490
   9223SM  H13F12444   3.915   0.526   8.081  1.3531  1.5439  1.1695
   9223SM  H13G12445   4.076   0.431   8.094 -0.6300  1.4185  1.7606
   9223SM  C14F12446   3.919   0.347   8.211  0.0773  0.2838  0.0701
   9223SM  H14F12447   3.958   0.243   8.215  0.1458  0.3536  3.1280
   9223SM  H14G12448   3.809   0.343   8.191  0.4887 -1.1039 -2.1874
   9223SM  C15F12449   3.946   0.420   8.346 -0.3320  0.3935 -0.6820
   9223SM  H15F12450   3.908   0.524   8.344 -2.6548 -0.3979 -2.3789
   9223SM  H15G12451   4.056   0.421   8.364 -0.3952 -2.6357  0.5532
   9223SM  C16F12452   3.892   0.343   8.479 -1.0112 -0.3619  0.3374
   9223SM  H16F12453   3.953   0.251   8.477  0.1740  0.4072 -2.1890
   9223SM  H16G12454   3.786   0.316   8.459 -1.5891  0.4471  2.0997
   9223SM  C17F12455   3.888   0.428   8.602  0.2347 -0.4446 -0.0629
   9223SM  H17F12456   3.817   0.512   8.588  1.2825  0.5806  0.5946
   9223SM  H17G12457   3.984   0.483   8.610 -0.6403  1.5584 -2.2443
   9223SM  C18F12458   3.855   0.362   8.732 -0.1727 -0.3420  0.0281
   9223SM  H18F12459   3.912   0.268   8.751 -1.3948 -1.3078 -0.9365
   9223SM  H18G12460   3.753   0.320   8.718 -0.3211  0.3437 -1.0431
   9223SM  C19F12461   3.850   0.448   8.864  1.0170  1.2460 -0.2944
   9223SM  H19F12462   3.819   0.386   8.950 -1.9115 -1.1392 -2.8568
   9223SM  H19G12463   3.774   0.522   8.833  1.3375  0.9903 -1.7737
   9223SM  C20F12464   3.971   0.542   8.885  0.0334  0.1402 -0.3843
   9223SM  H20F12465   3.933   0.613   8.961 -2.2735 -2.4395  1.0548
   9223SM  H20G12466   4.000   0.586   8.787 -0.2872  0.0633 -0.5151
   9223SM  C21F12467   4.094   0.466   8.936  0.4496  0.1101  0.2946
   9223SM  H21F12468   4.161   0.466   8.848  2.7331  0.2786  1.9685
   9223SM  H21G12469   4.074   0.357   8.950 -0.5105  0.0121 -1.5469
   9223SM  C22F12470   4.158   0.535   9.050  1.1100 -0.0904  0.0687
   9223SM  H22F12471   4.092   0.535   9.140 -0.9782  0.2504 -1.3867
   9223SM  H22G12472   4.177   0.640   9.021  0.5720 -0.9625 -4.0018
   9223SM  C23F12473   4.288   0.469   9.095 -0.0659 -0.0999  0.6388
   9223SM  H23F12474   4.265   0.361   9.091  0.7107 -0.2363 -0.7224
   9223SM  H23G12475   4.310   0.493   9.201  0.4507  0.0728  0.4927
   9223SM  H23H12476   4.378   0.496   9.036  0.4915  0.6769  1.8054
   9323SM     N12477   5.322   1.568   5.762  0.3045  0.0471 -0.4779
   9323SM   C1512478   5.440   1.638   5.704 -0.0199  0.1198  0.5792
   9323SM  H15A12479   5.408   1.740   5.687  0.8607  1.1478  4.1168
   9323SM  H15B12480   5.469   1.604   5.606  0.4913  0.0018  0.7694
   9323SM  H15C12481   5.531   1.635   5.761 -0.2615  1.7762  1.1152
   9323SM   C1412482   5.225   1.573   5.656 -0.4966  0.1194  0.4879
   9323SM  H14A12483   5.273   1.510   5.583  0.5786  1.2816  0.1513
   9323SM  H14B12484   5.213   1.676   5.624 -1.5146 -0.1050  0.0916
   9323SM  H14C12485   5.130   1.537   5.692 -0.9684  0.2717 -0.5590
   9323SM   C1312486   5.354   1.426   5.803  0.2043  0.2387 -0.2112
   9323SM  H13A12487   5.419   1.384   5.728 -0.5655  0.4912 -1.0300
   9323SM  H13B12488   5.268   1.365   5.826 -0.6550  2.1393  2.0213
   9323SM  H13C12489   5.415   1.421   5.892 -2.7551 -0.7438  1.9152
   9323SM   C1212490   5.268   1.658   5.882 -0.2703  0.2270  0.2192
   9323SM  H12A12491   5.247   1.759   5.850  0.6719  0.0791 -0.9401
   9323SM  H12B12492   5.351   1.678   5.948  0.8101 -3.1227  0.0906
   9323SM   C1112493   5.152   1.606   5.964  0.2133  0.5379 -0.1304
   9323SM  H11A12494   5.145   1.660   6.061  0.1975 -0.2604  0.3273
   9323SM  H11B12495   5.189   1.511   6.010  1.7934 -0.2637 -2.8594
   9323SM     P12496   4.943   1.704   5.859  0.0543  0.0966  0.0874
   9323SM   O1312497   5.017   1.811   5.788 -0.0320 -0.4331  0.0857
   9323SM   O1412498   4.827   1.649   5.790 -0.1258  0.3346 -0.6458
   9323SM   O1112499   4.899   1.760   5.996  0.5055 -0.2413 -0.1627
   9323SM   O1212500   5.035   1.582   5.893  0.4800 -0.3057 -0.2770
   9323SM   C1S12501   4.840   1.687   6.111 -0.1879 -0.0401  0.3530
   9323SM   H1S12502   4.855   1.577   6.099  0.9066 -0.4394  4.1594
   9323SM   H1T12503   4.732   1.707   6.122 -0.0605 -0.6243  3.2826
   9323SM    NF12504   4.836   1.664   6.356  0.3803 -0.0073  0.0454
   9323SM   HNF12505   4.768   1.720   6.403 -1.7081 -1.4142 -1.0840
   9323SM   C2S12506   4.898   1.728   6.245  0.1527  0.1903  0.2216
   9323SM   H2S12507   5.002   1.690   6.237 -0.4076 -1.3598  0.0764
   9323SM   C3S12508   4.902   1.882   6.263 -0.0672 -0.1671  0.2270
   9323SM   H3S12509   4.801   1.907   6.304 -0.1370  0.1050 -0.1149
   9323SM    O312510   4.919   1.966   6.151 -0.0055  0.4229 -0.3304
   9323SM   HO312511   4.939   1.903   6.081 -0.9209 -1.1696  0.7770
   9323SM   C4S12512   5.008   1.921   6.367  0.0692 -0.2567  0.1662
   9323SM   H4S12513   5.109   1.880   6.354  0.0971  0.2736 -1.5008
   9323SM   C5S12514   4.976   1.986   6.485  0.0005  0.2291 -0.7679
   9323SM   H5S12515   4.876   2.026   6.508 -0.9937  0.1362 -4.2970
   9323SM   C6S12516   5.078   2.011   6.594  0.8783  0.1557  0.8878
   9323SM   H6S12517   5.088   2.120   6.580 -1.6212  0.1170 -2.3205
   9323SM   H6T12518   5.178   1.971   6.567  0.7776  0.0172  0.7165
   9323SM   C7S12519   5.027   1.964   6.725 -0.0606 -0.1556 -0.3751
   9323SM   H7S12520   5.027   1.853   6.730  0.1410 -0.1548 -0.3753
   9323SM   H7T12521   4.923   1.999   6.746  0.0354 -0.6303  1.0132
   9323SM   C8S12522   5.118   2.012   6.845 -0.5071  0.3834  0.1547
   9323SM   H8S12523   5.142   2.118   6.820  0.4992  0.2646  0.5577
   9323SM   H8T12524   5.211   1.951   6.844 -1.8047 -1.6909 -0.4708
   9323SM   C9S12525   5.040   2.024   6.976  0.5528  0.5340 -0.5734
   9323SM   H9S12526   5.012   1.919   7.000 -0.1802  0.9849  0.6410
   9323SM   H9T12527   4.941   2.070   6.957  0.9705  1.3421 -0.8159
   9323SM  C10S12528   5.112   2.101   7.090 -0.9189 -0.1610  0.1573
   9323SM  H10S12529   5.172   2.182   7.043 -3.0297  1.3883  0.0047
   9323SM  H10T12530   5.170   2.031   7.154 -0.2292  0.6547  0.4499
   9323SM  C11S12531   5.013   2.177   7.180  0.5114  0.3043 -0.3203
   9323SM  H11S12532   4.939   2.236   7.121  0.8571 -0.4991 -1.5747
   9323SM  H11T12533   5.065   2.252   7.244  0.3753 -0.6863  1.0154
   9323SM  C12S12534   4.948   2.079   7.279  0.0042 -0.2681 -0.7814
   9323SM  H12S12535   5.012   2.022   7.349 -2.1670  0.9771  2.4869
   9323SM  H12T12536   4.897   2.005   7.214 -1.0772  0.3112 -0.6208
   9323SM  C13S12537   4.841   2.156   7.358 -0.2279 -0.0769  0.1219
   9323SM  H13S12538   4.765   2.192   7.286 -0.3892 -3.8030 -1.7929
   9323SM  H13T12539   4.898   2.247   7.390 -0.1122 -0.8809  2.4151
   9323SM  C14S12540   4.770   2.076   7.472  0.0480 -0.2071  0.0285
   9323SM  H14S12541   4.708   2.002   7.417  1.1103 -1.2778  0.2321
   9323SM  H14T12542   4.697   2.142   7.522  0.6883 -0.2003  0.9877
   9323SM  C15S12543   4.868   2.011   7.578  0.0964  0.3151  0.1760
   9323SM  H15S12544   4.924   1.924   7.538  0.3537  0.9113 -0.7959
   9323SM  H15T12545   4.948   2.081   7.609  2.4478 -2.7241  1.4531
   9323SM  C16S12546   4.785   1.966   7.696  0.8703 -0.0494  0.2213
   9323SM  H16S12547   4.749   1.863   7.675 -1.1531  0.8068 -0.8972
   9323SM  H16T12548   4.695   2.029   7.716 -0.5082 -2.0825  0.7182
   9323SM  C17S12549   4.863   1.964   7.830  1.1519  0.6042  0.2568
   9323SM  H17S12550   4.792   1.920   7.903 -1.4977  1.7210 -1.5108
   9323SM  H17T12551   4.881   2.072   7.853  0.2775  0.6393  0.8024
   9323SM  C18S12552   4.991   1.879   7.844  0.2259  0.9575  0.6519
   9323SM  H18S12553   4.992   1.800   7.765 -0.1907  0.5239  1.0772
   9323SM  H18T12554   4.999   1.820   7.938  0.5618  1.1031  0.7149
   9323SM  H18U12555   5.087   1.929   7.822  0.2331  0.4057 -0.6934
   9323SM   C1F12556   4.850   1.531   6.381 -0.3196  0.7181 -0.2133
   9323SM    OF12557   4.931   1.466   6.322 -0.3727  0.3667 -0.2058
   9323SM   C2F12558   4.766   1.473   6.493 -0.2339  0.0333  0.1896
   9323SM   H2F12559   4.677   1.427   6.445  1.0600 -0.0957 -2.2882
   9323SM   H2G12560   4.718   1.551   6.556  0.4892  0.3106  0.4071
   9323SM   C3F12561   4.837   1.370   6.578 -0.4949  0.7705  0.0885
   9323SM   H3F12562   4.868   1.276   6.527  1.6824  1.3975  0.1672
   9323SM   H3G12563   4.761   1.331   6.649  0.8447  0.0120  1.1753
   9323SM   C4F12564   4.951   1.426   6.665 -0.5807  0.2130  0.3443
   9323SM   H4F12565   5.037   1.433   6.595  0.2678 -0.3570  1.3058
   9323SM   H4G12566   4.986   1.351   6.740 -2.2727 -0.1185  0.8527
   9323SM   C5F12567   4.911   1.550   6.738 -0.1205 -0.4004 -0.3721
   9323SM   H5F12568   4.818   1.523   6.793  0.0827 -2.3257 -0.8768
   9323SM   H5G12569   4.885   1.634   6.670 -1.6311 -0.6036 -0.0819
   9323SM   C6F12570   5.026   1.579   6.835  0.0050 -0.1479  0.0326
   9323SM   H6F12571   5.102   1.633   6.774  0.9441 -0.6441  0.7500
   9323SM   H6G12572   5.077   1.490   6.879  1.7811  0.7500 -0.1107
   9323SM   C7F12573   4.988   1.665   6.958 -0.2437  1.1251 -0.3990
   9323SM   H7F12574   4.935   1.759   6.932 -2.4615  0.7033  2.1180
   9323SM   H7G12575   5.084   1.690   7.007 -1.2674 -0.1828  2.4916
   9323SM   C8F12576   4.891   1.587   7.060  0.0976 -0.1413 -0.2216
   9323SM   H8F12577   4.947   1.495   7.087 -0.9305 -0.0411  2.5482
   9323SM   H8G12578   4.785   1.578   7.028 -0.8535 -1.3562  2.9887
   9323SM   C9F12579   4.878   1.658   7.196  0.5090 -0.1423  0.2950
   9323SM   H9F12580   4.799   1.737   7.198  1.0381  0.3858  1.9916
   9323SM   H9G12581   4.973   1.714   7.209  0.1689  0.9951 -1.6944
   9323SM  C10F12582   4.846   1.566   7.311  0.2618  0.5476  0.0409
   9323SM  H10F12583   4.912   1.477   7.321 -1.6245 -0.9345 -0.2686
   9323SM  H10G12584   4.749   1.516   7.291  0.8358 -0.2694 -0.8125
   9323SM  C11F12585   4.830   1.639   7.444  0.8583 -0.5472  0.0359
   9323SM  H11F12586   4.759   1.723   7.432  0.7925 -0.7506 -1.0202
   9323SM  H11G12587   4.928   1.676   7.482  0.0870  0.7204  0.8931
   9323SM  C12F12588   4.778   1.542   7.559 -0.1821 -0.5945  0.0607
   9323SM  H12F12589   4.679   1.496   7.539 -0.1292  0.2135 -2.3679
   9323SM  H12G12590   4.761   1.612   7.643  1.5152 -0.9640  0.7638
   9323SM  C13F12591   4.885   1.439   7.603 -0.7308  0.4067  0.1799
   9323SM  H13F12592   4.931   1.390   7.515  0.5660  0.1460  0.9778
   9323SM  H13G12593   4.829   1.363   7.661  0.7795 -1.2025 -0.3977
   9323SM  C14F12594   4.988   1.498   7.703 -0.0239  0.2284  0.0115
   9323SM  H14F12595   4.939   1.587   7.746 -2.8891 -0.9574 -0.5497
   9323SM  H14G12596   5.075   1.521   7.639  1.9146 -0.7572  2.1670
   9323SM  C15F12597   5.028   1.417   7.825 -0.4276  0.5270  0.3696
   9323SM  H15F12598   4.948   1.427   7.901 -0.1507 -3.6164  1.4258
   9323SM  H15G12599   5.128   1.451   7.859 -0.8783  3.6540 -1.0892
   9323SM  C16F12600   5.050   1.262   7.799 -0.7238 -0.3692 -0.1397
   9323SM  H16F12601   5.124   1.249   7.717 -2.4495 -0.2241 -1.7960
   9323SM  H16G12602   4.950   1.223   7.769  0.2754 -2.2610 -1.2038
   9323SM  C17F12603   5.113   1.187   7.915  0.2350 -0.0915 -0.2280
   9323SM  H17F12604   5.091   1.079   7.903  0.0637 -0.2363  1.2172
   9323SM  H17G12605   5.052   1.206   8.006  1.5420 -0.1922  0.6963
   9323SM  C18F12606   5.260   1.181   7.928  0.1507 -0.0796 -0.0073
   9323SM  H18F12607   5.296   1.286   7.936  1.8802 -0.6566  0.1580
   9323SM  H18G12608   5.312   1.139   7.840 -1.1967 -1.1128 -0.3396
   9323SM  C19F12609   5.306   1.106   8.055  0.3877  0.0942  0.3957
   9323SM  H19F12610   5.259   1.006   8.061  1.0352 -0.2085  0.5268
   9323SM  H19G12611   5.259   1.158   8.142 -2.2459 -1.6688  0.1160
   9323SM  C20F12612   5.456   1.103   8.083 -0.1421  0.0179  0.4723
   9323SM  H20F12613   5.471   1.044   8.176 -1.3770 -0.0991  0.6087
   9323SM  H20G12614   5.498   1.205   8.100  1.2498 -0.6362  1.1025
   9323SM  C21F12615   5.544   1.040   7.976 -0.1467 -0.5578 -0.0183
   9323SM  H21F12616   5.649   1.056   8.008  0.0859 -0.1110 -0.9436
   9323SM  H21G12617   5.528   1.099   7.883 -1.4666  1.2133  1.2602
   9323SM  C22F12618   5.523   0.894   7.960 -0.1644  0.7446  0.0364
   9323SM  H22F12619   5.448   0.874   7.881  0.3956 -1.1664 -0.0741
   9323SM  H22G12620   5.489   0.852   8.057  0.3620 -1.0027 -0.4889
   9323SM  C23F12621   5.652   0.811   7.921  0.5292  0.5729 -0.1662
   9323SM  H23F12622   5.680   0.814   7.813 -0.0936 -0.0428 -0.3514
   9323SM  H23G12623   5.636   0.704   7.948  2.2416  0.5814  1.0777
   9323SM  H23H12624   5.739   0.835   7.987  1.1644  0.5702 -0.9824
   9423SM     N12625   3.670   4.468   6.089  0.3579  0.4502  0.7869
   9423SM   C1512626   3.800   4.441   6.157 -0.1725  0.4922  0.3675
   9423SM  H15A12627   3.870   4.523   6.157  0.7713 -0.2997  0.4663
   9423SM  H15B12628   3.842   4.347   6.125  0.7665  0.8652  0.4839
   9423SM  H15C12629   3.784   4.434   6.264 -0.6699 -0.3994  0.2536
   9423SM   C1412630   3.698   4.502   5.944 -0.2169  0.0770  0.0219
   9423SM  H14A12631   3.611   4.513   5.882  0.6018  1.6496 -0.8952
   9423SM  H14B12632   3.761   4.428   5.898 -0.8679  0.2421 -1.1666
   9423SM  H14C12633   3.758   4.591   5.940 -0.4283  0.2752  0.9109
   9423SM   C1312634   3.586   4.350   6.094  0.9505  0.2126 -0.0152
   9423SM  H13A12635   3.641   4.264   6.059 -0.3938 -0.3803 -0.7515
   9423SM  H13B12636   3.506   4.371   6.024  1.2288 -0.3140 -0.4938
   9423SM  H13C12637   3.547   4.313   6.188 -1.4517 -2.2916 -1.8002
   9423SM   C1212638   3.590   4.588   6.148  0.0701 -0.6172 -0.0379
   9423SM  H12A12639   3.506   4.600   6.082  0.1575  3.2936  0.2979
   9423SM  H12B12640   3.648   4.677   6.127 -0.9560 -0.4592 -2.5722
   9423SM   C1112641   3.552   4.591   6.301 -0.5841  0.2922 -0.8234
   9423SM  H11A12642   3.502   4.688   6.321  1.4868  0.9796  1.5281
   9423SM  H11B12643   3.643   4.588   6.364 -1.4092 -1.6893  0.3446
   9423SM     P12644   3.307   4.489   6.305 -0.7525 -0.0185 -0.2154
   9423SM   O1312645   3.284   4.541   6.167  0.7022 -0.4494  0.3918
   9423SM   O1412646   3.243   4.364   6.349 -0.2219 -0.5722  0.0095
   9423SM   O1112647   3.260   4.605   6.400  0.0517  0.3070  0.0591
   9423SM   O1212648   3.460   4.485   6.328 -0.7001  0.1207 -0.1231
   9423SM   C1S12649   3.289   4.592   6.541 -0.3605 -0.2562 -0.6432
   9423SM   H1S12650   3.399   4.584   6.552 -0.3248  0.3892 -0.4699
   9423SM   H1T12651   3.228   4.516   6.594 -1.8521  2.4984  1.9409
   9423SM    NF12652   3.254   4.705   6.756  0.6386  0.8383  0.9331
   9423SM   HNF12653   3.167   4.686   6.802 -0.1003  0.7180 -0.4479
   9423SM   C2S12654   3.228   4.714   6.613 -0.5939 -1.4480 -0.4674
   9423SM   H2S12655   3.284   4.801   6.571  0.8943 -0.3077  3.3860
   9423SM   C3S12656   3.081   4.732   6.574 -0.8903 -0.0305  0.0372
   9423SM   H3S12657   3.030   4.633   6.581 -0.6808 -0.4914 -3.4058
   9423SM    O312658   3.060   4.769   6.437 -0.8931  0.9501  0.3462
   9423SM   HO312659   3.142   4.743   6.394 -1.3582 -0.0267  0.0242
   9423SM   C4S12660   3.002   4.825   6.659 -0.6152  0.1581  0.1187
   9423SM   H4S12661   3.050   4.923   6.671  1.0270 -0.5527 -0.3548
   9423SM   C5S12662   2.880   4.824   6.705  0.3966 -0.5266 -0.7786
   9423SM   H5S12663   2.825   4.731   6.690 -2.6231  1.2469 -1.5038
   9423SM   C6S12664   2.805   4.937   6.778 -0.0047 -0.1162  0.8137
   9423SM   H6S12665   2.722   4.963   6.709  1.6094 -1.4250 -1.7624
   9423SM   H6T12666   2.862   5.032   6.781  0.2779 -0.0704 -2.3106
   9423SM   C7S12667   2.771   4.906   6.927  0.3418 -0.3695 -0.3356
   9423SM   H7S12668   2.863   4.871   6.980 -0.1781  0.7296  1.3984
   9423SM   H7T12669   2.698   4.823   6.943  1.6359 -1.4650  0.1357
   9423SM   C8S12670   2.712   5.031   6.985  0.5435  0.1428 -0.3264
   9423SM   H8S12671   2.618   5.057   6.933  0.8142  2.9385  0.3965
   9423SM   H8T12672   2.777   5.120   6.967  0.2376  0.0777 -1.8157
   9423SM   C9S12673   2.671   5.004   7.127 -0.1395 -0.4987  0.0510
   9423SM   H9S12674   2.759   4.983   7.191 -0.4289  0.8633  0.9319
   9423SM   H9T12675   2.599   4.919   7.118  0.1261 -0.6120 -1.2126
   9423SM  C10S12676   2.599   5.127   7.190 -0.3347  0.2598  0.3480
   9423SM  H10S12677   2.507   5.157   7.135 -0.2887  1.3896  0.8696
   9423SM  H10T12678   2.674   5.209   7.188  0.2819 -0.2732  0.9605
   9423SM  C11S12679   2.569   5.113   7.340  0.7420 -0.0710  0.0832
   9423SM  H11S12680   2.663   5.094   7.396  0.7637  0.9552  0.4122
   9423SM  H11T12681   2.496   5.030   7.353  0.1001  0.2632 -1.2327
   9423SM  C12S12682   2.492   5.238   7.388 -0.0756  0.1747 -0.1609
   9423SM  H12S12683   2.407   5.254   7.318  0.3938  3.2547 -0.1999
   9423SM  H12T12684   2.560   5.326   7.386  2.6430 -1.8210 -1.0792
   9423SM  C13S12685   2.436   5.212   7.530 -0.2512 -0.6100  0.0069
   9423SM  H13S12686   2.402   5.106   7.523  1.7733 -1.2496 -0.6953
   9423SM  H13T12687   2.337   5.260   7.548 -1.2977 -2.0913 -1.5112
   9423SM  C14S12688   2.546   5.232   7.643  0.0129 -0.0108 -0.1537
   9423SM  H14S12689   2.593   5.333   7.635  1.5926 -0.7474 -0.4881
   9423SM  H14T12690   2.633   5.167   7.621  0.1854  0.7176 -1.7020
   9423SM  C15S12691   2.494   5.225   7.789 -0.4222 -0.1451  1.4535
   9423SM  H15S12692   2.429   5.315   7.780 -0.3448 -0.1742  0.5164
   9423SM  H15T12693   2.569   5.239   7.870 -0.1479 -0.9098  1.3358
   9423SM  C16S12694   2.407   5.104   7.806  0.2820 -0.0356  0.1513
   9423SM  H16S12695   2.460   5.010   7.780  1.8158  1.1963 -1.4434
   9423SM  H16T12696   2.322   5.108   7.735  0.9962  1.2246 -0.6661
   9423SM  C17S12697   2.343   5.100   7.952 -0.3653  0.7357  0.0533
   9423SM  H17S12698   2.298   4.999   7.966  1.5922 -0.0265  1.4086
   9423SM  H17T12699   2.268   5.182   7.944  1.9082  3.0359  0.7724
   9423SM  C18S12700   2.439   5.126   8.070 -0.5916  0.1679 -0.2820
   9423SM  H18S12701   2.400   5.078   8.162 -0.6165 -0.9427 -0.8555
   9423SM  H18T12702   2.450   5.235   8.090  0.3148 -0.0533  0.4702
   9423SM  H18U12703   2.541   5.086   8.048 -0.7375  0.7956 -2.3440
   9423SM   C1F12704   3.370   4.735   6.807  0.2338 -0.0132 -0.0086
   9423SM    OF12705   3.466   4.749   6.735 -0.1036 -0.0282 -0.2464
   9423SM   C2F12706   3.368   4.755   6.952  0.1110 -0.6265 -0.4241
   9423SM   H2F12707   3.408   4.669   7.009 -0.5996 -0.7911 -0.1677
   9423SM   H2G12708   3.263   4.760   6.988  0.2740  0.6665 -0.0945
   9423SM   C3F12709   3.446   4.882   6.991 -0.6586  0.0424  0.3702
   9423SM   H3F12710   3.392   4.968   6.945 -0.9028 -0.9820 -1.3076
   9423SM   H3G12711   3.541   4.886   6.934 -1.9011 -1.2420 -1.9157
   9423SM   C4F12712   3.471   4.900   7.140 -0.2028  0.2329  0.2021
   9423SM   H4F12713   3.548   4.979   7.152 -0.3014  0.0831  2.0707
   9423SM   H4G12714   3.515   4.806   7.181 -0.2828 -0.2626 -0.7958
   9423SM   C5F12715   3.347   4.942   7.211  0.4086 -0.1193  0.1017
   9423SM   H5F12716   3.281   4.854   7.224  2.4184 -1.5891  0.8788
   9423SM   H5G12717   3.285   5.017   7.157  0.5278  1.1715  1.6722
   9423SM   C6F12718   3.375   4.998   7.353  0.7447 -0.5790  0.3096
   9423SM   H6F12719   3.277   5.013   7.403  0.3551 -1.5678 -0.1162
   9423SM   H6G12720   3.422   5.098   7.344 -1.1056  0.3533  0.5316
   9423SM   C7F12721   3.472   4.907   7.434  0.4947  0.6464 -0.1356
   9423SM   H7F12722   3.570   4.935   7.388  0.6686  1.0053  0.4425
   9423SM   H7G12723   3.449   4.801   7.411  1.1936  0.6376 -0.8434
   9423SM   C8F12724   3.467   4.930   7.588  0.2457  0.2267 -0.1298
   9423SM   H8F12725   3.533   4.865   7.649 -0.9679  1.5231  2.7372
   9423SM   H8G12726   3.367   4.916   7.634 -0.0526  2.0092 -0.1475
   9423SM   C9F12727   3.507   5.072   7.629 -0.1644  0.2556 -0.2064
   9423SM   H9F12728   3.441   5.118   7.706  1.9158  1.9398  0.6869
   9423SM   H9G12729   3.491   5.137   7.540  1.1265  1.1437  0.1767
   9423SM  C10F12730   3.653   5.087   7.662  0.1701 -0.4507 -0.2201
   9423SM  H10F12731   3.711   5.048   7.576  0.5906 -0.2670 -0.0211
   9423SM  H10G12732   3.677   5.010   7.738 -0.0575 -1.3044 -0.9994
   9423SM  C11F12733   3.689   5.238   7.678 -0.1326  0.1483 -0.6711
   9423SM  H11F12734   3.602   5.307   7.685  0.2233  0.5482 -0.1536
   9423SM  H11G12735   3.750   5.251   7.586 -0.0973 -0.2368 -0.7037
   9423SM  C12F12736   3.765   5.262   7.814 -0.2587  0.1497 -0.0857
   9423SM  H12F12737   3.802   5.367   7.813 -2.2054  0.9308 -2.6652
   9423SM  H12G12738   3.851   5.192   7.819  0.0125  0.4659 -0.3176
   9423SM  C13F12739   3.682   5.249   7.943  0.4250 -0.4932  0.1104
   9423SM  H13F12740   3.662   5.143   7.967  3.6009 -0.8555  1.7575
   9423SM  H13G12741   3.594   5.314   7.923  1.8259  0.9883 -1.7045
   9423SM  C14F12742   3.759   5.310   8.064  0.0280 -0.9940  0.1572
   9423SM  H14F12743   3.778   5.413   8.027 -2.6721 -0.4925 -0.0686
   9423SM  H14G12744   3.855   5.254   8.072  0.0128 -1.1988 -0.8936
   9423SM  C15F12745   3.678   5.302   8.190  0.0134  0.3748 -0.2180
   9423SM  H15F12746   3.659   5.194   8.211 -1.6088  0.5660 -0.5867
   9423SM  H15G12747   3.581   5.352   8.170 -0.7477 -0.8789  0.2285
   9423SM  C16F12748   3.739   5.363   8.318 -0.3306  0.6527  0.3112
   9423SM  H16F12749   3.711   5.469   8.338  0.8862  1.3648 -1.5103
   9423SM  H16G12750   3.849   5.364   8.305 -0.3836  0.4703 -0.1570
   9423SM  C17F12751   3.721   5.279   8.444  0.1302 -0.1780  0.1589
   9423SM  H17F12752   3.756   5.177   8.418 -0.1114  0.2875 -2.2507
   9423SM  H17G12753   3.613   5.275   8.469  0.2427  1.9900  1.2324
   9423SM  C18F12754   3.787   5.331   8.565  0.7293  0.3797 -0.7672
   9423SM  H18F12755   3.753   5.272   8.652  2.3376  0.5509  0.0161
   9423SM  H18G12756   3.753   5.436   8.578  3.2420  1.3373 -1.1906
   9423SM  C19F12757   3.939   5.340   8.564 -1.0013 -0.2310  0.1018
   9423SM  H19F12758   3.963   5.379   8.665 -2.7896 -2.5549  1.5317
   9423SM  H19G12759   3.975   5.415   8.491  1.2539  0.1078  1.4490
   9423SM  C20F12760   4.004   5.205   8.558  0.0995 -0.3452  0.2063
   9423SM  H20F12761   4.114   5.213   8.571  0.1542 -0.1704 -0.3679
   9423SM  H20G12762   3.999   5.171   8.453  0.7892  2.5435 -0.8298
   9423SM  C21F12763   3.945   5.088   8.642  0.6452  0.1797  0.2825
   9423SM  H21F12764   3.845   5.061   8.604  0.1055  1.3006  0.8613
   9423SM  H21G12765   3.949   5.106   8.752 -0.7155  1.4443  0.1507
   9423SM  C22F12766   4.039   4.965   8.624  0.2557  0.3762 -0.8647
   9423SM  H22F12767   4.145   4.995   8.643  0.2307  0.9388 -1.5735
   9423SM  H22G12768   4.041   4.944   8.515  2.8062 -1.1168 -0.6172
   9423SM  C23F12769   3.989   4.844   8.699  0.6558  0.8392 -0.1110
   9423SM  H23F12770   4.051   4.753   8.686  0.4208  0.7697 -0.8007
   9423SM  H23G12771   3.883   4.815   8.681  0.8523 -0.3895  0.6247
   9423SM  H23H12772   3.995   4.859   8.809  0.6289 -1.0151  0.1784
   9523SM     N12773   7.121   6.435   5.868 -0.0446 -0.1160 -0.3582
   9523SM   C1512774   7.011   6.355   5.814  0.0596  0.6629 -0.0648
   9523SM  H15A12775   7.033   6.291   5.730  0.4642 -0.2375  0.7028
   9523SM  H15B12776   6.930   6.416   5.778  0.2398  0.7705 -0.2863
   9523SM  H15C12777   6.968   6.276   5.874  1.3235 -1.0694 -1.3445
   9523SM   C1412778   7.160   6.536   5.766 -0.2182  0.0041  0.3519
   9523SM  H14A12779   7.231   6.607   5.807 -1.0296  1.2890 -0.4037
   9523SM  H14B12780   7.072   6.589   5.732 -0.5044 -0.6279  0.0924
   9523SM  H14C12781   7.212   6.498   5.679  2.1105  1.0509  1.1983
   9523SM   C1312782   7.054   6.512   5.980 -0.4119  0.5033 -0.0216
   9523SM  H13A12783   6.988   6.453   6.042  1.0780 -0.3789  0.7731
   9523SM  H13B12784   6.983   6.588   5.950 -1.0989  0.3001  1.0307
   9523SM  H13C12785   7.128   6.562   6.041 -1.2175  2.7200 -0.7367
   9523SM   C1212786   7.235   6.347   5.918 -0.6223 -0.2535  0.5587
   9523SM  H12A12787   7.277   6.306   5.827  1.0921  1.1190  0.6741
   9523SM  H12B12788   7.209   6.269   5.989  0.5591  0.0453  1.3466
   9523SM   C1112789   7.354   6.422   5.988 -0.5888  0.1527  0.0687
   9523SM  H11A12790   7.389   6.501   5.918  1.8640  0.6940  1.8079
   9523SM  H11B12791   7.437   6.352   6.009 -1.4634 -1.4994 -1.7128
   9523SM     P12792   7.249   6.413   6.240 -0.2934 -0.0610  0.1905
   9523SM   O1312793   7.176   6.520   6.317 -0.4950  0.1897  0.3072
   9523SM   O1412794   7.169   6.299   6.198  0.0641  0.6011  0.6336
   9523SM   O1112795   7.379   6.373   6.316 -0.2998  0.3448 -0.3640
   9523SM   O1212796   7.314   6.481   6.114  0.1250  0.1130 -0.3170
   9523SM   C1S12797   7.408   6.430   6.449 -0.7377  0.2238 -0.0375
   9523SM   H1S12798   7.401   6.540   6.443 -0.3755  0.3621  1.7519
   9523SM   H1T12799   7.517   6.412   6.462 -0.7025  0.1860 -0.3701
   9523SM    NF12800   7.365   6.417   6.688  0.0199 -0.1243  0.4479
   9523SM   HNF12801   7.429   6.372   6.750 -0.3021 -2.2387 -0.6380
   9523SM   C2S12802   7.326   6.353   6.560  0.0322 -0.6801 -0.2623
   9523SM   H2S12803   7.221   6.376   6.532  0.1783 -0.2670 -0.4857
   9523SM   C3S12804   7.350   6.204   6.546  0.2626  0.6624  0.4204
   9523SM   H3S12805   7.460   6.195   6.558  0.4098  0.6216 -0.8510
   9523SM    O312806   7.318   6.146   6.419  0.3298 -0.1724  0.5479
   9523SM   HO312807   7.311   6.222   6.360 -0.0863 -0.7208 -0.1229
   9523SM   C4S12808   7.274   6.134   6.652 -0.6176  0.0405 -0.7058
   9523SM   H4S12809   7.168   6.159   6.661 -0.9665 -1.9034  2.3461
   9523SM   C5S12810   7.325   6.054   6.748 -0.4033 -0.2759 -0.4881
   9523SM   H5S12811   7.432   6.036   6.763 -0.8451 -2.7947  0.1396
   9523SM   C6S12812   7.236   5.993   6.858 -0.5176  0.6292 -0.7376
   9523SM   H6S12813   7.132   6.032   6.859 -0.0596  1.9225 -0.9532
   9523SM   H6T12814   7.289   6.020   6.952  2.0522 -3.7679 -0.6258
   9523SM   C7S12815   7.228   5.841   6.851  0.2302  0.5984 -0.3736
   9523SM   H7S12816   7.326   5.789   6.858  0.9084  1.8280 -0.4682
   9523SM   H7T12817   7.178   5.805   6.759 -0.9573 -2.1341  1.2438
   9523SM   C8S12818   7.134   5.771   6.953 -0.2837  0.1747  1.0052
   9523SM   H8S12819   7.132   5.670   6.907 -0.8858  1.2525 -1.5396
   9523SM   H8T12820   7.029   5.808   6.957 -0.9498 -1.3937 -0.4559
   9523SM   C9S12821   7.187   5.783   7.090 -0.4068 -0.1125 -0.1988
   9523SM   H9S12822   7.236   5.883   7.099  1.2962 -0.8675 -0.7138
   9523SM   H9T12823   7.252   5.695   7.105  1.9981  1.1906 -2.3192
   9523SM  C10S12824   7.074   5.786   7.201 -1.0200  0.2596 -0.4492
   9523SM  H10S12825   7.025   5.687   7.204  2.0170 -1.3295  0.6241
   9523SM  H10T12826   7.004   5.873   7.199  0.3583  1.6649  3.5537
   9523SM  C11S12827   7.145   5.795   7.338 -1.1063  0.5574  0.0988
   9523SM  H11S12828   7.225   5.872   7.336 -1.5869  1.0489 -0.7589
   9523SM  H11T12829   7.183   5.693   7.360 -2.2404  0.2615  0.7506
   9523SM  C12S12830   7.049   5.840   7.450 -0.1948  0.3793  0.7863
   9523SM  H12S12831   6.954   5.785   7.434 -0.4286  0.8058  0.7120
   9523SM  H12T12832   7.021   5.947   7.444  0.8338  0.5879 -0.8667
   9523SM  C13S12833   7.095   5.807   7.592 -0.0151 -0.7365 -0.1495
   9523SM  H13S12834   7.180   5.877   7.612  0.0209 -0.4255 -1.2902
   9523SM  H13T12835   7.139   5.705   7.588 -2.0673 -1.6425 -0.5117
   9523SM  C14S12836   6.976   5.809   7.693 -0.3304 -0.2228  0.2785
   9523SM  H14S12837   6.925   5.711   7.678 -1.5381  0.3134  0.6715
   9523SM  H14T12838   6.905   5.889   7.664 -0.9238 -0.5920  0.6590
   9523SM  C15S12839   7.000   5.834   7.837  0.0710 -0.2920  0.1363
   9523SM  H15S12840   6.908   5.829   7.900 -0.4203  0.1053 -0.5332
   9523SM  H15T12841   7.042   5.937   7.834 -2.1131  0.7269  1.4333
   9523SM  C16S12842   7.083   5.726   7.914 -0.8907 -0.4497 -0.4659
   9523SM  H16S12843   7.166   5.695   7.847  0.2091 -2.6458  1.7617
   9523SM  H16T12844   7.018   5.637   7.926  1.6653 -2.2603  0.8288
   9523SM  C17S12845   7.142   5.775   8.047  0.4942  0.2777 -0.0630
   9523SM  H17S12846   7.175   5.689   8.110 -1.2956  0.2688  0.9060
   9523SM  H17T12847   7.060   5.817   8.108  1.4520  0.9071  0.8192
   9523SM  C18S12848   7.251   5.877   8.028 -0.0372  0.5074  0.2838
   9523SM  H18S12849   7.313   5.881   8.121 -0.4312 -2.2481  0.7512
   9523SM  H18T12850   7.208   5.979   8.015  1.9244  1.3976  0.4451
   9523SM  H18U12851   7.316   5.840   7.947  1.9030 -0.5118  2.1975
   9523SM   C1F12852   7.331   6.549   6.705 -0.4842 -0.0219 -0.8715
   9523SM    OF12853   7.241   6.602   6.642 -0.0331  0.1955  0.7782
   9523SM   C2F12854   7.430   6.629   6.789 -0.0760  0.2977  0.3908
   9523SM   H2F12855   7.521   6.656   6.731 -0.8644 -2.0373 -2.1668
   9523SM   H2G12856   7.465   6.571   6.878 -1.2093  0.9785  1.3046
   9523SM   C3F12857   7.379   6.756   6.857  0.3188  0.0525  0.5044
   9523SM   H3F12858   7.281   6.737   6.905 -0.2473 -2.3458 -1.3848
   9523SM   H3G12859   7.357   6.832   6.780 -2.0484 -0.5104  0.5323
   9523SM   C4F12860   7.475   6.803   6.967  0.0731 -0.6163  0.2006
   9523SM   H4F12861   7.478   6.729   7.050 -2.1021  0.5155  1.3531
   9523SM   H4G12862   7.424   6.895   7.002  1.2322  0.3696 -0.6244
   9523SM   C5F12863   7.615   6.840   6.919  0.1874  0.3960  0.4000
   9523SM   H5F12864   7.611   6.914   6.836 -0.3855 -0.0927 -0.0172
   9523SM   H5G12865   7.678   6.754   6.888  0.7795  1.0284 -0.1597
   9523SM   C6F12866   7.690   6.903   7.032  0.0704  0.4636 -0.1872
   9523SM   H6F12867   7.714   6.826   7.108 -1.6382 -0.2225 -0.2955
   9523SM   H6G12868   7.624   6.980   7.080  0.5941  1.7163 -1.4195
   9523SM   C7F12869   7.818   6.962   6.981 -0.5346 -0.4242 -0.6996
   9523SM   H7F12870   7.794   7.032   6.898 -2.1207 -1.1723 -0.9076
   9523SM   H7G12871   7.888   6.884   6.947  0.7551 -0.0608  0.9817
   9523SM   C8F12872   7.892   7.051   7.084 -0.0263 -0.1421  0.6329
   9523SM   H8F12873   7.894   6.998   7.182  0.2443  1.6681  1.6428
   9523SM   H8G12874   7.844   7.149   7.105  1.9759  1.5511 -2.0169
   9523SM   C9F12875   8.034   7.077   7.041  1.6863  0.0590 -0.0412
   9523SM   H9F12876   8.034   7.140   6.950  1.8025  1.3018  0.7992
   9523SM   H9G12877   8.077   6.980   7.009  1.8071 -0.1365  0.6781
   9523SM  C10F12878   8.119   7.135   7.152 -0.1700 -0.3866  0.3913
   9523SM  H10F12879   8.088   7.237   7.180  0.5188 -0.2882  0.8146
   9523SM  H10G12880   8.226   7.149   7.126 -0.0564  2.3970  2.0140
   9523SM  C11F12881   8.122   7.053   7.277 -0.3676 -0.2709  0.6757
   9523SM  H11F12882   8.163   6.950   7.268  0.4793  0.0995  0.1777
   9523SM  H11G12883   8.026   7.045   7.332 -1.0321 -1.4290 -0.6163
   9523SM  C12F12884   8.217   7.112   7.380 -0.3507 -0.6807 -0.0917
   9523SM  H12F12885   8.155   7.184   7.436  1.6202  1.5851 -0.6947
   9523SM  H12G12886   8.304   7.158   7.330 -1.3800  0.2138 -1.1189
   9523SM  C13F12887   8.274   7.013   7.483 -0.4264  0.6267  0.1097
   9523SM  H13F12888   8.333   6.953   7.409 -2.3726  2.8231 -3.5453
   9523SM  H13G12889   8.187   6.960   7.527 -0.9361  0.3822 -1.1355
   9523SM  C14F12890   8.363   7.075   7.593  0.4572 -0.2135 -0.5865
   9523SM  H14F12891   8.320   7.156   7.656  0.2799  0.8924 -2.0840
   9523SM  H14G12892   8.442   7.129   7.537 -0.8244  1.9393 -0.4112
   9523SM  C15F12893   8.427   6.970   7.676 -0.1781 -0.2888 -0.4698
   9523SM  H15F12894   8.516   7.013   7.727  0.7658  1.9850 -3.7492
   9523SM  H15G12895   8.474   6.886   7.622  1.1242 -0.0810  0.2946
   9523SM  C16F12896   8.326   6.915   7.778  0.4860  0.4737 -0.5775
   9523SM  H16F12897   8.241   6.876   7.718  2.1270 -0.7445 -2.2719
   9523SM  H16G12898   8.279   6.992   7.842 -0.9355 -0.5260 -0.3730
   9523SM  C17F12899   8.377   6.788   7.854 -0.0431 -0.4109 -0.1275
   9523SM  H17F12900   8.470   6.816   7.908 -1.0984  0.5714  1.2524
   9523SM  H17G12901   8.405   6.717   7.773 -0.6178 -0.4412 -0.3031
   9523SM  C18F12902   8.286   6.741   7.967 -0.0816  0.1435  0.6023
   9523SM  H18F12903   8.275   6.829   8.035 -1.0885  1.4892 -1.2181
   9523SM  H18G12904   8.346   6.668   8.025  0.7240 -0.2299 -0.6775
   9523SM  C19F12905   8.144   6.698   7.913  0.3565  0.2999  0.2711
   9523SM  H19F12906   8.166   6.601   7.863  2.7023  0.2393  1.2621
   9523SM  H19G12907   8.099   6.770   7.842 -1.0282 -1.6654 -0.9424
   9523SM  C20F12908   8.041   6.675   8.029  0.5050 -0.5992 -0.4446
   9523SM  H20F12909   8.059   6.581   8.086  1.6722  0.6675  1.3962
   9523SM  H20G12910   7.941   6.671   7.981  0.6358  0.9711 -0.9181
   9523SM  C21F12911   8.033   6.791   8.127  0.5225 -0.1279 -0.4358
   9523SM  H21F12912   7.985   6.870   8.064 -3.2588 -1.3542  0.6566
   9523SM  H21G12913   8.122   6.833   8.179  0.6135 -1.1592  0.2528
   9523SM  C22F12914   7.919   6.775   8.238  0.1271 -0.4544 -0.4084
   9523SM  H22F12915   7.946   6.700   8.315 -0.8497 -0.6292 -0.2316
   9523SM  H22G12916   7.831   6.735   8.183  0.2696 -1.7871  0.3058
   9523SM  C23F12917   7.889   6.909   8.299 -0.4264 -0.7503  0.2180
   9523SM  H23F12918   7.987   6.959   8.316 -1.0162 -0.0428  1.6520
   9523SM  H23G12919   7.833   6.897   8.393  0.5875 -1.5760  0.7389
   9523SM  H23H12920   7.828   6.975   8.233 -2.0270 -1.4503  0.9767
   9623SM     N12921   2.995   7.655   5.920 -0.0082 -0.3780 -0.5866
   9623SM   C1512922   2.896   7.583   5.829  0.5395 -0.4735  0.0688
   9623SM  H15A12923   2.797   7.616   5.855 -0.0917 -2.7086  0.7625
   9623SM  H15B12924   2.889   7.476   5.845 -2.9020 -0.8567 -2.7784
   9623SM  H15C12925   2.900   7.609   5.724 -0.6840  1.9333  0.5370
   9623SM   C1412926   2.977   7.798   5.876 -0.4932 -0.1829 -0.7789
   9623SM  H14A12927   3.012   7.824   5.777 -2.1648  2.8941 -0.7091
   9623SM  H14B12928   3.038   7.862   5.938  0.0403 -2.1332  0.7836
   9623SM  H14C12929   2.873   7.829   5.871 -0.9014 -1.4987 -0.6073
   9623SM   C1312930   2.954   7.646   6.062 -0.9798  0.1966  0.0629
   9623SM  H13A12931   3.035   7.676   6.128  0.3125 -2.8656  0.0345
   9623SM  H13B12932   2.946   7.541   6.085  3.0821 -0.5979 -1.1536
   9623SM  H13C12933   2.867   7.705   6.085 -0.6753  1.5602 -1.9729
   9623SM   C1212934   3.135   7.608   5.906  0.0583  0.4433 -0.2617
   9623SM  H12A12935   3.194   7.656   5.983  2.6879 -0.8515 -1.3166
   9623SM  H12B12936   3.175   7.634   5.809  0.0652 -2.3231 -1.0768
   9623SM   C1112937   3.175   7.462   5.934  0.0976  0.1716 -0.3958
   9623SM  H11A12938   3.285   7.464   5.918  0.2452 -1.3103  0.2691
   9623SM  H11B12939   3.127   7.398   5.857  0.4771  0.0980 -0.5757
   9623SM     P12940   3.214   7.327   6.159 -0.1256 -0.1372 -0.1101
   9623SM   O1312941   3.237   7.193   6.100  0.5854  0.1357  0.3598
   9623SM   O1412942   3.338   7.389   6.214 -0.0373 -0.4506  0.3052
   9623SM   O1112943   3.112   7.318   6.281  0.9511  0.0731 -0.0040
   9623SM   O1212944   3.136   7.419   6.065  0.1409  0.2522 -0.5859
   9623SM   C1S12945   3.145   7.232   6.387  0.5051 -0.9339  0.8997
   9623SM   H1S12946   3.252   7.227   6.416  0.5247  1.4665  1.4410
   9623SM   H1T12947   3.120   7.126   6.366  0.9819 -0.8507 -0.1494
   9623SM    NF12948   3.113   7.186   6.636 -0.2343  0.1072  0.6979
   9623SM   HNF12949   3.043   7.130   6.680 -2.3647  0.9850 -1.3715
   9623SM   C2S12950   3.075   7.272   6.524 -0.5966  0.5191 -0.0200
   9623SM   H2S12951   3.111   7.376   6.540  1.2055 -0.2806  1.5223
   9623SM   C3S12952   2.925   7.283   6.514  0.3211  0.1966  1.0090
   9623SM   H3S12953   2.878   7.185   6.492 -1.6852  1.4533 -0.6710
   9623SM    O312954   2.886   7.354   6.392  0.1016 -0.3760  0.8358
   9623SM   HO312955   2.960   7.331   6.336 -0.2236 -0.0510  0.2657
   9623SM   C4S12956   2.862   7.341   6.637  0.2358 -0.1894  0.1768
   9623SM   H4S12957   2.815   7.257   6.690  1.1354 -0.1210  1.1155
   9623SM   C5S12958   2.871   7.466   6.689  0.1053  0.5206  0.1726
   9623SM   H5S12959   2.926   7.546   6.637 -0.4985  0.6648 -0.2604
   9623SM   C6S12960   2.795   7.503   6.817  0.0574 -0.2145  0.3541
   9623SM   H6S12961   2.749   7.601   6.793 -0.6490 -0.9043 -1.2669
   9623SM   H6T12962   2.870   7.523   6.896 -0.3220 -0.5441  0.7989
   9623SM   C7S12963   2.690   7.406   6.879 -0.1883 -0.1955 -0.0973
   9623SM   H7S12964   2.735   7.305   6.890  0.3404  0.1662  1.2862
   9623SM   H7T12965   2.593   7.402   6.826 -0.3606 -0.1076  0.2065
   9623SM   C8S12966   2.664   7.460   7.025 -0.4994 -0.0283  0.0102
   9623SM   H8S12967   2.624   7.564   7.025 -0.3825  0.0181 -0.0280
   9623SM   H8T12968   2.763   7.467   7.076  0.6919 -0.0593 -2.1898
   9623SM   C9S12969   2.575   7.354   7.105 -1.0635 -0.4696  0.2214
   9623SM   H9S12970   2.631   7.259   7.113 -0.9541 -0.2763  2.0722
   9623SM   H9T12971   2.480   7.349   7.047  0.1095  0.0099 -1.8490
   9623SM  C10S12972   2.539   7.390   7.249 -0.8036 -0.4218 -0.0991
   9623SM  H10S12973   2.472   7.478   7.258 -2.0493 -1.3436 -0.1847
   9623SM  H10T12974   2.636   7.417   7.298 -1.0726  3.3880 -1.3871
   9623SM  C11S12975   2.468   7.280   7.324  0.7949 -0.5430 -0.2471
   9623SM  H11S12976   2.506   7.179   7.295  0.6687 -0.5310 -0.4542
   9623SM  H11T12977   2.362   7.272   7.291  1.0253  0.8958 -1.4239
   9623SM  C12S12978   2.470   7.292   7.473 -0.7666 -0.6952  0.0018
   9623SM  H12S12979   2.426   7.389   7.505  0.5645 -0.3772  0.9706
   9623SM  H12T12980   2.573   7.304   7.514 -0.8896 -0.8492  0.3523
   9623SM  C13S12981   2.393   7.186   7.547  0.4728  0.2279  0.1019
   9623SM  H13S12982   2.438   7.086   7.529 -0.1100  0.4147 -3.1446
   9623SM  H13T12983   2.295   7.178   7.494  0.5724 -1.3405  0.1280
   9623SM  C14S12984   2.388   7.227   7.692  0.0946  0.0145 -0.2625
   9623SM  H14S12985   2.301   7.291   7.718 -1.4236 -1.8725 -0.5394
   9623SM  H14T12986   2.488   7.272   7.711 -0.0743  0.3971 -0.2728
   9623SM  C15S12987   2.376   7.096   7.777  0.4572 -0.4030  0.1848
   9623SM  H15S12988   2.455   7.026   7.741  0.7274  0.2302 -0.4732
   9623SM  H15T12989   2.281   7.044   7.755 -1.2068  1.0819  3.2089
   9623SM  C16S12990   2.391   7.106   7.929  0.2504 -0.1150 -0.3363
   9623SM  H16S12991   2.487   7.162   7.933  0.3573 -0.3899  2.1402
   9623SM  H16T12992   2.380   7.005   7.974 -2.1704 -0.3255 -1.2320
   9623SM  C17S12993   2.287   7.200   7.997  0.2353 -0.4785  0.1064
   9623SM  H17S12994   2.190   7.147   7.982  0.0423 -0.4893  1.3361
   9623SM  H17T12995   2.298   7.299   7.948 -0.7777 -0.5499 -0.2868
   9623SM  C18S12996   2.311   7.209   8.148  0.4898  0.1395 -0.4876
   9623SM  H18S12997   2.358   7.117   8.189  1.6431  0.6950 -0.5082
   9623SM  H18T12998   2.215   7.234   8.196  0.7196  2.2749 -1.0026
   9623SM  H18U12999   2.367   7.300   8.179 -0.6892  0.9741 -0.7501
   9623SM   C1F13000   3.240   7.173   6.668 -0.0429 -0.9928  0.2057
   9623SM    OF13001   3.318   7.266   6.639  0.2139 -0.0715  0.0020
   9623SM   C2F13002   3.292   7.051   6.745  0.4430 -0.7066  0.8138
   9623SM   H2F13003   3.266   6.963   6.683 -1.0127  0.2753 -0.0221
   9623SM   H2G13004   3.238   7.052   6.842 -3.8332  1.6358 -1.3079
   9623SM   C3F13005   3.440   7.069   6.786  0.4082  0.6145  0.8996
   9623SM   H3F13006   3.450   7.168   6.837  0.8829  1.1473 -0.2032
   9623SM   H3G13007   3.502   7.073   6.694 -2.4780  1.5149 -1.1258
   9623SM   C4F13008   3.480   6.949   6.879  0.0693  0.2133  0.2412
   9623SM   H4F13009   3.591   6.944   6.881  0.0951 -1.5161 -1.5849
   9623SM   H4G13010   3.452   6.854   6.828 -0.7564  1.2965 -1.4391
   9623SM   C5F13011   3.417   6.949   7.016 -0.1791  0.3172  0.6105
   9623SM   H5F13012   3.306   6.953   7.012 -0.2063 -0.1435  0.8339
   9623SM   H5G13013   3.446   7.043   7.068 -0.4557  1.4037 -1.1114
   9623SM   C6F13014   3.469   6.823   7.084  0.1197  0.8821 -0.4274
   9623SM   H6F13015   3.578   6.844   7.086 -0.0504  1.7847  0.1272
   9623SM   H6G13016   3.447   6.734   7.021  1.0641 -0.1656  0.6918
   9623SM   C7F13017   3.412   6.788   7.221  0.5819  0.0986 -0.4032
   9623SM   H7F13018   3.455   6.693   7.259  1.2056  0.1309 -1.0077
   9623SM   H7G13019   3.304   6.767   7.210  0.5536  0.2623 -0.4490
   9623SM   C8F13020   3.428   6.907   7.314 -0.3638 -0.0013  0.2663
   9623SM   H8F13021   3.387   7.002   7.273  0.5932  0.3559  0.1044
   9623SM   H8G13022   3.534   6.935   7.331 -0.7617  1.6362  0.2380
   9623SM   C9F13023   3.371   6.877   7.455 -0.4075  0.6773  0.7377
   9623SM   H9F13024   3.412   6.955   7.523 -0.1539  0.8744  0.3594
   9623SM   H9G13025   3.402   6.783   7.505 -0.3032  0.4904  0.3186
   9623SM  C10F13026   3.218   6.890   7.460 -0.0178  0.5077  0.6622
   9623SM  H10F13027   3.180   6.813   7.389  0.2548  0.9127  0.0657
   9623SM  H10G13028   3.180   6.990   7.432 -0.7733  0.2196  0.6408
   9623SM  C11F13029   3.157   6.862   7.600 -0.9063  0.6231 -0.2497
   9623SM  H11F13030   3.200   6.943   7.662  1.1591  1.1888 -2.2680
   9623SM  H11G13031   3.191   6.762   7.634  1.0402  1.5097  0.5724
   9623SM  C12F13032   3.001   6.858   7.592 -0.0071  0.2565 -0.4215
   9623SM  H12F13033   2.980   6.786   7.511  1.2065  1.7638 -2.1440
   9623SM  H12G13034   2.968   6.957   7.555  1.3347  0.6919 -0.5109
   9623SM  C13F13035   2.942   6.802   7.726 -0.7631  0.0744  0.1759
   9623SM  H13F13036   2.991   6.863   7.805  1.6742 -1.5929  0.0689
   9623SM  H13G13037   2.985   6.702   7.750 -0.3203  0.7105  2.1623
   9623SM  C14F13038   2.789   6.807   7.745 -1.0158 -0.6700 -0.1915
   9623SM  H14F13039   2.762   6.757   7.650 -2.7575  0.6420 -0.4419
   9623SM  H14G13040   2.743   6.908   7.746 -1.1192 -0.7071 -0.7531
   9623SM  C15F13041   2.741   6.737   7.875  0.6958 -0.1926  0.2626
   9623SM  H15F13042   2.753   6.627   7.868  1.1789 -0.1813  0.8476
   9623SM  H15G13043   2.631   6.754   7.881  0.7817 -0.0099  1.9049
   9623SM  C16F13044   2.798   6.783   8.006 -0.2674  1.1526  0.0617
   9623SM  H16F13045   2.908   6.767   8.012 -0.2963 -0.1445 -1.9010
   9623SM  H16G13046   2.759   6.721   8.090  2.1757  0.8495  1.0551
   9623SM  C17F13047   2.785   6.937   8.042  0.0127 -0.5043  0.9601
   9623SM  H17F13048   2.682   6.978   8.042  0.1003 -0.2086 -0.9605
   9623SM  H17G13049   2.832   6.993   7.959 -1.3195 -1.1663 -0.2908
   9623SM  C18F13050   2.860   6.975   8.163 -0.8358  0.5463  0.0462
   9623SM  H18F13051   2.952   6.913   8.155 -1.5852 -0.6535  0.4295
   9623SM  H18G13052   2.804   6.940   8.252 -1.5952  0.3021 -0.5169
   9623SM  C19F13053   2.911   7.123   8.165 -0.7820  0.4646 -0.2713
   9623SM  H19F13054   2.833   7.201   8.152 -1.0720  0.1437 -0.4670
   9623SM  H19G13055   2.982   7.134   8.080  0.3485 -1.9147  0.2871
   9623SM  C20F13056   2.996   7.153   8.289 -0.0275  1.0570  0.1695
   9623SM  H20F13057   3.068   7.068   8.291 -0.0908  0.9953 -0.1125
   9623SM  H20G13058   2.935   7.130   8.379  0.3299 -2.9140 -0.4380
   9623SM  C21F13059   3.071   7.290   8.301 -0.5766  0.3394  0.8508
   9623SM  H21F13060   3.134   7.305   8.211  0.2419 -0.1084  1.3319
   9623SM  H21G13061   3.144   7.277   8.384 -0.0157 -2.4303  0.0517
   9623SM  C22F13062   2.966   7.396   8.314 -0.3944 -0.8049 -0.5042
   9623SM  H22F13063   2.887   7.396   8.235 -0.0418  2.0584 -0.9823
   9623SM  H22G13064   3.016   7.494   8.300  0.4952 -1.0534  0.7564
   9623SM  C23F13065   2.914   7.393   8.462  0.1282  0.2466  0.3116
   9623SM  H23F13066   3.000   7.399   8.532  0.5852 -2.0130 -0.0011
   9623SM  H23G13067   2.870   7.294   8.483  0.5690  0.4150  2.2126
   9623SM  H23H13068   2.851   7.482   8.483 -0.2296  0.2811 -0.8379
   9723SM     N13069   3.498   5.143   5.937  0.1063  0.2755  0.1265
   9723SM   C1513070   3.479   5.009   5.882 -0.4346 -0.5215  0.0050
   9723SM  H15A13071   3.383   5.006   5.832 -1.0171 -0.9821  1.1286
   9723SM  H15B13072   3.488   4.925   5.950  1.7793 -0.0924  0.3162
   9723SM  H15C13073   3.559   4.983   5.814  0.6491  0.4584  0.8724
   9723SM   C1413074   3.640   5.153   5.988  0.0730  0.8861 -0.6357
   9723SM  H14A13075   3.663   5.082   6.066 -0.9261  0.6598 -0.5327
   9723SM  H14B13076   3.658   5.250   6.033  1.6678  0.9804 -1.4288
   9723SM  H14C13077   3.706   5.143   5.904 -1.3020 -2.4669 -1.4709
   9723SM   C1313078   3.495   5.247   5.831 -0.5856 -0.4051 -0.2795
   9723SM  H13A13079   3.504   5.345   5.876  2.1432 -0.2379 -1.0132
   9723SM  H13B13080   3.402   5.238   5.778 -1.5823  1.8419  0.9260
   9723SM  H13C13081   3.571   5.236   5.755  0.6055  0.2706  0.7531
   9723SM   C1213082   3.397   5.173   6.054 -0.7577  0.2126  0.4448
   9723SM  H12A13083   3.383   5.091   6.123 -2.3431  1.0935  1.2309
   9723SM  H12B13084   3.297   5.187   6.014 -0.0261  1.8573 -0.9377
   9723SM   C1113085   3.429   5.303   6.132 -0.6210 -0.2902  0.2213
   9723SM  H11A13086   3.524   5.294   6.189 -0.9825  0.2595  0.9409
   9723SM  H11B13087   3.354   5.308   6.215 -1.3513  0.4397 -0.4732
   9723SM     P13088   3.318   5.522   6.043 -0.3753 -0.2622 -0.0915
   9723SM   O1313089   3.381   5.655   6.026  0.0789 -0.5886 -0.7041
   9723SM   O1413090   3.224   5.485   5.935  0.5286 -0.4612 -0.3695
   9723SM   O1113091   3.245   5.511   6.178 -0.1961  0.3002 -0.2927
   9723SM   O1213092   3.428   5.417   6.049  0.2668  0.1810 -0.9897
   9723SM   C1S13093   3.300   5.534   6.310 -0.0681  0.2857  0.6180
   9723SM   H1S13094   3.409   5.517   6.312 -0.3318 -2.0268 -0.9766
   9723SM   H1T13095   3.256   5.462   6.382  1.9613 -1.5187  0.1518
   9723SM    NF13096   3.340   5.711   6.478 -0.3147  0.1909 -0.1512
   9723SM   HNF13097   3.295   5.715   6.567  3.2696  0.2976  1.8146
   9723SM   C2S13098   3.265   5.680   6.360 -0.6769 -0.1261  0.1814
   9723SM   H2S13099   3.291   5.755   6.282 -1.3975  1.5622  1.5037
   9723SM   C3S13100   3.107   5.683   6.377 -0.0103  0.2854  0.5305
   9723SM   H3S13101   3.068   5.612   6.453  0.3659 -1.5757 -0.9504
   9723SM    O313102   3.033   5.670   6.255 -0.1703  0.1031 -0.0777
   9723SM   HO313103   3.090   5.627   6.191  2.1099  1.9443  0.5971
   9723SM   C4S13104   3.066   5.811   6.438  0.3436 -0.7259 -0.1638
   9723SM   H4S13105   3.047   5.797   6.546  1.9128  0.1027  0.2548
   9723SM   C5S13106   3.035   5.931   6.386  0.4359 -0.2107  0.1913
   9723SM   H5S13107   3.046   5.938   6.276  2.3923  0.9561  0.4112
   9723SM   C6S13108   3.010   6.058   6.468 -0.1069 -0.0274 -0.5645
   9723SM   H6S13109   3.022   6.035   6.576 -1.2544 -0.5303 -0.5254
   9723SM   H6T13110   2.901   6.079   6.467 -0.5435 -2.0623 -1.8978
   9723SM   C7S13111   3.098   6.180   6.438  0.4207 -0.5203  0.7940
   9723SM   H7S13112   3.070   6.264   6.504  0.5498  0.5726 -0.5011
   9723SM   H7T13113   3.074   6.211   6.334 -1.8236  1.7935  1.8929
   9723SM   C8S13114   3.251   6.150   6.438 -0.0740 -0.6611 -0.6546
   9723SM   H8S13115   3.309   6.238   6.404  3.0205 -1.6882  1.5222
   9723SM   H8T13116   3.280   6.059   6.382 -3.6983 -2.0148 -0.6308
   9723SM   C9S13117   3.292   6.112   6.585 -0.0910 -0.1653  0.0411
   9723SM   H9S13118   3.374   6.036   6.584  0.4844  0.4250  0.9662
   9723SM   H9T13119   3.212   6.062   6.644  0.8231 -2.0447 -0.2265
   9723SM  C10S13120   3.349   6.233   6.656  0.4789 -0.0250  0.1180
   9723SM  H10S13121   3.267   6.307   6.668 -0.2104 -0.7708  0.1065
   9723SM  H10T13122   3.422   6.278   6.585  0.5257 -0.6963 -0.2654
   9723SM  C11S13123   3.423   6.205   6.789  0.4831  0.1650  0.5798
   9723SM  H11S13124   3.455   6.099   6.786 -2.4093 -0.8136  1.1343
   9723SM  H11T13125   3.361   6.223   6.880 -0.8226  2.2297 -0.6371
   9723SM  C12S13126   3.537   6.296   6.788 -0.2439 -0.4809 -0.5440
   9723SM  H12S13127   3.518   6.405   6.790  2.6200  0.1093 -1.2937
   9723SM  H12T13128   3.601   6.282   6.699  1.5044  0.3707  0.5164
   9723SM  C13S13129   3.636   6.266   6.906  0.4515 -0.0601 -0.6622
   9723SM  H13S13130   3.732   6.321   6.903  0.0364  0.7072 -0.0954
   9723SM  H13T13131   3.657   6.157   6.900  0.0164 -0.1188 -1.3270
   9723SM  C14S13132   3.587   6.310   7.048 -0.3703 -0.5006 -0.8480
   9723SM  H14S13133   3.497   6.259   7.087 -0.4712  0.8281  0.7882
   9723SM  H14T13134   3.564   6.419   7.047  0.4319 -0.3161 -0.5232
   9723SM  C15S13135   3.695   6.274   7.163 -0.7011  0.4076 -0.4073
   9723SM  H15S13136   3.664   6.346   7.242 -0.6357 -0.4903  0.4469
   9723SM  H15T13137   3.798   6.307   7.137 -0.3269 -0.2572  0.2068
   9723SM  C16S13138   3.683   6.133   7.212  0.6987 -0.6277  0.5982
   9723SM  H16S13139   3.669   6.066   7.125  2.4088 -1.4470  0.9138
   9723SM  H16T13140   3.612   6.112   7.294 -0.4246  1.2189  0.1626
   9723SM  C17S13141   3.825   6.095   7.258  0.2107 -0.2386 -0.5793
   9723SM  H17S13142   3.867   6.165   7.333 -0.1413 -1.3498  0.7103
   9723SM  H17T13143   3.894   6.095   7.171  1.5515  0.4716  0.4438
   9723SM  C18S13144   3.847   5.963   7.334 -0.0371 -0.2828 -0.0608
   9723SM  H18S13145   3.946   5.964   7.384 -0.6152  0.6308  1.1090
   9723SM  H18T13146   3.825   5.882   7.260 -2.3356  0.6096 -0.4463
   9723SM  H18U13147   3.775   5.948   7.417 -0.7717 -0.4454 -0.7123
   9723SM   C1F13148   3.469   5.721   6.476 -0.6840 -0.3350 -0.4702
   9723SM    OF13149   3.531   5.772   6.382  0.0945  0.2454 -0.6864
   9723SM   C2F13150   3.549   5.687   6.600  0.7763  0.1377  0.1491
   9723SM   H2F13151   3.626   5.613   6.570 -0.1387 -0.6116 -0.3949
   9723SM   H2G13152   3.480   5.651   6.679 -0.5182  0.9074 -0.5710
   9723SM   C3F13153   3.615   5.818   6.652  0.5765  0.0235 -0.0748
   9723SM   H3F13154   3.542   5.892   6.692 -2.9464 -2.2382 -1.8546
   9723SM   H3G13155   3.658   5.861   6.559  0.3934 -0.0725 -0.2036
   9723SM   C4F13156   3.737   5.786   6.741  0.4119 -0.2687  0.4310
   9723SM   H4F13157   3.792   5.878   6.769  1.0875 -0.2098 -0.9996
   9723SM   H4G13158   3.803   5.715   6.687 -2.2443 -2.0589 -0.6456
   9723SM   C5F13159   3.717   5.695   6.864 -0.7542  0.5474 -0.4352
   9723SM   H5F13160   3.678   5.592   6.846  0.2226 -0.2992  1.8032
   9723SM   H5G13161   3.645   5.745   6.933 -0.9752  1.4048 -1.2636
   9723SM   C6F13162   3.855   5.693   6.937  0.1073  0.4147 -0.7164
   9723SM   H6F13163   3.884   5.795   6.968  0.1193  0.7207 -1.6882
   9723SM   H6G13164   3.947   5.664   6.881  1.6108 -0.7413  2.1753
   9723SM   C7F13165   3.840   5.620   7.069  0.6504  1.0414 -0.4543
   9723SM   H7F13166   3.823   5.511   7.057 -0.9121  1.2491 -0.3224
   9723SM   H7G13167   3.750   5.652   7.125  2.1749  1.7766  1.7114
   9723SM   C8F13168   3.964   5.624   7.157  0.2773  0.0676  0.4525
   9723SM   H8F13169   3.987   5.729   7.185  2.5806  0.7307 -3.2546
   9723SM   H8G13170   4.054   5.595   7.100 -0.1847  0.9639 -0.7788
   9723SM   C9F13171   3.962   5.542   7.293 -0.9650  0.0518  0.5712
   9723SM   H9F13172   3.933   5.438   7.265  0.7233  0.3045 -2.5700
   9723SM   H9G13173   3.892   5.581   7.370 -0.5448 -0.8038  1.3962
   9723SM  C10F13174   4.101   5.555   7.351  0.6928  0.3326  0.1168
   9723SM  H10F13175   4.123   5.664   7.353  0.8911  0.2962  0.0015
   9723SM  H10G13176   4.173   5.497   7.289 -0.8129 -1.9773  0.4117
   9723SM  C11F13177   4.117   5.507   7.494  0.2088 -0.2148  0.1567
   9723SM  H11F13178   4.224   5.478   7.505  0.6199  0.6357 -1.2672
   9723SM  H11G13179   4.064   5.411   7.509  0.4116 -0.4678 -0.6593
   9723SM  C12F13180   4.096   5.621   7.592  0.7051 -0.1371 -0.4202
   9723SM  H12F13181   4.010   5.683   7.558 -0.0197 -1.1771 -0.5307
   9723SM  H12G13182   4.186   5.686   7.586 -1.0371  2.6011  0.9495
   9723SM  C13F13183   4.056   5.563   7.730  0.4831 -0.0834 -0.3668
   9723SM  H13F13184   3.954   5.520   7.723 -0.2924  1.9291 -3.3427
   9723SM  H13G13185   4.053   5.652   7.797 -0.1580  1.0267 -1.8103
   9723SM  C14F13186   4.170   5.473   7.793  0.1867  0.0811  0.4455
   9723SM  H14F13187   4.269   5.524   7.792 -0.6298  1.8551 -2.6705
   9723SM  H14G13188   4.192   5.381   7.735  2.4677  0.4705  0.5964
   9723SM  C15F13189   4.144   5.424   7.935  0.3518  0.2165 -0.1765
   9723SM  H15F13190   4.209   5.337   7.956  0.9616  0.7609  0.2223
   9723SM  H15G13191   4.041   5.388   7.955  0.8494 -1.4286 -0.4331
   9723SM  C16F13192   4.186   5.518   8.047 -0.4217  0.1609  0.2560
   9723SM  H16F13193   4.141   5.617   8.025 -1.8909 -0.7782 -1.1895
   9723SM  H16G13194   4.297   5.523   8.054 -0.5647  2.2985  2.4260
   9723SM  C17F13195   4.137   5.472   8.183  0.5697  0.0499  0.1228
   9723SM  H17F13196   4.030   5.442   8.183 -0.1948  2.5363 -0.0393
   9723SM  H17G13197   4.145   5.567   8.240 -1.0889  1.1968 -1.4518
   9723SM  C18F13198   4.215   5.358   8.250 -0.1429 -0.3764  0.4047
   9723SM  H18F13199   4.235   5.268   8.189 -0.6591 -0.3324  0.1656
   9723SM  H18G13200   4.142   5.324   8.327 -0.4000  1.8825  1.2452
   9723SM  C19F13201   4.352   5.397   8.316  0.2628 -0.4005 -0.2409
   9723SM  H19F13202   4.337   5.488   8.378  0.0565  0.0788 -0.9845
   9723SM  H19G13203   4.422   5.420   8.233  0.1560  1.4845  0.1266
   9723SM  C20F13204   4.410   5.275   8.399  0.4302  0.2019 -0.4442
   9723SM  H20F13205   4.431   5.196   8.324  0.8926 -0.9948  0.8891
   9723SM  H20G13206   4.323   5.248   8.464 -0.4562  2.4385 -0.6006
   9723SM  C21F13207   4.532   5.309   8.482 -0.6959  0.0702  0.2861
   9723SM  H21F13208   4.512   5.380   8.565 -0.3521  0.1230  0.3256
   9723SM  H21G13209   4.598   5.364   8.412 -1.9241  0.8914 -0.2577
   9723SM  C22F13210   4.611   5.189   8.537  0.1042 -0.4657 -0.0850
   9723SM  H22F13211   4.648   5.116   8.462 -0.2411 -0.2273 -0.4918
   9723SM  H22G13212   4.532   5.127   8.585  0.6160  0.2265  1.7370
   9723SM  C23F13213   4.713   5.238   8.637 -0.5534 -0.3815 -0.0215
   9723SM  H23F13214   4.783   5.169   8.688 -0.8548  0.2785  1.3504
   9723SM  H23G13215   4.643   5.277   8.714  0.5907  1.6634  0.0590
   9723SM  H23H13216   4.764   5.327   8.594 -3.4055  0.6611 -1.5487
   9823SM     N13217   6.256   6.227   5.988  0.4953  0.2032  0.0371
   9823SM   C1513218   6.275   6.164   6.127 -0.4010 -0.7054 -0.6686
   9823SM  H15A13219   6.318   6.066   6.117 -1.2552 -1.2789  0.8528
   9823SM  H15B13220   6.185   6.154   6.186  1.0162 -1.1262  1.5387
   9823SM  H15C13221   6.342   6.228   6.182  0.5466 -0.7057 -1.7893
   9823SM   C1413222   6.158   6.142   5.921  0.3253 -0.8656  0.6828
   9823SM  H14A13223   6.100   6.192   5.845  1.4342 -0.7201 -0.0891
   9823SM  H14B13224   6.091   6.089   5.987 -0.8698 -0.8367 -0.4523
   9823SM  H14C13225   6.213   6.073   5.859  1.3437 -0.2642  0.8874
   9823SM   C1313226   6.182   6.350   6.010 -0.8807 -0.1753  0.0617
   9823SM  H13A13227   6.233   6.424   6.070 -1.6496 -0.2185  0.7802
   9823SM  H13B13228   6.094   6.338   6.071  0.1459  0.3653  1.7008
   9823SM  H13C13229   6.159   6.400   5.917  0.5736 -1.5199 -1.0754
   9823SM   C1213230   6.384   6.249   5.920 -0.2352 -0.3281 -0.3127
   9823SM  H12A13231   6.366   6.308   5.832  0.9733 -0.3674 -0.6015
   9823SM  H12B13232   6.425   6.160   5.873  0.7192  0.0344 -0.1908
   9823SM   C1113233   6.499   6.307   6.006 -0.0498 -0.5206 -0.1185
   9823SM  H11A13234   6.591   6.323   5.946  0.5395  0.5610  1.0367
   9823SM  H11B13235   6.526   6.235   6.087  0.5225 -1.3239 -0.9986
   9823SM     P13236   6.498   6.571   6.020 -0.1184  0.3939  0.0070
   9823SM   O1313237   6.502   6.573   5.873  0.6793 -0.3468  0.2554
   9823SM   O1413238   6.405   6.670   6.083  0.1138  0.3538  0.0534
   9823SM   O1113239   6.643   6.601   6.071 -0.1956 -0.2517  0.0659
   9823SM   O1213240   6.463   6.432   6.067  0.0451  0.9020 -0.5019
   9823SM   C1S13241   6.667   6.618   6.210  0.5747  0.4666 -0.0403
   9823SM   H1S13242   6.591   6.680   6.262 -1.7665  1.2844 -4.0658
   9823SM   H1T13243   6.751   6.690   6.224  1.7252 -0.6433 -1.0301
   9823SM    NF13244   6.720   6.513   6.439  0.3319  0.6344  0.0642
   9823SM   HNF13245   6.811   6.523   6.479 -0.3410 -1.4166  2.3383
   9823SM   C2S13246   6.700   6.485   6.293 -0.4208  0.2317 -0.1359
   9823SM   H2S13247   6.611   6.418   6.292  1.4325 -2.4013 -0.5112
   9823SM   C3S13248   6.821   6.402   6.223  0.6142  0.4415  0.3653
   9823SM   H3S13249   6.909   6.467   6.208 -0.3235  1.4709 -1.0102
   9823SM    O313250   6.791   6.370   6.088  1.1107  0.1501  0.7140
   9823SM   HO313251   6.727   6.436   6.061  0.5914 -1.1654 -1.5127
   9823SM   C4S13252   6.859   6.285   6.298  0.3693  0.3338 -0.1289
   9823SM   H4S13253   6.957   6.305   6.345  0.9195  0.9055 -1.4524
   9823SM   C5S13254   6.795   6.168   6.315 -0.8155  0.9010 -0.2730
   9823SM   H5S13255   6.689   6.154   6.290 -1.0929  0.0097  1.2588
   9823SM   C6S13256   6.856   6.046   6.384 -0.0984 -0.1024  0.1432
   9823SM   H6S13257   6.966   6.057   6.391 -0.1863  0.2392  1.1322
   9823SM   H6T13258   6.838   5.948   6.336 -1.2363  1.4441 -2.8680
   9823SM   C7S13259   6.803   6.030   6.529  0.0851 -0.3126  0.2006
   9823SM   H7S13260   6.858   5.942   6.569  0.3555 -0.4038 -0.3596
   9823SM   H7T13261   6.696   5.998   6.528  0.5097 -1.8483  0.5371
   9823SM   C8S13262   6.824   6.149   6.621  0.5780  0.4083  0.2803
   9823SM   H8S13263   6.745   6.226   6.604  2.2666  1.9848 -0.8527
   9823SM   H8T13264   6.922   6.195   6.598  0.1559  1.7897  1.0752
   9823SM   C9S13265   6.820   6.103   6.770 -0.6069 -1.0106  0.6374
   9823SM   H9S13266   6.907   6.033   6.765  1.9120  1.9339 -0.9450
   9823SM   H9T13267   6.723   6.050   6.780 -2.2889  1.0912 -2.6171
   9823SM  C10S13268   6.844   6.219   6.863  1.0993 -0.6218 -0.1115
   9823SM  H10S13269   6.757   6.289   6.862  0.1886 -1.7144 -1.1204
   9823SM  H10T13270   6.942   6.267   6.846  0.2359  1.6408  0.8870
   9823SM  C11S13271   6.847   6.164   7.005 -0.1699 -0.0936 -0.1157
   9823SM  H11S13272   6.940   6.107   7.025 -0.6678 -1.0317 -0.4334
   9823SM  H11T13273   6.760   6.095   7.013 -1.1305  1.1299  0.4224
   9823SM  C12S13274   6.835   6.260   7.121 -0.4702 -0.6175  0.0327
   9823SM  H12S13275   6.741   6.316   7.106  0.6185  1.7154  1.3191
   9823SM  H12T13276   6.915   6.338   7.116 -0.4198 -0.4262  2.3905
   9823SM  C13S13277   6.812   6.189   7.248 -0.3071  0.0171 -0.1335
   9823SM  H13S13278   6.902   6.127   7.265 -1.2608 -1.9616 -1.9057
   9823SM  H13T13279   6.713   6.138   7.244  0.1927 -0.8637 -1.7280
   9823SM  C14S13280   6.797   6.280   7.368 -0.1497  0.0134 -0.2754
   9823SM  H14S13281   6.698   6.330   7.371 -0.1707 -0.0875  1.0968
   9823SM  H14T13282   6.875   6.359   7.367  0.0341 -0.0773  2.1884
   9823SM  C15S13283   6.797   6.213   7.504  0.0633  0.1691  0.1717
   9823SM  H15S13284   6.890   6.157   7.527  1.3156  1.3765 -1.6336
   9823SM  H15T13285   6.725   6.129   7.500  0.3459 -0.0680  0.0579
   9823SM  C16S13286   6.747   6.302   7.612 -0.4191  0.1633  0.2979
   9823SM  H16S13287   6.644   6.338   7.589 -0.6237  0.1179  1.1042
   9823SM  H16T13288   6.823   6.382   7.614 -1.0192  1.0491 -3.6528
   9823SM  C17S13289   6.736   6.220   7.740 -0.2025  0.1333  0.1358
   9823SM  H17S13290   6.835   6.181   7.771  0.1501  1.1877  0.3859
   9823SM  H17T13291   6.676   6.129   7.716  0.6311 -0.7321  1.2257
   9823SM  C18S13292   6.675   6.301   7.861  0.3097 -0.0891 -0.0853
   9823SM  H18S13293   6.584   6.352   7.825  0.4620 -0.9925 -1.8796
   9823SM  H18T13294   6.740   6.384   7.895  0.0030 -0.6290  1.9473
   9823SM  H18U13295   6.646   6.231   7.943 -0.0659  1.1259  0.8345
   9823SM   C1F13296   6.622   6.531   6.526  0.5589 -0.1348  0.1600
   9823SM    OF13297   6.505   6.518   6.495  0.0802 -0.0098  0.2254
   9823SM   C2F13298   6.667   6.556   6.663  0.3501  0.8636  0.2755
   9823SM   H2F13299   6.755   6.623   6.656  0.6572  0.4237 -0.0955
   9823SM   H2G13300   6.696   6.461   6.713 -1.5182 -0.3087 -0.7721
   9823SM   C3F13301   6.561   6.627   6.758 -0.3245 -0.4921 -0.3455
   9823SM   H3F13302   6.470   6.562   6.758 -0.7224  0.0290 -1.4686
   9823SM   H3G13303   6.530   6.722   6.710 -0.7729  0.3192  1.4729
   9823SM   C4F13304   6.618   6.656   6.902  0.0779  0.7577 -0.1684
   9823SM   H4F13305   6.708   6.717   6.878  1.2952 -1.3894 -1.4478
   9823SM   H4G13306   6.644   6.557   6.946 -3.1008  0.1631  0.6332
   9823SM   C5F13307   6.528   6.739   6.990 -0.3742 -0.7431 -0.0611
   9823SM   H5F13308   6.438   6.674   7.002 -0.3250 -0.4237  2.6689
   9823SM   H5G13309   6.512   6.834   6.935  0.7214 -0.3240  0.3173
   9823SM   C6F13310   6.573   6.784   7.126  0.2674 -0.1159 -0.2122
   9823SM   H6F13311   6.487   6.815   7.189 -1.6318 -2.0899 -1.7071
   9823SM   H6G13312   6.649   6.864   7.116  0.0125  0.2079  0.4002
   9823SM   C7F13313   6.644   6.679   7.214  0.0227  0.1871 -0.0489
   9823SM   H7F13314   6.742   6.667   7.164 -0.3057 -0.6188 -0.5191
   9823SM   H7G13315   6.582   6.587   7.217 -0.1376  0.2908 -0.1297
   9823SM   C8F13316   6.682   6.712   7.362  0.2925 -0.2584 -0.5839
   9823SM   H8F13317   6.762   6.790   7.363  0.4857 -0.4562 -0.4479
   9823SM   H8G13318   6.730   6.633   7.423  1.6550  1.2158  0.3648
   9823SM   C9F13319   6.558   6.758   7.448 -0.0574 -0.5707 -0.0959
   9823SM   H9F13320   6.487   6.678   7.474 -1.7351  1.1200  0.7657
   9823SM   H9G13321   6.503   6.835   7.390  0.7403  0.3594  0.3514
   9823SM  C10F13322   6.611   6.838   7.575  0.4895  0.3549 -0.1772
   9823SM  H10F13323   6.657   6.930   7.532  0.6991 -0.1487 -1.0435
   9823SM  H10G13324   6.684   6.776   7.631 -0.8252 -0.0817  1.0954
   9823SM  C11F13325   6.503   6.879   7.677  0.5092 -0.6771  0.1193
   9823SM  H11F13326   6.431   6.795   7.680  1.5018 -1.5688 -0.5328
   9823SM  H11G13327   6.450   6.964   7.629  0.0411 -0.5322  0.8798
   9823SM  C12F13328   6.554   6.922   7.814 -0.0686 -0.2519  0.2730
   9823SM  H12F13329   6.628   7.005   7.807  0.9388 -0.7384  3.3964
   9823SM  H12G13330   6.599   6.834   7.866 -2.3581 -0.9442  1.1745
   9823SM  C13F13331   6.451   6.959   7.922 -1.0008  0.3694 -0.8125
   9823SM  H13F13332   6.367   6.887   7.932 -2.3351  2.1146  1.7382
   9823SM  H13G13333   6.399   7.052   7.891 -1.1835  1.0812  1.4684
   9823SM  C14F13334   6.500   7.003   8.060  0.1140  1.0798  0.2355
   9823SM  H14F13335   6.422   7.070   8.101  1.7885  1.5725  2.8540
   9823SM  H14G13336   6.588   7.070   8.047  1.2227 -0.1431  1.0913
   9823SM  C15F13337   6.510   6.883   8.154  0.6856  0.0311 -0.2491
   9823SM  H15F13338   6.594   6.814   8.130  0.8096  0.4422 -1.0088
   9823SM  H15G13339   6.417   6.823   8.146  0.5487  0.4311 -1.7921
   9823SM  C16F13340   6.525   6.946   8.297  0.0674  0.4131  0.0607
   9823SM  H16F13341   6.446   7.019   8.326 -1.5775 -1.1476 -0.2282
   9823SM  H16G13342   6.627   6.989   8.291  1.6332 -3.1238 -2.4289
   9823SM  C17F13343   6.516   6.840   8.401  0.0677  0.1285  0.1542
   9823SM  H17F13344   6.594   6.762   8.395  1.5273  1.1811  3.2714
   9823SM  H17G13345   6.429   6.773   8.380  0.1430  0.3144 -0.7806
   9823SM  C18F13346   6.511   6.885   8.547  0.5435  0.3662 -0.0014
   9823SM  H18F13347   6.418   6.944   8.559  0.9005  0.9838 -0.2573
   9823SM  H18G13348   6.604   6.939   8.575  0.4566  1.0095 -0.9064
   9823SM  C19F13349   6.496   6.766   8.648 -0.0184 -0.7326  0.6050
   9823SM  H19F13350   6.601   6.728   8.651  0.6773  1.1438  1.5441
   9823SM  H19G13351   6.427   6.686   8.612 -0.1843 -0.7956  1.0658
   9823SM  C20F13352   6.446   6.814   8.783 -0.0666 -0.0220  0.2515
   9823SM  H20F13353   6.352   6.868   8.757  0.3915  0.5582 -0.2349
   9823SM  H20G13354   6.510   6.887   8.837 -0.0154 -0.9147  1.4377
   9823SM  C21F13355   6.425   6.684   8.862 -0.4576  0.1590 -0.1887
   9823SM  H21F13356   6.507   6.617   8.829 -0.1241  0.7090 -0.5017
   9823SM  H21G13357   6.325   6.642   8.837 -0.6685  0.8363 -0.5327
   9823SM  C22F13358   6.429   6.696   9.017 -0.4682  0.3648 -0.4646
   9823SM  H22F13359   6.483   6.787   9.048 -0.9442  0.4032  0.2676
   9823SM  H22G13360   6.472   6.603   9.061 -4.7122 -1.7749 -0.2124
   9823SM  C23F13361   6.286   6.705   9.071 -0.3047 -0.5212 -0.0034
   9823SM  H23F13362   6.229   6.776   9.008  0.0159 -0.3677 -0.1243
   9823SM  H23G13363   6.292   6.730   9.179  0.4862 -2.0085  0.3269
   9823SM  H23H13364   6.239   6.605   9.062 -0.5007 -0.3847 -0.5833
   9923SM     N13365   0.006   6.057   6.285  0.1334 -0.6014 -0.2080
   9923SM   C1513366   0.094   5.977   6.198  0.1126  0.5948  0.1315
   9923SM  H15A13367   0.115   5.877   6.235 -0.7985  0.1548 -0.5026
   9923SM  H15B13368   0.194   6.017   6.188  1.2291 -1.9903 -0.0496
   9923SM  H15C13369   0.053   5.964   6.099 -0.4322 -1.5525  0.5893
   9923SM   C1413370   0.049   6.196   6.255  0.3842 -0.1894  0.0849
   9923SM  H14A13371   0.150   6.215   6.290 -0.0406 -0.3189  1.4696
   9923SM  H14B13372  -0.008   6.275   6.303 -1.1169 -1.3675  0.2951
   9923SM  H14C13373   0.051   6.212   6.149  3.6530  1.2846  0.2497
   9923SM   C1313374  -0.133   6.022   6.238 -0.7020  0.3372 -0.1076
   9923SM  H13A13375  -0.211   6.077   6.290 -0.3131  1.3682 -0.5718
   9923SM  H13B13376  -0.145   5.916   6.248 -1.6153  0.3624 -0.7465
   9923SM  H13C13377  -0.142   6.038   6.131 -0.7727  0.5415 -0.0731
   9923SM   C1213378   0.009   6.018   6.430  0.7039 -0.2481  0.9374
   9923SM  H12A13379  -0.016   5.913   6.436  0.7621 -0.3548 -0.3602
   9923SM  H12B13380  -0.068   6.070   6.486  0.0886 -1.5112  1.2995
   9923SM   C1113381   0.148   6.039   6.497  0.3115  0.1229 -0.5455
   9923SM  H11A13382   0.134   6.030   6.607 -0.6920 -0.2161 -0.6899
   9923SM  H11B13383   0.179   6.142   6.467  2.1536 -0.2150  0.0971
   9923SM     P13384   0.225   5.797   6.513  0.0074  0.0185 -0.1232
   9923SM   O1313385   0.087   5.745   6.483 -0.2494 -0.6706 -0.1672
   9923SM   O1413386   0.342   5.720   6.475 -0.8025 -0.0810  0.5880
   9923SM   O1113387   0.217   5.825   6.672 -0.4039  0.4316  0.4399
   9923SM   O1213388   0.230   5.936   6.445 -0.1045 -0.1747 -0.5446
   9923SM   C1S13389   0.334   5.865   6.741 -0.5589 -0.1497 -0.1285
   9923SM   H1S13390   0.358   5.973   6.724  1.5920 -0.2688  1.6852
   9923SM   H1T13391   0.423   5.803   6.718 -0.8543 -0.8065  0.4856
   9923SM    NF13392   0.394   5.955   6.964  0.4103  0.3912 -0.6096
   9923SM   HNF13393   0.482   5.933   7.005 -0.4640  1.3614  1.9868
   9923SM   C2S13394   0.318   5.854   6.888 -0.4299  0.1860 -0.3281
   9923SM   H2S13395   0.211   5.872   6.910 -0.5174 -1.4012  0.7426
   9923SM   C3S13396   0.340   5.705   6.927  0.2650  0.2261  0.4862
   9923SM   H3S13397   0.444   5.678   6.899 -0.1116  0.2576 -0.9914
   9923SM    O313398   0.249   5.625   6.849 -0.6869  0.0786  0.6024
   9923SM   HO313399   0.201   5.689   6.797 -0.1137  1.3391  1.5577
   9923SM   C4S13400   0.325   5.678   7.078 -0.4234 -0.4978  0.3812
   9923SM   H4S13401   0.410   5.716   7.137  0.6276 -1.2975 -0.5757
   9923SM   C5S13402   0.240   5.612   7.154 -0.3325  0.2652 -0.5784
   9923SM   H5S13403   0.152   5.563   7.108 -0.9562  0.0048  0.8163
   9923SM   C6S13404   0.236   5.593   7.305 -0.6365 -0.4018  0.0009
   9923SM   H6S13405   0.137   5.640   7.325 -0.0880  0.8241 -0.0877
   9923SM   H6T13406   0.313   5.653   7.359  1.4581 -0.6277 -2.5139
   9923SM   C7S13407   0.252   5.449   7.346  0.3483 -0.1251 -0.3672
   9923SM   H7S13408   0.345   5.404   7.305  1.2426  0.7292  0.6558
   9923SM   H7T13409   0.164   5.389   7.314 -0.9558  0.4165  1.9208
   9923SM   C8S13410   0.262   5.433   7.498 -0.1590  0.9200 -0.3601
   9923SM   H8S13411   0.330   5.505   7.548  1.2492 -1.5835  1.5108
   9923SM   H8T13412   0.313   5.336   7.510 -1.6992  0.4673  5.4273
   9923SM   C9S13413   0.121   5.433   7.564  0.3261  0.1684 -0.0237
   9923SM   H9S13414   0.054   5.464   7.480 -0.3172 -0.2088  0.3390
   9923SM   H9T13415   0.121   5.506   7.648  0.0920 -1.7517  1.7191
   9923SM  C10S13416   0.076   5.295   7.612 -0.7982 -0.1724 -0.0155
   9923SM  H10S13417   0.133   5.256   7.699 -0.6331  0.5804  0.2247
   9923SM  H10T13418   0.073   5.215   7.535 -2.5762 -0.1109 -0.0569
   9923SM  C11S13419  -0.070   5.312   7.657  0.2399  0.1818 -0.5668
   9923SM  H11S13420  -0.113   5.214   7.686 -0.0069 -0.4835 -2.9573
   9923SM  H11T13421  -0.125   5.360   7.573 -0.2326  0.7154  0.0383
   9923SM  C12S13422  -0.085   5.404   7.779  0.9849 -1.0290  0.4920
   9923SM  H12S13423  -0.071   5.512   7.760  0.3151 -1.0174  0.0177
   9923SM  H12T13424  -0.008   5.382   7.856  0.8937  0.7173  1.1189
   9923SM  C13S13425  -0.224   5.391   7.833  0.1857  0.1663 -0.1984
   9923SM  H13S13426  -0.243   5.286   7.865 -1.1399  0.3900 -0.1756
   9923SM  H13T13427  -0.298   5.410   7.752 -0.6409 -0.2213  0.4396
   9923SM  C14S13428  -0.248   5.485   7.953 -0.2309 -0.2816 -0.2214
   9923SM  H14S13429  -0.280   5.581   7.907 -1.7152 -0.9531 -0.6775
   9923SM  H14T13430  -0.158   5.506   8.014  1.8553 -2.4988 -2.3185
   9923SM  C15S13431  -0.359   5.435   8.039 -0.0535 -0.5228 -0.2905
   9923SM  H15S13432  -0.434   5.386   7.973  2.6665 -0.8579 -3.3903
   9923SM  H15T13433  -0.411   5.520   8.087  0.4470 -1.1474  1.4479
   9923SM  C16S13434  -0.310   5.339   8.144 -0.1940 -0.4884  0.2388
   9923SM  H16S13435  -0.240   5.263   8.102  0.2665  0.3673 -0.5682
   9923SM  H16T13436  -0.401   5.283   8.174 -0.1445 -1.2107 -0.9144
   9923SM  C17S13437  -0.245   5.401   8.260  0.5935  0.3817  0.0798
   9923SM  H17S13438  -0.323   5.461   8.312  1.5434  0.3298  1.6133
   9923SM  H17T13439  -0.162   5.473   8.240  0.6044  0.9374  1.8985
   9923SM  C18S13440  -0.194   5.296   8.351  0.0549  0.2308  0.3301
   9923SM  H18S13441  -0.272   5.240   8.407 -0.5844 -0.7376 -1.4677
   9923SM  H18T13442  -0.139   5.354   8.428  0.3627  0.2157  0.1232
   9923SM  H18U13443  -0.124   5.235   8.291 -0.9422  0.9940 -1.6962
   9923SM   C1F13444   0.358   6.084   6.978 -0.4973 -0.5292 -0.2444
   9923SM    OF13445   0.255   6.128   6.921 -0.1466  0.1887 -0.1325
   9923SM   C2F13446   0.451   6.165   7.068  0.9108  0.0968 -0.1744
   9923SM   H2F13447   0.498   6.255   7.023 -0.9813  1.0985 -0.2903
   9923SM   H2G13448   0.540   6.100   7.080 -1.1839 -2.9023  0.0627
   9923SM   C3F13449   0.388   6.198   7.203  0.1958  0.1666  0.4504
   9923SM   H3F13450   0.300   6.265   7.192 -1.2329 -1.3313  2.1514
   9923SM   H3G13451   0.473   6.248   7.253  2.3582 -2.1829 -0.6350
   9923SM   C4F13452   0.344   6.075   7.285 -0.4717 -1.2937  0.7098
   9923SM   H4F13453   0.435   6.012   7.289  1.7616  1.5986 -0.8753
   9923SM   H4G13454   0.256   6.026   7.237 -2.4388  2.6616 -0.1302
   9923SM   C5F13455   0.319   6.112   7.433  0.0297 -0.2383  1.0536
   9923SM   H5F13456   0.255   6.038   7.487 -2.4415 -0.3705 -1.7602
   9923SM   H5G13457   0.267   6.210   7.440  1.5057  0.7501 -0.8789
   9923SM   C6F13458   0.442   6.141   7.519 -0.1755  0.4993  0.7377
   9923SM   H6F13459   0.487   6.236   7.483 -0.9770 -0.0285 -1.8763
   9923SM   H6G13460   0.520   6.064   7.500 -2.4973 -1.7644 -0.1689
   9923SM   C7F13461   0.422   6.146   7.671  0.1293 -0.5282  0.5802
   9923SM   H7F13462   0.394   6.041   7.692  0.5159 -0.4668  1.4461
   9923SM   H7G13463   0.336   6.210   7.698 -0.7871 -1.9159  1.0551
   9923SM   C8F13464   0.550   6.167   7.756 -0.6177  0.2834 -1.2429
   9923SM   H8F13465   0.597   6.251   7.701  1.0670 -1.2183 -2.1990
   9923SM   H8G13466   0.614   6.077   7.765 -0.0342  0.8048  0.1238
   9923SM   C9F13467   0.527   6.228   7.897  0.4269  0.5408  0.6541
   9923SM   H9F13468   0.485   6.155   7.970 -1.1972 -1.2535 -1.9018
   9923SM   H9G13469   0.473   6.323   7.878  1.2999  0.9358  0.0702
   9923SM  C10F13470   0.651   6.272   7.970 -0.3185  0.0049 -0.1186
   9923SM  H10F13471   0.712   6.325   7.893 -0.9963  0.6544 -0.2135
   9923SM  H10G13472   0.713   6.192   8.016  0.0358 -0.7542 -1.8436
   9923SM  C11F13473   0.621   6.365   8.083  0.4829 -0.2934 -0.3205
   9923SM  H11F13474   0.561   6.455   8.057 -1.3560 -0.8323  1.7625
   9923SM  H11G13475   0.715   6.394   8.136 -1.0396  0.2895  2.2294
   9923SM  C12F13476   0.540   6.301   8.197  0.3485  0.3004  0.1785
   9923SM  H12F13477   0.584   6.206   8.237 -2.1091 -1.0285 -0.0670
   9923SM  H12G13478   0.438   6.276   8.160  0.1821  0.3933  0.5683
   9923SM  C13F13479   0.518   6.399   8.314  0.6383 -0.2681 -0.2511
   9923SM  H13F13480   0.440   6.362   8.384 -1.2398  2.8936 -0.4505
   9923SM  H13G13481   0.481   6.495   8.273  0.9225  0.7465  1.7336
   9923SM  C14F13482   0.642   6.424   8.393 -0.5931 -0.8013  0.5942
   9923SM  H14F13483   0.731   6.450   8.333  0.6887 -2.9346  1.4655
   9923SM  H14G13484   0.675   6.323   8.426  2.5531 -0.6838 -1.7635
   9923SM  C15F13485   0.618   6.536   8.492 -0.1349  0.3106  0.2560
   9923SM  H15F13486   0.705   6.541   8.560 -0.7295  0.1613  1.0306
   9923SM  H15G13487   0.523   6.521   8.547  0.8370 -0.1258  1.8499
   9923SM  C16F13488   0.617   6.674   8.428 -0.9604 -0.6576  0.2141
   9923SM  H16F13489   0.520   6.675   8.375 -1.0138 -1.1847  0.3044
   9923SM  H16G13490   0.701   6.687   8.356 -2.1374  2.6524 -0.7603
   9923SM  C17F13491   0.617   6.782   8.534 -0.5174 -0.2306 -0.8259
   9923SM  H17F13492   0.721   6.790   8.573 -0.9526  0.6691  0.1931
   9923SM  H17G13493   0.555   6.748   8.619  1.9047 -2.1875  0.2893
   9923SM  C18F13494   0.594   6.922   8.489  0.1087 -0.1975  0.1560
   9923SM  H18F13495   0.498   6.930   8.433 -0.1334  2.7816  0.8039
   9923SM  H18G13496   0.678   6.941   8.420 -0.1267  0.1445 -0.0418
   9923SM  C19F13497   0.595   7.022   8.610 -0.0101  0.6919  0.6716
   9923SM  H19F13498   0.672   6.997   8.686  3.5161  1.9724 -2.2244
   9923SM  H19G13499   0.493   7.016   8.654  0.2715  1.3134  1.4414
   9923SM  C20F13500   0.619   7.165   8.560  0.0339 -0.0324 -0.4900
   9923SM  H20F13501   0.546   7.190   8.480 -0.4811  0.2146  0.0438
   9923SM  H20G13502   0.720   7.165   8.514  1.4406  0.6969  2.3116
   9923SM  C21F13503   0.588   7.278   8.659  0.2967  0.3043  0.8611
   9923SM  H21F13504   0.483   7.284   8.694  0.5062 -0.5296  1.6682
   9923SM  H21G13505   0.587   7.379   8.614  0.9922  0.4242  1.0954
   9923SM  C22F13506   0.671   7.266   8.791  0.2263  0.7408  0.4689
   9923SM  H22F13507   0.773   7.257   8.748 -1.1432  1.6319 -3.4222
   9923SM  H22G13508   0.657   7.171   8.847  4.1668  0.6204  1.5335
   9923SM  C23F13509   0.654   7.390   8.867 -0.0046  0.5092 -0.3577
   9923SM  H23F13510   0.713   7.388   8.961 -0.5266 -0.1009 -0.0316
   9923SM  H23G13511   0.545   7.404   8.886 -0.5834 -1.8863 -1.6038
   9923SM  H23H13512   0.689   7.480   8.812 -2.1217  0.0777 -2.5387
  10023SM     N13513   1.020   6.698   6.101 -0.2658 -0.7630  0.2878
  10023SM   C1513514   1.003   6.795   6.213 -0.7063  0.0544  0.2375
  10023SM  H15A13515   1.082   6.795   6.287 -0.5277  1.9722  0.1074
  10023SM  H15B13516   0.903   6.791   6.254 -0.7095 -0.5449  0.1823
  10023SM  H15C13517   1.009   6.896   6.174  2.6486  0.3617  1.2749
  10023SM   C1413518   0.889   6.673   6.025  0.5783 -0.5198 -0.2407
  10023SM  H14A13519   0.832   6.599   6.079  2.2187 -0.8639  1.0789
  10023SM  H14B13520   0.913   6.626   5.930 -0.5672 -1.4264 -0.0997
  10023SM  H14C13521   0.824   6.759   6.018  0.7084 -0.3472  0.6412
  10023SM   C1313522   1.119   6.756   6.005  0.4534 -0.5652  0.1415
  10023SM  H13A13523   1.148   6.686   5.928  2.4188 -2.0061  2.0775
  10023SM  H13B13524   1.211   6.782   6.055  0.4365 -1.6900  0.7812
  10023SM  H13C13525   1.091   6.850   5.960  0.3096  0.1829  1.7241
  10023SM   C1213526   1.064   6.567   6.166  0.4146 -0.3104 -0.2090
  10023SM  H12A13527   1.160   6.584   6.213  0.2325 -2.2041  0.9754
  10023SM  H12B13528   1.081   6.491   6.090 -0.4344 -0.3729 -0.3412
  10023SM   C1113529   0.973   6.501   6.279 -0.3481 -0.6099 -0.2600
  10023SM  H11A13530   0.964   6.583   6.354 -1.5817  0.0277 -1.0685
  10023SM  H11B13531   1.029   6.414   6.319 -0.7552 -1.1652 -0.8803
  10023SM     P13532   0.735   6.435   6.344  0.2311  0.4868  0.0550
  10023SM   O1313533   0.622   6.526   6.328 -0.0107 -0.2556 -0.1001
  10023SM   O1413534   0.695   6.295   6.329  0.2150  0.1974  0.0732
  10023SM   O1113535   0.803   6.461   6.480  0.0400 -0.5671  0.0287
  10023SM   O1213536   0.841   6.467   6.232 -0.6608 -0.5430 -0.5004
  10023SM   C1S13537   0.728   6.543   6.577  0.1093 -0.7000 -0.5457
  10023SM   H1S13538   0.625   6.502   6.586  1.3505 -3.7600  1.2420
  10023SM   H1T13539   0.723   6.648   6.541 -0.3713 -0.8411 -0.9009
  10023SM    NF13540   0.696   6.580   6.819  0.0011  0.2831  0.1101
  10023SM   HNF13541   0.701   6.676   6.844 -1.4320  0.8173 -1.5318
  10023SM   C2S13542   0.791   6.538   6.721 -0.0718 -0.6910  0.7105
  10023SM   H2S13543   0.817   6.431   6.736  0.6478 -0.9937 -2.1576
  10023SM   C3S13544   0.924   6.614   6.721  0.2799 -0.1312 -0.2556
  10023SM   H3S13545   0.894   6.720   6.708 -0.4962 -0.3744 -0.4896
  10023SM    O313546   1.011   6.600   6.615 -0.2617  0.4236  0.7482
  10023SM   HO313547   0.949   6.557   6.556 -0.5524  1.2276  0.4558
  10023SM   C4S13548   0.998   6.603   6.860  0.0630  0.0613  0.2127
  10023SM   H4S13549   0.978   6.697   6.913 -0.1430  0.2894 -0.2626
  10023SM   C5S13550   1.094   6.518   6.908 -0.1190  0.5440  0.2008
  10023SM   H5S13551   1.135   6.440   6.842 -1.3739 -0.7961  0.9630
  10023SM   C6S13552   1.155   6.548   7.039  0.6169  0.5268  0.4508
  10023SM   H6S13553   1.099   6.627   7.094 -1.3114  0.4233 -1.2404
  10023SM   H6T13554   1.259   6.584   7.022  0.2356  1.4513  0.0264
  10023SM   C7S13555   1.166   6.426   7.124 -0.2935  0.4211 -0.3477
  10023SM   H7S13556   1.244   6.361   7.079  0.3413  0.6205  0.4530
  10023SM   H7T13557   1.069   6.372   7.140 -0.2215 -0.1495 -1.6937
  10023SM   C8S13558   1.223   6.469   7.259  0.2040 -0.0938  0.2677
  10023SM   H8S13559   1.145   6.517   7.322 -0.2334  0.0133 -0.3510
  10023SM   H8T13560   1.306   6.540   7.240  0.4712 -1.0109 -2.3515
  10023SM   C9S13561   1.279   6.349   7.337  0.3611  0.4180 -0.0503
  10023SM   H9S13562   1.362   6.298   7.285  0.1256 -0.2507  0.2230
  10023SM   H9T13563   1.194   6.277   7.336 -0.6918  1.6023  1.0060
  10023SM  C10S13564   1.335   6.397   7.470  0.2022  0.1365 -0.1142
  10023SM  H10S13565   1.252   6.426   7.538  0.2919 -0.6173  0.3221
  10023SM  H10T13566   1.398   6.487   7.452  1.5904 -1.2252 -2.5624
  10023SM  C11S13567   1.413   6.288   7.545  0.1740  0.0186 -0.0113
  10023SM  H11S13568   1.508   6.324   7.590  0.1395 -2.7760  2.6770
  10023SM  H11T13569   1.433   6.201   7.478  1.0359  0.9314 -0.9539
  10023SM  C12S13570   1.336   6.226   7.666  0.1710 -0.4575  0.0924
  10023SM  H12S13571   1.254   6.168   7.618 -1.4681  1.0237  1.0152
  10023SM  H12T13572   1.291   6.311   7.721 -0.3326 -0.3364 -0.4971
  10023SM  C13S13573   1.418   6.140   7.762 -0.3508 -0.6156  0.5432
  10023SM  H13S13574   1.504   6.208   7.780 -0.2419 -0.7990  0.7377
  10023SM  H13T13575   1.459   6.056   7.702 -0.5087  0.7067 -1.5086
  10023SM  C14S13576   1.363   6.104   7.899 -0.4285 -0.7051 -0.3136
  10023SM  H14S13577   1.274   6.041   7.878 -1.7569  0.2356  2.1227
  10023SM  H14T13578   1.323   6.190   7.957  3.3465  1.1219 -0.0986
  10023SM  C15S13579   1.453   6.017   7.980  0.0225  0.4161 -0.1909
  10023SM  H15S13580   1.538   6.077   8.020 -1.0873  0.9267  1.5087
  10023SM  H15T13581   1.492   5.936   7.915 -0.6158 -1.1293  1.2800
  10023SM  C16S13582   1.372   5.943   8.092 -0.2357 -0.1677  0.0344
  10023SM  H16S13583   1.267   5.935   8.055  0.2288 -0.9030 -1.2051
  10023SM  H16T13584   1.362   6.010   8.180 -0.3560 -0.7585  0.4732
  10023SM  C17S13585   1.398   5.798   8.122  0.0286 -0.1645 -0.3201
  10023SM  H17S13586   1.366   5.732   8.039  2.3717 -1.5347 -0.2352
  10023SM  H17T13587   1.321   5.768   8.197  1.3473 -0.9590  0.7747
  10023SM  C18S13588   1.540   5.772   8.181  0.8004 -0.2021 -1.1510
  10023SM  H18S13589   1.564   5.828   8.274 -2.4058 -0.2355 -0.1759
  10023SM  H18T13590   1.625   5.815   8.124  2.4109  0.5575  1.6162
  10023SM  H18U13591   1.549   5.661   8.189 -0.4602 -0.3633 -1.7500
  10023SM   C1F13592   0.588   6.516   6.865  0.4901 -0.0090 -0.2204
  10023SM    OF13593   0.558   6.396   6.843  0.7621 -0.6105 -0.5800
  10023SM   C2F13594   0.493   6.612   6.936 -0.4968  0.3019  0.1927
  10023SM   H2F13595   0.440   6.675   6.862  0.5775  1.3856  0.3099
  10023SM   H2G13596   0.549   6.675   7.008 -0.9952 -0.6459  1.4376
  10023SM   C3F13597   0.385   6.541   7.032 -0.8293 -0.0350  0.0119
  10023SM   H3F13598   0.445   6.485   7.107  0.8823 -2.0351 -2.6531
  10023SM   H3G13599   0.334   6.458   6.979 -2.9481  1.0465  0.2333
  10023SM   C4F13600   0.292   6.649   7.090  0.6835 -0.1543 -0.1825
  10023SM   H4F13601   0.217   6.691   7.019  1.8023 -0.0856 -1.3820
  10023SM   H4G13602   0.351   6.734   7.132 -0.7532  1.2431 -0.9068
  10023SM   C5F13603   0.214   6.580   7.205  0.1682 -0.8617 -0.1137
  10023SM   H5F13604   0.198   6.656   7.285 -1.8429 -0.6659 -0.6615
  10023SM   H5G13605   0.275   6.498   7.249 -0.2012 -0.6107  0.9034
  10023SM   C6F13606   0.079   6.524   7.157  0.4223 -0.0368 -0.3891
  10023SM   H6F13607   0.094   6.461   7.067 -1.2326 -0.6204 -0.2862
  10023SM   H6G13608   0.018   6.604   7.110 -0.7735 -0.2451  0.7698
  10023SM   C7F13609  -0.010   6.450   7.268 -0.0326 -0.2436 -0.4571
  10023SM   H7F13610   0.031   6.366   7.329  0.2644  0.4358  0.2882
  10023SM   H7G13611  -0.100   6.411   7.215 -0.5570  2.0914 -1.3846
  10023SM   C8F13612  -0.072   6.545   7.379 -0.2674 -0.5688  0.0990
  10023SM   H8F13613   0.011   6.602   7.427  0.3930  0.9285 -2.6052
  10023SM   H8G13614  -0.133   6.489   7.452  0.6550 -0.4026  1.0222
  10023SM   C9F13615  -0.156   6.649   7.303 -0.0417 -0.0557  0.7291
  10023SM   H9F13616  -0.235   6.605   7.239 -0.6472  0.8385  0.8437
  10023SM   H9G13617  -0.101   6.706   7.225 -1.8237  0.2776 -0.3489
  10023SM  C10F13618  -0.245   6.739   7.389  0.3836 -1.4990  0.2320
  10023SM  H10F13619  -0.336   6.690   7.430 -0.6895  1.6784  1.9939
  10023SM  H10G13620  -0.284   6.822   7.327 -1.1667 -2.7660 -0.5484
  10023SM  C11F13621  -0.176   6.801   7.511 -0.1932  0.9507 -0.5026
  10023SM  H11F13622  -0.132   6.731   7.585  3.6193  1.4998 -1.9760
  10023SM  H11G13623  -0.232   6.873   7.574 -0.1343  1.3221 -0.8694
  10023SM  C12F13624  -0.058   6.891   7.460  0.2692 -1.2438 -0.0600
  10023SM  H12F13625  -0.108   6.963   7.392 -0.0489 -2.8960 -1.6619
  10023SM  H12G13626  -0.000   6.822   7.395  0.9215  0.7129 -1.6442
  10023SM  C13F13627   0.033   6.937   7.572  0.2249  0.8676  0.4738
  10023SM  H13F13628   0.043   6.852   7.643  0.2103  0.0560 -0.4779
  10023SM  H13G13629  -0.023   7.016   7.626  0.5198  2.1258 -1.0069
  10023SM  C14F13630   0.171   6.984   7.541 -0.1560  0.5896  0.4422
  10023SM  H14F13631   0.161   7.081   7.486 -3.2091  0.7838  1.1207
  10023SM  H14G13632   0.223   6.904   7.484  3.0565  3.0830 -0.4218
  10023SM  C15F13633   0.256   7.006   7.670 -0.0760  0.1527  0.1407
  10023SM  H15F13634   0.359   7.032   7.637 -0.9340  1.5585 -1.6378
  10023SM  H15G13635   0.253   6.921   7.741 -2.7169  0.2518  0.2328
  10023SM  C16F13636   0.212   7.139   7.746  0.0153 -0.3836  0.0986
  10023SM  H16F13637   0.124   7.112   7.809 -0.0124 -0.0669  0.1974
  10023SM  H16G13638   0.181   7.219   7.677  0.3181 -0.7247 -0.4405
  10023SM  C17F13639   0.323   7.194   7.836 -0.0410 -0.4741 -0.0201
  10023SM  H17F13640   0.417   7.179   7.779 -0.1879  1.4938 -0.8658
  10023SM  H17G13641   0.332   7.144   7.934  0.8117 -0.4003 -0.0520
  10023SM  C18F13642   0.295   7.339   7.865  0.4510  0.3315  0.1155
  10023SM  H18F13643   0.290   7.398   7.771 -3.4385  0.5531  0.2768
  10023SM  H18G13644   0.382   7.383   7.917  2.1029 -1.2246 -1.2207
  10023SM  C19F13645   0.161   7.366   7.939 -0.3239 -0.2258 -0.1947
  10023SM  H19F13646   0.079   7.306   7.894  0.4774 -0.2473 -1.6616
  10023SM  H19G13647   0.138   7.470   7.906  3.0683  0.0414 -2.0857
  10023SM  C20F13648   0.159   7.357   8.093 -0.3080  0.7063 -0.1535
  10023SM  H20F13649   0.221   7.442   8.128  0.6548 -0.4043  0.9376
  10023SM  H20G13650   0.202   7.260   8.126  1.1988  1.9824  1.9134
  10023SM  C21F13651   0.011   7.368   8.146  0.3284 -0.6980 -0.2912
  10023SM  H21F13652   0.008   7.366   8.257 -1.5261  1.6848 -0.2000
  10023SM  H21G13653  -0.034   7.274   8.109  1.4385 -1.8210  1.1095
  10023SM  C22F13654  -0.065   7.493   8.097 -0.3611  0.0309 -0.0787
  10023SM  H22F13655  -0.161   7.485   8.152 -0.0439  1.6994  0.7666
  10023SM  H22G13656  -0.067   7.489   7.986  5.4126 -2.0851 -0.4500
  10023SM  C23F13657  -0.010   7.632   8.136 -0.0725 -0.4445 -0.1808
  10023SM  H23F13658  -0.027   7.707   8.056 -1.4908  0.7797  1.1915
  10023SM  H23G13659   0.094   7.630   8.173 -0.9254  1.7957  2.7216
  10023SM  H23H13660  -0.067   7.672   8.223 -2.2335 -1.4191 -1.0571
  101CHL1    C313661   2.837   3.448   9.788  0.2526 -0.8195 -0.6620
  101CHL1    H313662   2.923   3.509   9.754 -0.1967  0.5948  0.6326
  101CHL1    O313663   2.875   3.414   9.920  0.2696  0.8225 -0.5079
  101CHL1   H3'13664   2.798   3.367   9.954 -0.6749  1.3848 -1.8356
  101CHL1    C413665   2.710   3.538   9.803 -0.1346  0.1304  0.4361
  101CHL1   H4A13666   2.652   3.479   9.877  0.1966  0.6590  1.1348
  101CHL1   H4B13667   2.737   3.630   9.860 -0.9986  0.1984  0.7533
  101CHL1    C513668   2.644   3.548   9.662  0.2223  0.2348  0.1555
  101CHL1    C613669   2.596   3.670   9.623 -0.7354 -0.0753  0.1633
  101CHL1    H613670   2.608   3.762   9.682 -1.1962  1.2512 -1.7058
  101CHL1    C713671   2.520   3.698   9.500 -0.7885 -0.2778 -0.1806
  101CHL1   H7A13672   2.430   3.758   9.523 -0.4536 -0.2970  1.2866
  101CHL1   H7B13673   2.586   3.757   9.432 -1.3174 -2.7279 -3.0303
  101CHL1    C813674   2.472   3.573   9.435 -0.5745 -0.2813 -0.2762
  101CHL1    H813675   2.380   3.535   9.484 -1.8289  0.4822 -1.9460
  101CHL1   C1413676   2.435   3.593   9.288 -0.3283  0.2978 -0.2931
  101CHL1   H1413677   2.526   3.622   9.232 -1.6315  2.3448 -1.5037
  101CHL1   C1513678   2.337   3.706   9.256  0.0437  0.3311 -0.0243
  101CHL1  H15A13679   2.276   3.707   9.349 -0.2379  1.9587 -0.1938
  101CHL1  H15B13680   2.388   3.805   9.256 -0.3202  0.6355 -3.2467
  101CHL1   C1613681   2.260   3.666   9.127 -0.1785 -0.1916 -0.2441
  101CHL1  H16A13682   2.151   3.662   9.148 -0.1023  1.1931  0.5787
  101CHL1  H16B13683   2.269   3.751   9.057  0.6962  1.1624  1.4175
  101CHL1   C1713684   2.332   3.535   9.087 -0.0738 -0.4702 -0.1752
  101CHL1   H1713685   2.424   3.558   9.028  1.0490  1.5650  2.1885
  101CHL1   C1313686   2.377   3.474   9.213  1.0000  0.0800  0.4563
  101CHL1   C1813687   2.254   3.422   9.285  0.2043  0.2720  0.4890
  101CHL1  H18A13688   2.277   3.385   9.387  0.1262  2.3462  1.3083
  101CHL1  H18B13689   2.171   3.496   9.289  0.7202  0.8098  1.6748
  101CHL1  H18C13690   2.211   3.331   9.238 -3.1178  1.4201  1.0457
  101CHL1   C1213691   2.488   3.363   9.206  0.3300 -0.9538 -0.7123
  101CHL1  H12A13692   2.440   3.268   9.176 -1.6621  0.1314 -1.1506
  101CHL1  H12B13693   2.571   3.392   9.138  0.8951 -0.3913  0.1870
  101CHL1   C1113694   2.548   3.342   9.354 -0.1455  0.9363  0.2614
  101CHL1  H11A13695   2.487   3.264   9.405  1.7034 -1.0427 -0.4239
  101CHL1  H11B13696   2.643   3.286   9.341 -0.6049  0.1515  0.1820
  101CHL1    C913697   2.580   3.462   9.437  0.7587 -0.1333 -0.1290
  101CHL1    H913698   2.670   3.503   9.387 -0.1121  0.9839 -0.8447
  101CHL1   C1013699   2.616   3.427   9.581  0.1188  0.2323  0.4285
  101CHL1   C1913700   2.501   3.349   9.645 -0.0094  0.1793 -0.0470
  101CHL1  H19A13701   2.479   3.251   9.597 -0.4852  0.3098 -0.0970
  101CHL1  H19B13702   2.518   3.320   9.751  1.6980  1.7915  0.1643
  101CHL1  H19C13703   2.399   3.393   9.653 -0.1663 -0.2609  0.4445
  101CHL1    C113704   2.743   3.341   9.587  0.0639 -0.0910 -0.2142
  101CHL1   H1A13705   2.723   3.237   9.554  1.3019 -0.4670  0.1503
  101CHL1   H1B13706   2.823   3.383   9.522  0.2749  1.8654  1.2394
  101CHL1    C213707   2.806   3.318   9.724  0.2218  1.5145  0.0152
  101CHL1   H2A13708   2.901   3.267   9.696  0.3939  1.3140  0.9240
  101CHL1   H2B13709   2.746   3.248   9.785 -0.1031  0.1394 -1.8001
  101CHL1   C2013710   2.247   3.456   8.984  0.4366  0.4332  0.3306
  101CHL1   H2013711   2.150   3.430   9.033 -0.8514  0.0115 -2.2462
  101CHL1   C2113712   2.328   3.332   8.936 -0.0173 -0.4296  0.3501
  101CHL1  H21A13713   2.321   3.243   9.001  2.1207 -1.5388 -0.8366
  101CHL1  H21B13714   2.435   3.361   8.931  0.0546 -0.7565 -0.0197
  101CHL1  H21C13715   2.302   3.296   8.834  0.3433  2.6281 -0.9511
  101CHL1   C2213716   2.206   3.542   8.865  0.0000  0.7205  0.1542
  101CHL1  H22A13717   2.146   3.477   8.797 -0.4332  0.5908  0.6574
  101CHL1  H22B13718   2.141   3.627   8.894  0.7253  2.2606 -2.3704
  101CHL1   C2313719   2.319   3.613   8.789 -0.0814 -0.0667 -0.5885
  101CHL1  H23A13720   2.389   3.672   8.852  2.2524 -1.4542 -1.7316
  101CHL1  H23B13721   2.376   3.531   8.741 -0.9291 -1.5460  0.8458
  101CHL1   C2413722   2.253   3.710   8.690 -0.2549 -0.4603 -0.1482
  101CHL1  H24A13723   2.202   3.657   8.606  0.8791  0.9224 -1.7791
  101CHL1  H24B13724   2.191   3.790   8.735  0.5922 -0.4849  1.1074
  101CHL1   C2513725   2.366   3.784   8.610 -0.0902  0.7777  0.5533
  101CHL1   H2513726   2.418   3.834   8.694 -1.9935 -0.7567  2.7579
  101CHL1   C2613727   2.462   3.693   8.537 -0.6066  0.5591 -0.3182
  101CHL1  H26A13728   2.533   3.757   8.479 -0.3104  0.6995  0.1982
  101CHL1  H26B13729   2.528   3.630   8.600  0.2458  0.5659 -1.1806
  101CHL1  H26C13730   2.390   3.646   8.467 -1.7506 -0.0171  1.2110
  101CHL1   C2713731   2.307   3.885   8.512 -0.7496  0.7807 -0.3476
  101CHL1  H27A13732   2.393   3.950   8.483 -0.2174 -0.1845 -0.9567
  101CHL1  H27B13733   2.272   3.825   8.426  1.8012 -2.6562  0.8060
  101CHL1  H27C13734   2.218   3.936   8.556 -0.4461  0.9010  0.1318
  102CHL1    C313735   1.608   3.032   9.963  0.1951  0.1916 -0.0407
  102CHL1    H313736   1.638   2.928   9.938  0.6005  0.3687 -0.2964
  102CHL1    O313737   1.615   3.063  10.109 -0.1825 -0.2831  0.3671
  102CHL1   H3'13738   1.572   3.149  10.117 -2.1202 -1.1291 -0.3706
  102CHL1    C413739   1.692   3.129   9.882 -0.1120 -0.6167  0.4661
  102CHL1   H4A13740   1.677   3.237   9.904  2.4713  0.5031 -2.4892
  102CHL1   H4B13741   1.797   3.110   9.914  0.3415 -0.3112 -0.7899
  102CHL1    C513742   1.673   3.107   9.732  0.2173 -0.3095 -0.2078
  102CHL1    C613743   1.773   3.072   9.649 -0.0449  0.1396  0.2378
  102CHL1    H613744   1.878   3.063   9.681  1.1586  0.5534 -3.1155
  102CHL1    C713745   1.756   3.068   9.500 -0.1695 -0.8933  0.3415
  102CHL1   H7A13746   1.837   3.122   9.446  1.5037 -0.4909  3.0514
  102CHL1   H7B13747   1.761   2.962   9.467 -2.4364 -0.5525 -1.3002
  102CHL1    C813748   1.622   3.126   9.448 -0.2903 -0.1784 -0.0698
  102CHL1    H813749   1.631   3.236   9.451 -1.2441  0.0074 -2.4000
  102CHL1   C1413750   1.600   3.084   9.303  0.4862  0.5813 -0.8317
  102CHL1   H1413751   1.591   2.973   9.303  0.0550  0.6102 -0.5327
  102CHL1   C1513752   1.715   3.113   9.211  0.1440 -0.0284  0.0743
  102CHL1  H15A13753   1.740   3.220   9.226 -1.8309  0.6424 -0.9690
  102CHL1  H15B13754   1.800   3.041   9.216  1.0900  1.0632 -0.0840
  102CHL1   C1613755   1.641   3.091   9.078 -0.4625 -0.0769  0.2153
  102CHL1  H16A13756   1.669   3.187   9.030  3.6231 -1.2693 -0.1104
  102CHL1  H16B13757   1.687   3.018   9.010 -0.6442 -1.3028  1.3603
  102CHL1   C1713758   1.491   3.063   9.101 -0.1621  0.0250 -0.1883
  102CHL1   H1713759   1.478   2.954   9.114 -1.2646  0.1280 -0.3684
  102CHL1   C1313760   1.469   3.130   9.241  0.6459  0.0696 -0.3604
  102CHL1   C1813761   1.466   3.286   9.230 -0.1207  1.2955  0.2204
  102CHL1  H18A13762   1.559   3.312   9.175  1.6858 -2.7796  0.9754
  102CHL1  H18B13763   1.372   3.309   9.174  1.0321  2.7559 -1.1818
  102CHL1  H18C13764   1.469   3.335   9.330  2.3008  0.3615  0.6627
  102CHL1   C1213765   1.351   3.078   9.322 -0.2943  0.1107  0.0214
  102CHL1  H12A13766   1.253   3.115   9.285 -1.1951 -2.5250 -0.4276
  102CHL1  H12B13767   1.340   2.968   9.310  2.4717 -0.4273  1.5589
  102CHL1   C1113768   1.372   3.116   9.473  0.5304  0.0399  0.7273
  102CHL1  H11A13769   1.367   3.227   9.469  3.0494  0.2146 -3.4498
  102CHL1  H11B13770   1.293   3.077   9.540 -0.4566  0.3176 -0.2504
  102CHL1    C913771   1.511   3.081   9.538 -0.3935 -0.4025 -0.0527
  102CHL1    H913772   1.514   2.970   9.543  0.5745 -0.3996 -0.4309
  102CHL1   C1013773   1.530   3.125   9.686 -0.7795 -0.1390 -0.4591
  102CHL1   C1913774   1.505   3.276   9.701  0.2875  0.2997  0.9680
  102CHL1  H19A13775   1.577   3.331   9.636 -0.3512 -0.0802 -0.0855
  102CHL1  H19B13776   1.402   3.298   9.667  0.3501  0.6786  1.0154
  102CHL1  H19C13777   1.512   3.309   9.807 -0.5586  0.2505  1.0440
  102CHL1    C113778   1.438   3.038   9.772 -0.5002  0.3739 -0.1918
  102CHL1   H1A13779   1.331   3.059   9.751  0.0948  2.1697 -1.7897
  102CHL1   H1B13780   1.451   2.929   9.753  0.5042  0.3122  0.7751
  102CHL1    C213781   1.463   3.052   9.920  0.4803 -0.7817 -0.8890
  102CHL1   H2A13782   1.399   2.984   9.979  0.5285  1.3734  1.8426
  102CHL1   H2B13783   1.429   3.153   9.952  1.1746 -0.4470 -1.1770
  102CHL1   C2013784   1.418   3.111   8.974 -0.4384 -0.1290 -0.3847
  102CHL1   H2013785   1.431   3.221   8.963 -0.1664 -0.0535  0.5926
  102CHL1   C2113786   1.269   3.081   8.989 -0.6656 -0.4502  0.2960
  102CHL1  H21A13787   1.221   3.123   8.898  4.3735  1.1991 -1.9616
  102CHL1  H21B13788   1.214   3.126   9.074  1.6938  0.0243  1.6550
  102CHL1  H21C13789   1.255   2.971   8.990 -1.0803 -0.3976  0.9959
  102CHL1   C2213790   1.472   3.045   8.846  0.2094 -0.6575  0.4944
  102CHL1  H22A13791   1.569   3.094   8.823  0.5283 -1.0140  1.0602
  102CHL1  H22B13792   1.498   2.938   8.863  1.0130 -0.4898  0.3683
  102CHL1   C2313793   1.382   3.051   8.724  0.2648  0.2952  0.1817
  102CHL1  H23A13794   1.296   2.984   8.744  0.0944  0.5248  0.2290
  102CHL1  H23B13795   1.345   3.154   8.704  3.7167  1.4842 -0.8311
  102CHL1   C2413796   1.440   2.980   8.603  0.3397 -0.3207 -0.2991
  102CHL1  H24A13797   1.462   2.871   8.615  2.1007 -0.2908 -2.6453
  102CHL1  H24B13798   1.354   2.990   8.533 -0.6449  0.5778  1.0013
  102CHL1   C2513799   1.559   3.055   8.543 -0.5269  0.6759  0.0382
  102CHL1   H2513800   1.642   3.050   8.616 -0.8374  2.2155  0.5285
  102CHL1   C2613801   1.596   3.005   8.403  0.0734  0.1155 -0.3361
  102CHL1  H26A13802   1.534   3.055   8.325 -2.4910  0.2256  1.6573
  102CHL1  H26B13803   1.698   3.039   8.374 -0.3581 -0.0677 -2.2156
  102CHL1  H26C13804   1.585   2.896   8.387  2.6225  0.0665 -2.4092
  102CHL1   C2713805   1.528   3.211   8.523  0.2392 -0.3056 -0.2442
  102CHL1  H27A13806   1.601   3.261   8.456  0.4329  1.4256  1.1769
  102CHL1  H27B13807   1.425   3.219   8.481  0.7672  0.1811 -1.4984
  102CHL1  H27C13808   1.536   3.252   8.626 -2.7234  1.2410 -0.5229
  103CHL1    C313809   0.861   2.262   9.238  0.5830 -0.6345 -0.1930
  103CHL1    H313810   0.961   2.292   9.201  0.4692  0.1899  0.1428
  103CHL1    O313811   0.872   2.200   9.363  0.0697  0.0481 -0.0965
  103CHL1   H3'13812   0.787   2.156   9.375  0.5131 -1.5668 -2.2188
  103CHL1    C413813   0.771   2.390   9.258 -0.3559  0.2105 -0.2027
  103CHL1   H4A13814   0.680   2.347   9.306  0.2640 -1.4349 -0.4453
  103CHL1   H4B13815   0.822   2.450   9.336 -1.3418 -0.2579  0.8427
  103CHL1    C513816   0.746   2.467   9.130 -0.4487 -0.3779  0.2294
  103CHL1    C613817   0.781   2.599   9.116 -0.5059  0.5329 -0.8838
  103CHL1    H613818   0.831   2.651   9.199 -0.8277  0.7214 -0.8054
  103CHL1    C713819   0.751   2.676   8.989  0.4726 -0.2048 -0.1659
  103CHL1   H7A13820   0.705   2.770   9.026 -3.5492 -1.9836 -0.1461
  103CHL1   H7B13821   0.848   2.693   8.938 -0.0091 -0.4055 -1.1729
  103CHL1    C813822   0.659   2.600   8.894 -0.1812 -0.2036  0.4523
  103CHL1    H813823   0.554   2.603   8.931 -1.2893 -0.0104 -2.4053
  103CHL1   C1413824   0.652   2.671   8.756  0.1388  0.0375 -0.3998
  103CHL1   H1413825   0.757   2.655   8.723  0.6897 -0.9320  1.6552
  103CHL1   C1513826   0.634   2.825   8.755  0.7670  0.2996  0.1630
  103CHL1  H15A13827   0.565   2.862   8.833 -0.2226 -0.9239 -0.1129
  103CHL1  H15B13828   0.732   2.868   8.785  1.2383 -0.2145 -0.5915
  103CHL1   C1613829   0.582   2.849   8.614 -1.0144  0.0633 -0.0750
  103CHL1  H16A13830   0.493   2.914   8.603 -0.1267  1.1344 -1.2400
  103CHL1  H16B13831   0.659   2.905   8.558  0.2075 -3.2364 -1.9854
  103CHL1   C1713832   0.565   2.717   8.545 -0.3964  0.7604  0.2345
  103CHL1   H1713833   0.659   2.691   8.492 -0.8575  1.0010 -0.7176
  103CHL1   C1313834   0.558   2.603   8.656 -0.3914 -0.3894 -0.3659
  103CHL1   C1813835   0.407   2.612   8.710  0.3468 -0.5067 -0.3007
  103CHL1  H18A13836   0.339   2.560   8.639 -0.8955  1.0742 -0.3274
  103CHL1  H18B13837   0.404   2.557   8.807 -0.1092  1.1300  0.6553
  103CHL1  H18C13838   0.385   2.719   8.728  3.3160  0.1725 -0.1524
  103CHL1   C1213839   0.613   2.459   8.627  0.3885 -0.7249 -0.2556
  103CHL1  H12A13840   0.545   2.412   8.553 -0.0209 -0.2598 -0.1763
  103CHL1  H12B13841   0.718   2.467   8.592  0.6066 -2.6030 -0.1324
  103CHL1   C1113842   0.620   2.380   8.758 -0.0640 -0.0028  0.2911
  103CHL1  H11A13843   0.520   2.351   8.798 -0.1973 -0.2022 -0.1856
  103CHL1  H11B13844   0.678   2.288   8.733  2.7931  1.5040  0.9308
  103CHL1    C913845   0.698   2.453   8.878  0.2305 -0.5780 -0.4415
  103CHL1    H913846   0.803   2.458   8.841  0.1931  1.5957 -0.3908
  103CHL1   C1013847   0.686   2.378   9.017 -0.8155  0.1773  0.6167
  103CHL1   C1913848   0.540   2.358   9.053 -0.4512  0.4151 -0.4649
  103CHL1  H19A13849   0.487   2.291   8.982  1.7611 -2.5437  0.4611
  103CHL1  H19B13850   0.532   2.316   9.155  0.3678  1.3831  0.0179
  103CHL1  H19C13851   0.474   2.447   9.063 -0.4877  0.4497 -0.9927
  103CHL1    C113852   0.769   2.242   9.007  0.2561 -0.0005 -0.0991
  103CHL1   H1A13853   0.716   2.179   8.932 -2.4764  3.0794 -1.0242
  103CHL1   H1B13854   0.871   2.271   8.973  0.5102 -2.1397 -1.3770
  103CHL1    C213855   0.791   2.163   9.137  0.0993 -0.8311 -0.3658
  103CHL1   H2A13856   0.846   2.067   9.129 -0.3290 -1.1325  0.2338
  103CHL1   H2B13857   0.691   2.133   9.174 -0.2707  2.6204  1.9213
  103CHL1   C2013858   0.461   2.722   8.431  0.7099  0.1314  0.4009
  103CHL1   H2013859   0.357   2.726   8.470  0.7822 -0.7807  0.7227
  103CHL1   C2113860   0.472   2.590   8.344  0.5064 -0.3709  0.4323
  103CHL1  H21A13861   0.432   2.499   8.393 -1.5770 -0.9978 -2.1924
  103CHL1  H21B13862   0.578   2.568   8.321  0.3419 -0.4566 -0.2586
  103CHL1  H21C13863   0.419   2.612   8.249 -1.6834 -1.6789  1.2867
  103CHL1   C2213864   0.467   2.850   8.341  0.3112 -0.4702 -0.3336
  103CHL1  H22A13865   0.374   2.842   8.280 -0.5414  0.4225  0.8158
  103CHL1  H22B13866   0.454   2.944   8.398  0.5160 -1.3114  1.1327
  103CHL1   C2313867   0.583   2.878   8.249  0.2199 -0.4080  0.6503
  103CHL1  H23A13868   0.673   2.912   8.305  1.7995 -0.2160 -1.8297
  103CHL1  H23B13869   0.614   2.781   8.203  1.5883  0.8465 -1.2240
  103CHL1   C2413870   0.542   2.980   8.141  0.4307  0.0437  0.0407
  103CHL1  H24A13871   0.472   2.937   8.066  1.1236 -0.0555 -0.5715
  103CHL1  H24B13872   0.492   3.067   8.188 -0.5781 -0.1551 -0.6379
  103CHL1   C2513873   0.670   3.035   8.073  0.6319 -0.3318  0.1172
  103CHL1   H2513874   0.729   2.950   8.031 -1.8508 -1.3767 -1.5231
  103CHL1   C2613875   0.632   3.108   7.939  0.0834 -0.5686 -0.0819
  103CHL1  H26A13876   0.725   3.125   7.881  0.7268 -0.1041  1.0592
  103CHL1  H26B13877   0.572   3.042   7.872 -2.3696  1.3600  0.0916
  103CHL1  H26C13878   0.580   3.205   7.955  0.1101 -0.4195 -0.8578
  103CHL1   C2713879   0.756   3.123   8.167 -0.4084 -0.0785  0.7088
  103CHL1  H27A13880   0.780   3.078   8.265  2.4313 -0.8122 -0.2432
  103CHL1  H27B13881   0.847   3.159   8.114 -1.2339  1.5635  0.3288
  103CHL1  H27C13882   0.691   3.213   8.180 -1.7162 -0.2153 -3.4224
  104CHL1    C313883   4.780   2.686  10.062  0.5418  0.7924 -0.2832
  104CHL1    H313884   4.675   2.717  10.043 -0.0156 -0.8760 -0.1385
  104CHL1    O313885   4.817   2.702  10.201  0.4937  0.1456 -0.5929
  104CHL1   H3'13886   4.809   2.615  10.241  0.1525  0.6486  0.4997
  104CHL1    C413887   4.795   2.536  10.035 -0.5271  1.0877  0.4349
  104CHL1   H4A13888   4.900   2.503  10.045 -0.1821  2.4066  1.4079
  104CHL1   H4B13889   4.737   2.469  10.103  0.3601 -1.2706 -1.0065
  104CHL1    C513890   4.765   2.520   9.889 -0.9706  0.2304  0.8410
  104CHL1    C613891   4.666   2.435   9.850 -0.1756  0.0302 -0.1803
  104CHL1    H613892   4.606   2.384   9.927  0.5011 -2.3899 -1.1493
  104CHL1    C713893   4.607   2.412   9.715 -0.3800  0.1994  0.4112
  104CHL1   H7A13894   4.581   2.306   9.697 -1.4742  0.7928 -1.9600
  104CHL1   H7B13895   4.512   2.469   9.710  0.6055  1.8441 -3.0288
  104CHL1    C813896   4.708   2.458   9.610 -0.1452  0.1427 -0.1237
  104CHL1    H813897   4.792   2.386   9.603  0.7656  1.2233 -0.6479
  104CHL1   C1413898   4.636   2.473   9.473  0.7606  0.1909  0.4769
  104CHL1   H1413899   4.558   2.550   9.491  0.7367 -0.0349  1.3734
  104CHL1   C1513900   4.553   2.356   9.411  0.1493 -0.5471  0.0796
  104CHL1  H15A13901   4.605   2.259   9.424 -0.0443 -0.7693 -0.7547
  104CHL1  H15B13902   4.451   2.349   9.457 -0.3177  1.0195 -0.6486
  104CHL1   C1613903   4.533   2.385   9.265  0.1463 -0.4415  0.0455
  104CHL1  H16A13904   4.585   2.305   9.208  1.7351  1.5303 -1.3973
  104CHL1  H16B13905   4.428   2.406   9.232  0.5112  0.8534 -0.3515
  104CHL1   C1713906   4.619   2.514   9.242  0.3553  0.5082  0.4736
  104CHL1   H1713907   4.551   2.600   9.260  0.3846  0.8898 -1.0694
  104CHL1   C1313908   4.725   2.526   9.358  0.2094  0.0640  0.6800
  104CHL1   C1813909   4.840   2.424   9.328  0.0792  0.1023  0.7174
  104CHL1  H18A13910   4.902   2.408   9.418  1.2456 -4.1327 -0.5858
  104CHL1  H18B13911   4.799   2.330   9.284 -0.1986  0.3124  0.5255
  104CHL1  H18C13912   4.906   2.474   9.254  0.7614  0.2160  1.3988
  104CHL1   C1213913   4.771   2.668   9.398  0.2366  0.0769  0.4723
  104CHL1  H12A13914   4.841   2.719   9.328 -3.1997  1.7745 -2.0208
  104CHL1  H12B13915   4.685   2.737   9.410  1.9154  2.3687 -0.0154
  104CHL1   C1113916   4.850   2.664   9.533  0.5151 -0.4446  0.0612
  104CHL1  H11A13917   4.937   2.594   9.532  0.0508 -1.0227 -0.0425
  104CHL1  H11B13918   4.871   2.771   9.554 -0.7221 -0.0008 -0.8378
  104CHL1    C913919   4.762   2.600   9.646 -0.4015  0.0902  0.6093
  104CHL1    H913920   4.676   2.669   9.646 -0.0693  0.5148 -0.2699
  104CHL1   C1013921   4.837   2.610   9.779  0.0727  0.4327 -0.1262
  104CHL1   C1913922   4.994   2.562   9.777 -0.3171 -0.3847 -0.0473
  104CHL1  H19A13923   4.997   2.459   9.735 -1.7023 -0.6954  0.5481
  104CHL1  H19B13924   5.058   2.637   9.726 -1.6090  0.6975 -0.1482
  104CHL1  H19C13925   5.028   2.543   9.881 -0.4281 -3.0662 -0.4309
  104CHL1    C113926   4.843   2.760   9.831 -0.2749 -0.2738 -0.2798
  104CHL1   H1A13927   4.910   2.826   9.772 -0.7091 -0.2865 -0.8027
  104CHL1   H1B13928   4.745   2.810   9.812 -0.0067 -0.2766 -1.8627
  104CHL1    C213929   4.881   2.766   9.981 -0.1917  0.5832 -0.2041
  104CHL1   H2A13930   4.890   2.869  10.022  4.1063 -0.1562  1.2812
  104CHL1   H2B13931   4.984   2.725   9.992 -0.9252 -1.6863 -1.1559
  104CHL1   C2013932   4.672   2.505   9.095  0.2056  0.1188 -0.2909
  104CHL1   H2013933   4.735   2.414   9.086 -1.4065 -1.2504  1.1952
  104CHL1   C2113934   4.753   2.626   9.062  0.1198  0.0537  0.8548
  104CHL1  H21A13935   4.839   2.649   9.128  0.2438  2.3577  0.0106
  104CHL1  H21B13936   4.696   2.721   9.049  1.5660  0.7225 -1.0950
  104CHL1  H21C13937   4.807   2.612   8.966  0.6702 -2.2572  1.4435
  104CHL1   C2213938   4.561   2.479   8.980 -0.4739  1.5977  0.3173
  104CHL1  H22A13939   4.496   2.395   9.012  1.9131  0.4963  2.6461
  104CHL1  H22B13940   4.505   2.573   8.963  0.6125  2.1489 -0.3258
  104CHL1   C2313941   4.628   2.434   8.849 -0.0057  0.2972 -0.5275
  104CHL1  H23A13942   4.693   2.517   8.813 -0.0385  1.3977  1.7634
  104CHL1  H23B13943   4.689   2.342   8.859  0.5242  0.4921 -1.7297
  104CHL1   C2413944   4.531   2.417   8.732 -0.6104 -0.1083  0.1458
  104CHL1  H24A13945   4.465   2.334   8.763  0.7263 -0.8295  1.1698
  104CHL1  H24B13946   4.470   2.508   8.714  0.5903  0.5371 -0.7907
  104CHL1   C2513947   4.601   2.386   8.600 -0.6709  0.6200  0.0193
  104CHL1   H2513948   4.638   2.482   8.559  0.2988  0.9297  1.5376
  104CHL1   C2613949   4.727   2.293   8.593  0.4899 -0.1193 -0.5004
  104CHL1  H26A13950   4.799   2.325   8.671 -0.2574  0.8485 -0.1983
  104CHL1  H26B13951   4.690   2.193   8.623 -0.7686  0.3196 -0.5377
  104CHL1  H26C13952   4.774   2.286   8.492  0.1637  0.7202 -0.7189
  104CHL1   C2713953   4.502   2.323   8.503 -0.0979 -0.6527  0.1040
  104CHL1  H27A13954   4.451   2.234   8.545 -2.4821  1.5596  2.2588
  104CHL1  H27B13955   4.429   2.401   8.474  1.4956  0.7278 -0.3762
  104CHL1  H27C13956   4.555   2.293   8.409  0.4238 -0.2825  0.2776
  105CHL1    C313957   3.626   1.987   9.975  0.4660  0.0962 -0.8355
  105CHL1    H313958   3.660   2.077   9.921 -0.6249  2.2703  1.8391
  105CHL1    O313959   3.631   2.030  10.112 -0.0664 -0.6306 -0.1089
  105CHL1   H3'13960   3.603   1.953  10.163 -1.2020  0.9295  1.7394
  105CHL1    C413961   3.478   1.943   9.945 -0.3892 -0.1372 -0.2055
  105CHL1   H4A13962   3.460   1.862  10.020  0.5971 -1.5071 -1.3797
  105CHL1   H4B13963   3.410   2.030   9.954 -0.0713  0.1705 -0.7128
  105CHL1    C513964   3.475   1.869   9.807 -0.3215 -0.9839  1.0855
  105CHL1    C613965   3.388   1.918   9.718  0.1498  0.4390 -0.1662
  105CHL1    H613966   3.311   1.989   9.753 -0.2420 -0.8182  1.6808
  105CHL1    C713967   3.370   1.859   9.584  0.0593  0.4119  0.1451
  105CHL1   H7A13968   3.264   1.835   9.563  0.1403  0.1081  0.0783
  105CHL1   H7B13969   3.402   1.939   9.514  0.9070  1.9249  2.1446
  105CHL1    C813970   3.460   1.737   9.544  0.1983  0.4005  0.7883
  105CHL1    H813971   3.416   1.647   9.592  2.0268 -1.5309 -0.9942
  105CHL1   C1413972   3.483   1.714   9.395 -0.2808  0.0975 -0.2359
  105CHL1   H1413973   3.529   1.807   9.354 -0.2223 -0.3607 -1.2302
  105CHL1   C1513974   3.362   1.706   9.303 -0.2652  0.6131 -0.2947
  105CHL1  H15A13975   3.294   1.622   9.331  2.0327 -1.0923  0.4343
  105CHL1  H15B13976   3.302   1.800   9.300 -1.8114 -0.3499 -1.5589
  105CHL1   C1613977   3.424   1.671   9.170 -0.1881 -0.4487  0.1641
  105CHL1  H16A13978   3.356   1.604   9.114 -0.3740  0.0329 -0.1854
  105CHL1  H16B13979   3.444   1.757   9.103  1.7234 -0.7713  0.2539
  105CHL1   C1713980   3.571   1.612   9.191  0.4441 -0.2946 -0.5979
  105CHL1   H1713981   3.644   1.692   9.168 -0.3703  0.6691  0.0831
  105CHL1   C1313982   3.571   1.604   9.345 -0.2336  0.6447 -0.3180
  105CHL1   C1813983   3.509   1.471   9.401  0.3853 -0.2824  0.2125
  105CHL1  H18A13984   3.588   1.393   9.397 -1.4091 -2.1462 -0.8048
  105CHL1  H18B13985   3.473   1.480   9.505  0.5488  1.0849  0.1678
  105CHL1  H18C13986   3.427   1.423   9.343  1.6423 -0.3066 -1.6581
  105CHL1   C1213987   3.706   1.634   9.416 -0.2039  0.1350  0.5250
  105CHL1  H12A13988   3.773   1.547   9.398  0.1714  0.5950 -0.3334
  105CHL1  H12B13989   3.743   1.724   9.363 -0.4526 -1.4707 -2.6068
  105CHL1   C1113990   3.693   1.646   9.569 -0.0589  0.4537 -0.4904
  105CHL1  H11A13991   3.653   1.551   9.609 -1.4471  1.7453  1.3419
  105CHL1  H11B13992   3.798   1.655   9.604 -0.2957 -1.0100  0.6494
  105CHL1    C913993   3.595   1.758   9.615 -0.1845  0.2223  0.2810
  105CHL1    H913994   3.645   1.845   9.569  1.5965 -1.2271 -0.6902
  105CHL1   C1013995   3.585   1.778   9.768 -0.0967  0.0133 -0.4514
  105CHL1   C1913996   3.553   1.651   9.840 -0.6649  0.7781 -0.7829
  105CHL1  H19A13997   3.630   1.572   9.824 -0.2178  0.0262  3.6911
  105CHL1  H19B13998   3.553   1.654   9.951  3.4760 -0.2388 -0.5892
  105CHL1  H19C13999   3.458   1.603   9.807 -0.2154 -0.9454  0.2861
  105CHL1    C114000   3.727   1.820   9.814  0.3867 -1.1318 -1.0600
  105CHL1   H1A14001   3.808   1.744   9.802 -0.4780 -2.6729  1.9099
  105CHL1   H1B14002   3.753   1.910   9.755 -1.4241  1.2210  1.4710
  105CHL1    C214003   3.732   1.871   9.958 -0.1675 -0.6270 -0.1085
  105CHL1   H2A14004   3.828   1.921   9.983 -0.4759  0.3680 -0.8406
  105CHL1   H2B14005   3.708   1.801  10.041  1.7384  2.0784  2.9745
  105CHL1   C2014006   3.603   1.486   9.103  0.0264 -0.7439 -0.0065
  105CHL1   H2014007   3.527   1.410   9.131  0.2971 -1.0759 -0.1526
  105CHL1   C2114008   3.742   1.431   9.133 -0.4512 -0.1947  0.0992
  105CHL1  H21A14009   3.769   1.417   9.240 -0.6748  2.6198  0.5914
  105CHL1  H21B14010   3.823   1.499   9.100  1.0199 -1.5407  0.7934
  105CHL1  H21C14011   3.745   1.330   9.086 -0.1252 -0.1493  0.0217
  105CHL1   C2214012   3.590   1.520   8.949 -0.2984 -0.1116 -0.0421
  105CHL1  H22A14013   3.484   1.550   8.932 -0.2447  0.0858 -0.0257
  105CHL1  H22B14014   3.668   1.597   8.934  0.4761 -0.9435 -0.3897
  105CHL1   C2314015   3.617   1.396   8.857  0.0550 -0.2266  0.5308
  105CHL1  H23A14016   3.710   1.338   8.878 -0.5649 -1.2462  0.5039
  105CHL1  H23B14017   3.533   1.325   8.867  0.1925 -0.6866 -1.1668
  105CHL1   C2414018   3.623   1.449   8.710  0.1996 -0.0825  0.1834
  105CHL1  H24A14019   3.561   1.541   8.709  1.6895  0.9801  1.0820
  105CHL1  H24B14020   3.726   1.486   8.692 -0.5740  1.6570 -0.9524
  105CHL1   C2514021   3.592   1.351   8.591 -0.2491 -0.4409 -0.3568
  105CHL1   H2514022   3.492   1.305   8.603 -0.0490 -1.0976 -1.1320
  105CHL1   C2614023   3.612   1.438   8.462  0.4351  0.7712 -0.1067
  105CHL1  H26A14024   3.558   1.534   8.477  0.1271  0.4349  1.0848
  105CHL1  H26B14025   3.719   1.461   8.443  0.2597  1.1221 -0.6848
  105CHL1  H26C14026   3.561   1.377   8.384 -1.8162  1.8914  0.3967
  105CHL1   C2714027   3.691   1.235   8.584 -0.0496 -0.7057 -0.7622
  105CHL1  H27A14028   3.666   1.152   8.514  2.6788 -0.9455 -1.5938
  105CHL1  H27B14029   3.789   1.270   8.546  0.6087 -0.1822  1.3034
  105CHL1  H27C14030   3.711   1.201   8.688  0.4327  2.5413  0.3001
  106CHL1    C314031   0.362   1.149   9.720  0.2012 -0.2866 -0.4626
  106CHL1    H314032   0.468   1.147   9.686  0.4093  0.6614  0.0700
  106CHL1    O314033   0.361   1.114   9.860  0.6052 -0.1410 -0.1577
  106CHL1   H3'14034   0.269   1.112   9.888  0.6094  0.4634 -0.0899
  106CHL1    C414035   0.313   1.298   9.698  0.0683  0.0424 -0.0867
  106CHL1   H4A14036   0.231   1.319   9.770 -0.1740 -0.0036 -0.3529
  106CHL1   H4B14037   0.396   1.363   9.736 -0.2854 -0.2323  1.1934
  106CHL1    C514038   0.270   1.339   9.559  0.1413  0.1557 -0.5475
  106CHL1    C614039   0.315   1.451   9.503  0.3445  0.2882 -0.6184
  106CHL1    H614040   0.383   1.521   9.552 -0.1203  1.3653 -1.4818
  106CHL1    C714041   0.273   1.501   9.374  0.6135  0.5735  0.1755
  106CHL1   H7A14042   0.261   1.611   9.377 -1.1491  0.5539 -2.5909
  106CHL1   H7B14043   0.346   1.475   9.294  2.2120 -1.3111  2.0767
  106CHL1    C814044   0.145   1.433   9.318 -0.7248  1.0684 -0.5321
  106CHL1    H814045   0.055   1.472   9.371 -0.8672 -0.8022  0.7032
  106CHL1   C1414046   0.131   1.476   9.176 -0.3194  0.1019  0.8937
  106CHL1   H1414047   0.226   1.444   9.127 -0.4233  0.8321  0.2035
  106CHL1   C1514048   0.116   1.627   9.141  0.0210  0.0574  0.4899
  106CHL1  H15A14049   0.026   1.664   9.194 -1.5445 -0.0265 -1.9583
  106CHL1  H15B14050   0.206   1.691   9.156 -0.5355  1.0048 -0.1074
  106CHL1   C1614051   0.062   1.628   8.994  0.3382  0.6532  0.1900
  106CHL1  H16A14052  -0.038   1.676   8.994  0.1929  0.3620 -0.7677
  106CHL1  H16B14053   0.125   1.691   8.927 -0.7169 -0.1994 -1.6718
  106CHL1   C1714054   0.042   1.474   8.960  0.7036 -0.3370 -0.0023
  106CHL1   H1714055   0.141   1.438   8.924  0.2758  0.1211 -1.7192
  106CHL1   C1314056   0.021   1.405   9.096 -0.2338  0.1168 -0.5740
  106CHL1   C1814057  -0.120   1.445   9.147 -0.3868 -0.3105 -0.3537
  106CHL1  H18A14058  -0.143   1.553   9.138  0.9091  0.0388  0.1680
  106CHL1  H18B14059  -0.202   1.382   9.108 -2.0672  0.3821  1.8226
  106CHL1  H18C14060  -0.125   1.435   9.258 -1.9946 -0.4955 -0.4236
  106CHL1   C1214061   0.040   1.256   9.106 -0.0016 -0.6780  0.0147
  106CHL1  H12A14062  -0.049   1.199   9.071  0.8646 -1.2546 -1.2789
  106CHL1  H12B14063   0.135   1.232   9.055  1.3400 -2.3865  3.0699
  106CHL1   C1114064   0.047   1.207   9.253  0.0013 -0.3972 -0.1233
  106CHL1  H11A14065  -0.055   1.230   9.292  0.3817 -1.0170  1.3052
  106CHL1  H11B14066   0.067   1.099   9.263  0.1479 -0.2400  1.6607
  106CHL1    C914067   0.161   1.285   9.336  0.6164  0.6400 -0.3179
  106CHL1    H914068   0.253   1.244   9.288  1.3362  1.3892  0.3998
  106CHL1   C1014069   0.182   1.243   9.485 -0.3041 -0.2584 -0.2545
  106CHL1   C1914070   0.043   1.239   9.556 -0.4429 -0.1770 -0.1479
  106CHL1  H19A14071   0.013   1.346   9.551  0.9293  0.2462  0.1969
  106CHL1  H19B14072  -0.027   1.175   9.498 -0.3451  1.6131 -2.4108
  106CHL1  H19C14073   0.059   1.208   9.661  0.0977  2.7874  0.7217
  106CHL1    C114074   0.255   1.107   9.488  0.4093 -0.2108 -0.1879
  106CHL1   H1A14075   0.193   1.028   9.441 -0.8162 -0.3760  1.5741
  106CHL1   H1B14076   0.351   1.116   9.433  0.9714  1.5775  1.0047
  106CHL1    C214077   0.280   1.050   9.631  0.0615 -0.8798  0.4579
  106CHL1   H2A14078   0.332   0.954   9.615  0.5664 -0.3556 -1.3152
  106CHL1   H2B14079   0.192   1.006   9.684  0.8563 -1.2382  1.5023
  106CHL1   C2014080  -0.058   1.456   8.843  0.1105  0.0362  0.1701
  106CHL1   H2014081  -0.159   1.475   8.885 -0.1246  0.0434 -0.3865
  106CHL1   C2114082  -0.051   1.309   8.785  0.5096 -0.4683  0.1616
  106CHL1  H21A14083  -0.065   1.234   8.866 -1.1009 -2.3581 -1.7668
  106CHL1  H21B14084   0.050   1.289   8.743  0.0972 -0.0557 -1.0751
  106CHL1  H21C14085  -0.124   1.285   8.706  0.9471 -5.1918  0.9343
  106CHL1   C2214086  -0.030   1.553   8.722 -0.2740 -0.2492  0.7368
  106CHL1  H22A14087  -0.105   1.530   8.643 -0.4416  2.3109  0.0455
  106CHL1  H22B14088  -0.062   1.651   8.764 -0.0237 -0.2558  0.9471
  106CHL1   C2314089   0.105   1.549   8.656 -0.2336  0.2216  0.2319
  106CHL1  H23A14090   0.185   1.557   8.733 -1.2785  1.1142  1.2832
  106CHL1  H23B14091   0.115   1.446   8.617 -0.2700 -1.2653  3.7848
  106CHL1   C2414092   0.131   1.669   8.566  0.6771 -0.4072  0.1678
  106CHL1  H24A14093   0.055   1.686   8.486 -1.9212  1.3903  2.8071
  106CHL1  H24B14094   0.142   1.762   8.625 -1.7753  0.4818 -0.6544
  106CHL1   C2514095   0.262   1.664   8.498  0.6129 -0.5493  0.9223
  106CHL1   H2514096   0.327   1.621   8.578 -0.1402  2.1772  3.1729
  106CHL1   C2614097   0.259   1.581   8.372  0.2310  0.1635  0.2556
  106CHL1  H26A14098   0.182   1.617   8.300 -0.3027 -1.3852  0.0273
  106CHL1  H26B14099   0.353   1.590   8.312  0.6366 -0.0568  0.8548
  106CHL1  H26C14100   0.241   1.477   8.406 -0.5332  1.3585  3.8871
  106CHL1   C2714101   0.306   1.806   8.469 -0.3650  0.3327 -0.0794
  106CHL1  H27A14102   0.227   1.854   8.408 -0.2650  0.0713 -0.4210
  106CHL1  H27B14103   0.319   1.876   8.554  2.6696 -0.1433 -0.0363
  106CHL1  H27C14104   0.404   1.804   8.417  0.6536 -2.2160  1.7366
  107CHL1    C314105   1.924   4.884   9.822  0.1662  0.3375  0.1295
  107CHL1    H314106   1.973   4.785   9.805  2.3040  0.9634  2.1005
  107CHL1    O314107   1.897   4.906   9.959 -0.0773 -0.1310 -0.3758
  107CHL1   H3'14108   1.878   4.820   9.996  0.3947 -1.2562 -2.5713
  107CHL1    C414109   2.018   4.998   9.769 -0.1243 -0.1658  0.2415
  107CHL1   H4A14110   1.980   5.095   9.806  1.9659  0.3232  1.2519
  107CHL1   H4B14111   2.117   4.993   9.819 -0.9797 -0.9567  1.9491
  107CHL1    C514112   2.030   5.000   9.611  0.4178  0.1866  0.4505
  107CHL1    C614113   2.149   4.996   9.548  0.0194  0.5318  0.0389
  107CHL1    H614114   2.240   5.003   9.610 -0.7990 -0.1482  1.3720
  107CHL1    C714115   2.167   5.013   9.401  0.2337 -0.2897  0.5320
  107CHL1   H7A14116   2.250   5.086   9.394 -0.2088  0.2395  0.8098
  107CHL1   H7B14117   2.210   4.918   9.361 -0.6193 -0.7683  0.7338
  107CHL1    C814118   2.035   5.053   9.333 -0.0591 -0.0398 -0.0432
  107CHL1    H814119   2.022   5.162   9.353  1.6803  0.3245 -0.7583
  107CHL1   C1414120   2.044   5.023   9.183  0.3073 -0.0722 -0.4324
  107CHL1   H1414121   2.063   4.914   9.177 -0.1409 -0.1815  0.0539
  107CHL1   C1514122   2.155   5.086   9.109 -0.3583 -0.1937  0.3410
  107CHL1  H15A14123   2.174   5.195   9.118 -4.9981  0.7281  1.6663
  107CHL1  H15B14124   2.251   5.036   9.134 -0.1925  1.2820  3.1264
  107CHL1   C1614125   2.116   5.065   8.954  0.1170 -0.6914 -0.2130
  107CHL1  H16A14126   2.113   5.163   8.901 -0.2813  0.7032  2.2355
  107CHL1  H16B14127   2.185   4.989   8.911  1.6749  0.5904 -0.1045
  107CHL1   C1714128   1.971   5.008   8.968  0.7569  0.2653  0.3507
  107CHL1   H1714129   1.981   4.897   8.968 -0.6755  0.1045  1.8037
  107CHL1   C1314130   1.921   5.052   9.105 -0.2824 -0.3486 -0.3908
  107CHL1   C1814131   1.877   5.203   9.100  1.2496 -0.1859  0.3781
  107CHL1  H18A14132   1.948   5.275   9.054 -1.7630  0.7309 -3.4348
  107CHL1  H18B14133   1.779   5.209   9.047  1.6213  0.3886 -0.2674
  107CHL1  H18C14134   1.849   5.246   9.198 -1.7998 -1.1295  0.0351
  107CHL1   C1214135   1.812   4.963   9.165 -0.6165 -0.1941  0.1001
  107CHL1  H12A14136   1.721   4.996   9.111 -0.5720  1.6593  1.0756
  107CHL1  H12B14137   1.844   4.858   9.151 -0.5589 -0.0234 -1.1764
  107CHL1   C1114138   1.788   5.006   9.306  0.0603  0.3897  0.3465
  107CHL1  H11A14139   1.757   5.112   9.321 -1.8163 -0.3150  1.8294
  107CHL1  H11B14140   1.708   4.950   9.359  3.4606 -3.1425  2.2784
  107CHL1    C914141   1.918   4.977   9.396  0.0288  0.1534  0.7690
  107CHL1    H914142   1.934   4.867   9.389  1.6071  0.3213  1.3437
  107CHL1   C1014143   1.892   4.996   9.545 -0.4308  0.4564  0.1296
  107CHL1   C1914144   1.824   5.139   9.571  0.3192  0.4845  0.0379
  107CHL1  H19A14145   1.720   5.124   9.535 -0.3096 -0.5308  2.1405
  107CHL1  H19B14146   1.813   5.153   9.680 -0.4916 -0.2411  0.0590
  107CHL1  H19C14147   1.867   5.226   9.517  2.2444 -0.1021  0.5465
  107CHL1    C114148   1.805   4.874   9.596 -0.0835 -0.0249 -0.8394
  107CHL1   H1A14149   1.702   4.879   9.554 -0.1105  1.5191 -0.6370
  107CHL1   H1B14150   1.859   4.781   9.566 -0.2620 -0.1138 -0.8841
  107CHL1    C214151   1.787   4.883   9.747 -0.1142 -0.9182  0.0439
  107CHL1   H2A14152   1.722   4.798   9.777 -1.2984 -0.6360 -1.5894
  107CHL1   H2B14153   1.725   4.972   9.769  2.0041  0.3533  1.1860
  107CHL1   C2014154   1.885   5.035   8.842  0.2603  0.3225  0.6623
  107CHL1   H2014155   1.778   5.029   8.871  0.4850  2.5353  2.2191
  107CHL1   C2114156   1.911   4.914   8.748  0.5804 -0.3711  0.1725
  107CHL1  H21A14157   1.860   4.941   8.653 -1.9968  1.1015  1.8672
  107CHL1  H21B14158   1.869   4.822   8.793 -0.7177 -0.1585 -0.5371
  107CHL1  H21C14159   2.020   4.907   8.727  0.3730 -0.3352 -0.9977
  107CHL1   C2214160   1.898   5.173   8.774  0.8425  0.5830 -0.4152
  107CHL1  H22A14161   1.902   5.252   8.852 -0.1813 -1.1242  1.4537
  107CHL1  H22B14162   1.980   5.160   8.700 -2.0147 -3.0962 -3.3216
  107CHL1   C2314163   1.777   5.207   8.680  0.1885  1.3621 -0.8688
  107CHL1  H23A14164   1.767   5.131   8.600 -2.2894  0.7027 -0.0183
  107CHL1  H23B14165   1.681   5.218   8.735 -0.1177 -0.9891 -0.8451
  107CHL1   C2414166   1.806   5.333   8.591 -0.0748  0.5061 -0.0611
  107CHL1  H24A14167   1.803   5.424   8.655  0.2319  0.4805 -0.0080
  107CHL1  H24B14168   1.909   5.334   8.550 -0.5317  1.9613 -1.2513
  107CHL1   C2514169   1.713   5.334   8.464  0.0822 -0.0521 -0.0481
  107CHL1   H2514170   1.613   5.295   8.492  0.1075  0.3197  0.5800
  107CHL1   C2614171   1.697   5.483   8.415  0.6785 -0.5697 -0.0093
  107CHL1  H26A14172   1.796   5.533   8.412  0.3123  0.2631  1.1266
  107CHL1  H26B14173   1.645   5.485   8.316 -0.6822 -2.3181  0.6140
  107CHL1  H26C14174   1.633   5.549   8.477  0.8656 -1.1594  0.8232
  107CHL1   C2714175   1.763   5.246   8.347 -0.0474 -0.5644 -0.3001
  107CHL1  H27A14176   1.865   5.279   8.316 -0.2168 -1.2395 -1.6419
  107CHL1  H27B14177   1.790   5.144   8.382 -2.2271 -0.6535  1.3374
  107CHL1  H27C14178   1.683   5.237   8.271  0.5389 -3.5899 -0.6560
  108CHL1    C314179   2.250   0.471   9.983  0.1108 -0.7642  0.2463
  108CHL1    H314180   2.286   0.369   9.956  0.5842 -0.4267 -0.4161
  108CHL1    O314181   2.250   0.482  10.126  0.3811  0.7821  0.6622
  108CHL1   H3'14182   2.223   0.572  10.145  0.5640  0.4347  2.8932
  108CHL1    C414183   2.345   0.580   9.927  0.3669  0.2065 -0.0112
  108CHL1   H4A14184   2.331   0.672   9.988 -0.3579  1.4690 -1.9882
  108CHL1   H4B14185   2.451   0.551   9.942  0.4113  0.9816  1.2809
  108CHL1    C514186   2.326   0.625   9.786 -0.0980 -0.4200 -0.4884
  108CHL1    C614187   2.430   0.655   9.709 -0.7296  0.5629 -0.4960
  108CHL1    H614188   2.532   0.632   9.743 -0.5858  0.6167 -0.8863
  108CHL1    C714189   2.408   0.722   9.573  0.8826  0.0105 -0.0463
  108CHL1   H7A14190   2.466   0.816   9.568  2.3315 -0.8050  0.5671
  108CHL1   H7B14191   2.450   0.657   9.494 -0.0094 -2.1437  1.1417
  108CHL1    C814192   2.258   0.756   9.539  0.8557 -0.0114  0.0730
  108CHL1    H814193   2.240   0.849   9.597  0.9666 -1.1715  2.0861
  108CHL1   C1414194   2.249   0.778   9.387  0.2439  0.4157 -0.2342
  108CHL1   H1414195   2.271   0.687   9.326 -0.4771 -0.1485  0.3324
  108CHL1   C1514196   2.341   0.890   9.333  0.3019  0.2807  0.3680
  108CHL1  H15A14197   2.341   0.977   9.403  1.7164  0.2119  0.4982
  108CHL1  H15B14198   2.441   0.847   9.309 -0.2102  0.0948 -1.5809
  108CHL1   C1614199   2.268   0.936   9.207  0.3408 -0.2606  0.4483
  108CHL1  H16A14200   2.247   1.044   9.200  0.1787 -0.3474 -0.5542
  108CHL1  H16B14201   2.334   0.922   9.118 -0.7344  1.1888 -0.6189
  108CHL1   C1714202   2.134   0.856   9.198  0.4576  0.4689 -0.0600
  108CHL1   H1714203   2.160   0.764   9.142 -1.5494 -1.3503  1.8080
  108CHL1   C1314204   2.102   0.810   9.340 -0.2438  0.4542 -0.3146
  108CHL1   C1814205   2.045   0.935   9.410 -0.4164  0.4555 -0.5467
  108CHL1  H18A14206   1.945   0.953   9.366  0.0625  3.1777 -0.6998
  108CHL1  H18B14207   2.021   0.921   9.517 -0.7206  1.2579 -0.5011
  108CHL1  H18C14208   2.122   1.016   9.406  2.2725 -1.8542  0.5009
  108CHL1   C1214209   2.021   0.676   9.362 -0.5818  0.0551  0.3366
  108CHL1  H12A14210   1.914   0.684   9.335 -0.1685  1.8433 -0.9835
  108CHL1  H12B14211   2.069   0.608   9.289  0.8964  1.7194 -0.3236
  108CHL1   C1114212   2.028   0.630   9.511 -0.4286 -0.8209  0.5071
  108CHL1  H11A14213   1.960   0.701   9.563  0.7379 -0.6604  1.8552
  108CHL1  H11B14214   1.987   0.528   9.521  1.4828 -1.8051 -0.9286
  108CHL1    C914215   2.171   0.639   9.585  0.2980 -0.5168  0.8211
  108CHL1    H914216   2.210   0.546   9.539 -0.4695 -0.2885 -0.3405
  108CHL1   C1014217   2.178   0.635   9.734  0.1917  0.0591  0.3952
  108CHL1   C1914218   2.114   0.765   9.788  0.2638 -0.3279 -0.1602
  108CHL1  H19A14219   2.023   0.792   9.731  0.0364  0.0879  0.3954
  108CHL1  H19B14220   2.076   0.758   9.892 -0.5451  0.3304 -0.4057
  108CHL1  H19C14221   2.180   0.854   9.791  2.8847 -2.1479  0.2166
  108CHL1    C114222   2.104   0.506   9.782  0.4907  0.2984 -0.3755
  108CHL1   H1A14223   1.998   0.511   9.749  1.0887  0.6540 -2.3990
  108CHL1   H1B14224   2.149   0.417   9.734 -0.9226 -1.4520  1.3878
  108CHL1    C214225   2.104   0.488   9.934  0.3518  0.2961  0.8429
  108CHL1   H2A14226   2.042   0.399   9.958  1.4334 -0.0585  2.4401
  108CHL1   H2B14227   2.065   0.579   9.985 -0.6705  1.9907 -2.6378
  108CHL1   C2014228   2.024   0.933   9.113  0.2077 -0.1010 -0.6692
  108CHL1   H2014229   1.983   1.013   9.179  2.3907  0.3784  0.1710
  108CHL1   C2114230   1.905   0.838   9.081 -0.0680  0.0888  0.0602
  108CHL1  H21A14231   1.823   0.886   9.023 -1.9859 -0.9773  1.7543
  108CHL1  H21B14232   1.857   0.804   9.175 -0.3391 -1.0077 -0.4534
  108CHL1  H21C14233   1.952   0.759   9.018  0.8608 -0.2125  1.1154
  108CHL1   C2214234   2.075   1.006   8.992  0.0772 -0.1462 -0.2023
  108CHL1  H22A14235   1.983   1.054   8.954  0.1090  0.3918  0.3681
  108CHL1  H22B14236   2.156   1.082   9.000  1.1931 -1.2375 -0.8552
  108CHL1   C2314237   2.132   0.908   8.881 -0.6378  1.2796 -0.4128
  108CHL1  H23A14238   2.208   0.838   8.922 -0.2872  1.2896 -1.0303
  108CHL1  H23B14239   2.042   0.852   8.846  1.0338 -2.0793  0.2440
  108CHL1   C2414240   2.201   0.982   8.760  0.4485  0.2548  0.2677
  108CHL1  H24A14241   2.129   1.051   8.709 -0.9738  1.7539  3.9720
  108CHL1  H24B14242   2.278   1.044   8.809 -0.6004  0.4173  1.7956
  108CHL1   C2514243   2.273   0.892   8.654  0.2429 -0.2574  0.2149
  108CHL1   H2514244   2.193   0.816   8.639  0.3597 -0.3859  0.2403
  108CHL1   C2614245   2.303   0.969   8.522 -0.3198 -0.3002  0.3818
  108CHL1  H26A14246   2.350   1.066   8.547  3.3601 -1.6100 -0.7975
  108CHL1  H26B14247   2.367   0.913   8.451 -0.3245  0.2403 -0.0481
  108CHL1  H26C14248   2.211   0.990   8.463  0.1000 -1.5864 -0.7721
  108CHL1   C2714249   2.399   0.828   8.705 -0.7689 -1.1062 -0.2602
  108CHL1  H27A14250   2.473   0.901   8.744 -0.2836 -1.1589 -1.0447
  108CHL1  H27B14251   2.374   0.762   8.790 -1.9656  1.6142  1.6251
  108CHL1  H27C14252   2.454   0.774   8.625 -1.1700  0.9865 -2.0470
  109CHL1    C314253   0.602   5.221   9.706  0.1828  0.2414 -0.5299
  109CHL1    H314254   0.511   5.158   9.713  2.3397 -2.9533  1.9754
  109CHL1    O314255   0.601   5.311   9.812 -0.1566 -0.1123  0.2172
  109CHL1   H3'14256   0.637   5.393   9.777 -1.8011  0.9745  0.9439
  109CHL1    C414257   0.711   5.118   9.712  0.2199 -0.1960  0.0238
  109CHL1   H4A14258   0.802   5.178   9.735 -0.8610  1.9415 -0.9338
  109CHL1   H4B14259   0.683   5.062   9.804  0.3027 -0.3660 -0.0546
  109CHL1    C514260   0.717   5.025   9.588  0.5456 -0.1469 -0.1114
  109CHL1    C614261   0.708   4.888   9.600 -0.3099  0.1264  0.5520
  109CHL1    H614262   0.678   4.852   9.699 -0.0530  0.2184  0.6660
  109CHL1    C714263   0.722   4.789   9.488 -0.0999  0.0242 -0.0420
  109CHL1   H7A14264   0.802   4.713   9.504  0.6877  0.8441 -0.0149
  109CHL1   H7B14265   0.626   4.739   9.465 -0.4076  1.3848 -2.0538
  109CHL1    C814266   0.770   4.868   9.363  0.5217 -0.5577  0.8085
  109CHL1    H814267   0.871   4.913   9.371  0.3109 -0.3277  2.5992
  109CHL1   C1414268   0.766   4.773   9.243 -0.4909  0.1338 -0.0427
  109CHL1   H1414269   0.660   4.738   9.244 -0.7037  0.7728 -0.1986
  109CHL1   C1514270   0.857   4.645   9.242  0.2322 -0.8420 -0.4764
  109CHL1  H15A14271   0.956   4.684   9.276  0.6778 -0.8872 -1.6526
  109CHL1  H15B14272   0.815   4.571   9.313  1.2719 -3.0625 -2.0651
  109CHL1   C1614273   0.867   4.601   9.100  0.2846 -0.6566  1.2118
  109CHL1  H16A14274   0.973   4.591   9.067  0.4822  1.1647  1.1701
  109CHL1  H16B14275   0.817   4.503   9.086 -0.4815 -0.2200  0.8015
  109CHL1   C1714276   0.795   4.716   9.021  0.4402  0.5816 -0.0345
  109CHL1   H1714277   0.690   4.682   9.033  1.0005 -1.5463 -0.6925
  109CHL1   C1314278   0.797   4.838   9.111  0.2262 -0.4116  0.2868
  109CHL1   C1814279   0.936   4.904   9.105  0.5330 -0.3027 -0.4502
  109CHL1  H18A14280   0.946   4.954   9.006 -1.9616  0.3714 -0.4254
  109CHL1  H18B14281   0.942   4.988   9.177 -0.0546 -1.0308  0.4684
  109CHL1  H18C14282   1.013   4.829   9.133 -0.0560  0.4539  3.8596
  109CHL1   C1214283   0.688   4.947   9.080  0.2588  0.9532  1.2815
  109CHL1  H12A14284   0.698   4.996   8.982 -2.0419 -1.5863 -0.3741
  109CHL1  H12B14285   0.589   4.897   9.074 -0.3814  2.3779 -1.3099
  109CHL1   C1114286   0.686   5.053   9.187 -0.5393 -0.0061 -0.2575
  109CHL1  H11A14287   0.782   5.108   9.187 -0.1524 -0.6327  1.1642
  109CHL1  H11B14288   0.602   5.123   9.165 -1.3000 -0.6352  0.5624
  109CHL1    C914289   0.686   4.992   9.336  0.0487 -0.0298  0.2988
  109CHL1    H914290   0.583   4.952   9.344  0.9119 -2.8659 -1.2004
  109CHL1   C1014291   0.712   5.100   9.451 -0.0782  0.1961 -0.1698
  109CHL1   C1914292   0.852   5.170   9.437 -0.6269  0.6956 -0.3937
  109CHL1  H19A14293   0.941   5.103   9.437  0.0928  1.5990 -1.8686
  109CHL1  H19B14294   0.862   5.238   9.349 -1.0724  0.9060 -0.2838
  109CHL1  H19C14295   0.868   5.235   9.525  0.6456 -0.6402  0.3974
  109CHL1    C114296   0.607   5.212   9.457  0.0346 -0.3930  0.2069
  109CHL1   H1A14297   0.622   5.281   9.371 -0.2453 -1.7437 -0.9534
  109CHL1   H1B14298   0.506   5.168   9.444  1.6114 -3.7798 -2.0242
  109CHL1    C214299   0.613   5.300   9.580  0.0352  0.4043 -0.5053
  109CHL1   H2A14300   0.523   5.364   9.575 -1.4775 -1.4335  1.3043
  109CHL1   H2B14301   0.709   5.356   9.580  0.3444  0.0893  2.9018
  109CHL1   C2014302   0.813   4.720   8.868 -0.1901  0.0381 -0.1835
  109CHL1   H2014303   0.759   4.806   8.821 -0.9516 -0.6574 -0.6107
  109CHL1   C2114304   0.748   4.587   8.808 -0.2438  0.4051  0.0382
  109CHL1  H21A14305   0.659   4.555   8.865  1.6990 -2.7790  1.5260
  109CHL1  H21B14306   0.819   4.502   8.804 -0.6220  0.1284 -1.5601
  109CHL1  H21C14307   0.709   4.600   8.704 -0.7979  0.2556  0.2243
  109CHL1   C2214308   0.965   4.718   8.821  0.8483  0.2151  0.0476
  109CHL1  H22A14309   1.010   4.802   8.878  0.2900 -0.0730  0.9359
  109CHL1  H22B14310   1.004   4.617   8.846 -0.7915 -0.4929 -0.0783
  109CHL1   C2314311   0.980   4.742   8.669  0.2478 -0.0583  0.4458
  109CHL1  H23A14312   0.941   4.658   8.609 -1.1766  0.4314  0.6548
  109CHL1  H23B14313   0.918   4.828   8.635 -1.3507 -1.5604 -0.5753
  109CHL1   C2414314   1.125   4.776   8.630  0.1174  0.7683  0.8479
  109CHL1  H24A14315   1.147   4.883   8.651 -0.1173  1.0529 -0.2638
  109CHL1  H24B14316   1.200   4.715   8.684 -0.0829 -0.5313 -0.2897
  109CHL1   C2514317   1.151   4.736   8.482 -0.3780 -0.4953  0.4378
  109CHL1   H2514318   1.255   4.769   8.460 -0.9169  0.9183 -0.0457
  109CHL1   C2614319   1.171   4.586   8.461 -0.4764  0.3650  0.0764
  109CHL1  H26A14320   1.203   4.561   8.358  0.9434 -0.2863  0.6547
  109CHL1  H26B14321   1.247   4.533   8.523 -0.5664 -3.4520 -2.7092
  109CHL1  H26C14322   1.078   4.529   8.483 -1.4918  0.7336 -2.8326
  109CHL1   C2714323   1.062   4.804   8.376 -0.3989  0.4942  0.6966
  109CHL1  H27A14324   1.069   4.737   8.287  1.5496 -0.9385  1.8588
  109CHL1  H27B14325   0.961   4.814   8.421 -0.5255  0.5546  0.4043
  109CHL1  H27C14326   1.110   4.899   8.346 -0.9471  1.2810  2.2261
  110CHL1    C314327   7.216   4.852   9.981  0.3192 -0.8037 -0.2758
  110CHL1    H314328   7.327   4.853   9.989  0.3057 -0.0421 -0.1404
  110CHL1    O314329   7.149   4.865  10.109 -0.0421  0.1813 -0.0796
  110CHL1   H3'14330   7.056   4.846  10.094  0.1244 -0.7420 -0.0033
  110CHL1    C414331   7.164   4.973   9.905 -0.3286 -0.2758  0.8318
  110CHL1   H4A14332   7.054   4.980   9.911 -0.1972  0.8881  2.4471
  110CHL1   H4B14333   7.185   5.073   9.948  1.0801  1.1228 -2.7228
  110CHL1    C514334   7.229   4.985   9.772 -0.5261 -0.2367  0.7074
  110CHL1    C614335   7.295   5.101   9.735 -0.3628 -0.0444  0.1910
  110CHL1    H614336   7.292   5.188   9.803  0.0650  0.3690 -0.3160
  110CHL1    C714337   7.360   5.112   9.598  0.5073 -0.8289 -0.7353
  110CHL1   H7A14338   7.344   5.214   9.555 -0.0232 -0.0225  1.2465
  110CHL1   H7B14339   7.467   5.090   9.618  0.4918  0.7856  1.5091
  110CHL1    C814340   7.304   5.002   9.497  0.2036 -0.3367 -0.0908
  110CHL1    H814341   7.199   5.018   9.464 -0.2571 -2.9946 -0.1524
  110CHL1   C1414342   7.389   5.005   9.379 -0.2319 -0.5945  0.1270
  110CHL1   H1414343   7.490   4.989   9.421 -0.5484  0.4360  1.3331
  110CHL1   C1514344   7.397   5.139   9.307  0.1700 -0.8650  0.1234
  110CHL1  H15A14345   7.297   5.187   9.299  1.0383  0.8283 -1.3357
  110CHL1  H15B14346   7.461   5.212   9.361  0.3848 -1.3468  0.5262
  110CHL1   C1614347   7.455   5.114   9.169 -0.4169 -0.4448  0.3031
  110CHL1  H16A14348   7.377   5.142   9.095  0.4732  1.4892  0.0381
  110CHL1  H16B14349   7.552   5.165   9.155  0.6914 -2.3519  0.7019
  110CHL1   C1714350   7.475   4.952   9.168 -0.7250 -0.1886  0.2383
  110CHL1   H1714351   7.575   4.935   9.212 -0.7333 -0.5729  0.1075
  110CHL1   C1314352   7.372   4.898   9.275  0.2883  0.6495 -0.1084
  110CHL1   C1814353   7.229   4.893   9.221  0.1186  0.5171  0.2446
  110CHL1  H18A14354   7.151   4.874   9.299  0.5163 -1.6974  0.1470
  110CHL1  H18B14355   7.212   4.992   9.173 -0.1497  0.0538 -0.6233
  110CHL1  H18C14356   7.214   4.813   9.145 -1.3279  0.8940  0.1036
  110CHL1   C1214357   7.401   4.765   9.338 -0.0245 -0.1901 -0.4000
  110CHL1  H12A14358   7.393   4.682   9.266  0.0220 -0.2190 -0.3710
  110CHL1  H12B14359   7.506   4.769   9.375 -0.3657  2.1937  0.5156
  110CHL1   C1114360   7.317   4.746   9.473 -0.5262 -0.2272  0.0852
  110CHL1  H11A14361   7.218   4.709   9.439 -0.9493  1.3374 -0.4508
  110CHL1  H11B14362   7.354   4.661   9.535 -0.7036 -1.4442 -1.3956
  110CHL1    C914363   7.318   4.869   9.568  0.2608  0.1623 -0.5749
  110CHL1    H914364   7.423   4.871   9.604  0.4412  1.0282 -1.1398
  110CHL1   C1014365   7.223   4.852   9.692 -0.6729 -0.6243  0.0081
  110CHL1   C1914366   7.074   4.846   9.646 -0.4222  0.0456 -0.3040
  110CHL1  H19A14367   7.053   4.751   9.592  0.5699 -0.3359 -0.0430
  110CHL1  H19B14368   6.999   4.852   9.728 -1.1165  0.4133 -0.9499
  110CHL1  H19C14369   7.051   4.935   9.583 -0.7364  2.2296  2.6948
  110CHL1    C114370   7.256   4.725   9.777  0.3813  0.6457 -0.3594
  110CHL1   H1A14371   7.226   4.637   9.716  0.8631  0.2078  0.0209
  110CHL1   H1B14372   7.365   4.719   9.797  0.9434 -1.4578 -3.3325
  110CHL1    C214373   7.174   4.723   9.912 -0.0646 -0.4557 -0.4903
  110CHL1   H2A14374   7.198   4.635   9.977  0.4029  1.0364  1.4449
  110CHL1   H2B14375   7.065   4.707   9.896 -0.0988 -1.7994  0.8562
  110CHL1   C2014376   7.476   4.902   9.022 -0.1038  0.8378  0.1140
  110CHL1   H2014377   7.374   4.915   8.981  0.7743  2.0252 -1.8289
  110CHL1   C2114378   7.492   4.749   9.016  0.2588 -0.5143 -0.2694
  110CHL1  H21A14379   7.572   4.717   9.086  0.6708 -1.9918 -1.3714
  110CHL1  H21B14380   7.513   4.706   8.916 -0.5722  2.6977 -1.9859
  110CHL1  H21C14381   7.394   4.709   9.050  0.1193  0.4838  0.5573
  110CHL1   C2214382   7.580   4.979   8.928  0.0562  0.2674  0.3936
  110CHL1  H22A14383   7.554   5.087   8.930  2.1214  0.7931  0.7626
  110CHL1  H22B14384   7.685   4.968   8.964  0.5158 -0.5755 -1.1136
  110CHL1   C2314385   7.572   4.930   8.781 -0.0746 -0.5744 -0.2557
  110CHL1  H23A14386   7.585   4.820   8.771 -1.5583 -0.6071 -2.4506
  110CHL1  H23B14387   7.465   4.944   8.754  0.5210  0.8968 -2.0139
  110CHL1   C2414388   7.669   4.993   8.686  0.1707 -0.0910  0.3154
  110CHL1  H24A14389   7.700   5.096   8.716  3.4091 -1.6275  2.8134
  110CHL1  H24B14390   7.761   4.937   8.711  0.3099  1.2535  3.1727
  110CHL1   C2514391   7.640   4.981   8.536 -0.4602  0.1892 -0.5077
  110CHL1   H2514392   7.547   5.036   8.511 -1.2251 -0.8664 -0.0665
  110CHL1   C2614393   7.758   5.038   8.456  0.1210 -0.1435 -0.2576
  110CHL1  H26A14394   7.773   5.144   8.487 -3.9530  0.1763  1.2289
  110CHL1  H26B14395   7.847   4.973   8.472  0.0266 -0.4661 -0.9873
  110CHL1  H26C14396   7.743   5.039   8.346  3.5382 -0.2874 -0.8134
  110CHL1   C2714397   7.621   4.834   8.491 -0.4143 -0.3235 -0.0370
  110CHL1  H27A14398   7.521   4.798   8.524 -1.7522  0.1804 -3.1670
  110CHL1  H27B14399   7.628   4.814   8.382  4.3247 -1.9470  0.3508
  110CHL1  H27C14400   7.690   4.767   8.546  0.5022  0.3820 -0.3115
  111CHL1    C314401   1.577   6.199   9.540 -0.9036  0.1229  0.2414
  111CHL1    H314402   1.497   6.238   9.474 -0.8836  0.2054  0.2642
  111CHL1    O314403   1.521   6.140   9.651 -0.2550  0.4522  0.2233
  111CHL1   H3'14404   1.585   6.152   9.721 -0.7758  0.7583  0.6438
  111CHL1    C414405   1.647   6.095   9.457 -0.1916  0.1650  0.0884
  111CHL1   H4A14406   1.726   6.054   9.525  1.0368  1.4692 -0.5063
  111CHL1   H4B14407   1.583   6.005   9.449 -0.4096  0.3250  0.0393
  111CHL1    C514408   1.706   6.148   9.329  0.7041 -0.1070 -0.1824
  111CHL1    C614409   1.657   6.099   9.212 -0.0229 -0.0213 -0.2685
  111CHL1    H614410   1.577   6.024   9.213 -0.3393  0.3227  0.4977
  111CHL1    C714411   1.699   6.151   9.076  0.3870 -0.5938 -0.6751
  111CHL1   H7A14412   1.723   6.070   9.004 -0.0418  0.4072 -1.9699
  111CHL1   H7B14413   1.621   6.215   9.029  0.1433  0.4533  1.0811
  111CHL1    C814414   1.835   6.229   9.085 -0.1659 -0.7984 -0.1544
  111CHL1    H814415   1.916   6.157   9.109  0.2158 -0.1152  0.7030
  111CHL1   C1414416   1.860   6.305   8.955  0.2916 -0.3930 -0.3983
  111CHL1   H1414417   1.764   6.360   8.946 -0.8828 -2.2259  0.2651
  111CHL1   C1514418   1.875   6.214   8.829 -0.2594 -0.0222 -0.6662
  111CHL1  H15A14419   1.946   6.136   8.862  1.8721  2.2766  0.5825
  111CHL1  H15B14420   1.775   6.174   8.806  0.0897 -1.4670  0.2332
  111CHL1   C1614421   1.938   6.310   8.731 -0.0963 -0.0379  0.3559
  111CHL1  H16A14422   2.018   6.262   8.670 -0.2819 -0.3498  0.3583
  111CHL1  H16B14423   1.872   6.341   8.648  1.3613  0.9205 -0.4803
  111CHL1   C1714424   1.979   6.439   8.804 -0.4525  0.4875 -1.0996
  111CHL1   H1714425   1.897   6.513   8.803 -0.8837  0.1075  0.9829
  111CHL1   C1314426   1.980   6.397   8.958  0.0244 -0.7468 -0.4489
  111CHL1   C1814427   2.115   6.323   8.992 -0.3768 -0.0251 -0.3959
  111CHL1  H18A14428   2.143   6.246   8.917 -0.8444  0.8367 -1.4880
  111CHL1  H18B14429   2.202   6.392   8.997 -1.5928  1.4947  1.3290
  111CHL1  H18C14430   2.108   6.263   9.085 -0.3731  0.6398  0.0430
  111CHL1   C1214431   1.950   6.502   9.060  0.0962  0.5476  0.4060
  111CHL1  H12A14432   2.024   6.585   9.059  0.1879  0.4652 -0.3140
  111CHL1  H12B14433   1.857   6.548   9.023  0.3776  0.2069 -0.7542
  111CHL1   C1114434   1.936   6.439   9.200  0.0905  0.0967 -0.1952
  111CHL1  H11A14435   2.036   6.408   9.236  0.7931  2.0692 -0.3304
  111CHL1  H11B14436   1.912   6.525   9.267 -3.7178 -0.9492  0.0253
  111CHL1    C914437   1.825   6.326   9.202 -0.4683 -0.2720  0.0530
  111CHL1    H914438   1.732   6.384   9.185 -0.6565 -0.8217 -0.8674
  111CHL1   C1014439   1.796   6.262   9.340 -0.2288  0.9059 -0.1527
  111CHL1   C1914440   1.933   6.209   9.397  0.1679  0.0388 -0.1242
  111CHL1  H19A14441   1.985   6.137   9.329  0.3874 -0.8095  0.9084
  111CHL1  H19B14442   2.005   6.292   9.412  0.2102  0.2924 -1.6041
  111CHL1  H19C14443   1.910   6.153   9.490 -0.0973  2.1266  1.1183
  111CHL1    C114444   1.744   6.365   9.443 -0.1345 -0.3672  0.6152
  111CHL1   H1A14445   1.829   6.434   9.456 -0.7828  1.0003 -1.7783
  111CHL1   H1B14446   1.670   6.430   9.392  1.4040  0.1864 -0.9952
  111CHL1    C214447   1.674   6.312   9.574 -0.3060  0.9741  0.6585
  111CHL1   H2A14448   1.635   6.400   9.630  0.0486  1.0989  0.7128
  111CHL1   H2B14449   1.754   6.283   9.646 -1.4219 -0.4882  1.3684
  111CHL1   C2014450   2.107   6.500   8.735  0.1269 -0.1003 -0.6549
  111CHL1   H2014451   2.199   6.443   8.764  0.3606  1.0465  0.9522
  111CHL1   C2114452   2.118   6.644   8.788 -0.2917 -0.7532  0.3815
  111CHL1  H21A14453   2.189   6.704   8.727 -0.2565 -0.9539  0.2251
  111CHL1  H21B14454   2.157   6.645   8.892 -0.4703  3.3742  0.5989
  111CHL1  H21C14455   2.018   6.689   8.772  0.4224 -0.1878 -3.2456
  111CHL1   C2214456   2.103   6.503   8.578 -0.4123  0.6435 -0.0074
  111CHL1  H22A14457   2.198   6.547   8.540 -0.0429 -2.2417 -2.8925
  111CHL1  H22B14458   2.101   6.402   8.531  0.0351  0.5495  0.1705
  111CHL1   C2314459   1.983   6.583   8.519  0.1775  0.0477  0.8138
  111CHL1  H23A14460   1.887   6.532   8.540 -0.0064 -0.6268 -1.4641
  111CHL1  H23B14461   1.980   6.686   8.561  0.6290  0.5288 -0.3039
  111CHL1   C2414462   1.986   6.585   8.367 -0.3623 -0.1184 -0.0779
  111CHL1  H24A14463   2.076   6.636   8.326 -1.4868  0.4135 -1.9871
  111CHL1  H24B14464   1.989   6.477   8.341  1.5652 -0.7449  2.3755
  111CHL1   C2514465   1.868   6.642   8.303 -0.3382 -0.5247  0.9306
  111CHL1   H2514466   1.772   6.601   8.340 -0.1636 -0.6312  1.2731
  111CHL1   C2614467   1.869   6.798   8.326 -0.0993  0.6755 -0.2210
  111CHL1  H26A14468   1.968   6.831   8.289 -0.6389  1.7526 -0.7423
  111CHL1  H26B14469   1.796   6.850   8.260 -0.9838  0.7360  0.7667
  111CHL1  H26C14470   1.849   6.831   8.431 -0.9472  0.9847 -0.4742
  111CHL1   C2714471   1.875   6.617   8.153 -0.2831  0.0179  0.2249
  111CHL1  H27A14472   1.852   6.509   8.137  2.2953 -0.3051 -2.3302
  111CHL1  H27B14473   1.798   6.672   8.095  0.4968  1.9836  0.9890
  111CHL1  H27C14474   1.974   6.635   8.106 -0.9941  1.2994 -0.8317
  112CHL1    C314475   2.950   6.031   9.668  0.1128  0.3306  0.0561
  112CHL1    H314476   3.034   6.098   9.641 -1.9152  3.2381  0.4758
  112CHL1    O314477   2.926   6.032   9.809 -0.3325 -0.0099  0.4835
  112CHL1   H3'14478   2.842   5.988   9.819  0.0531 -0.5524  1.4643
  112CHL1    C414479   2.822   6.074   9.600  0.2782  0.2650  0.7679
  112CHL1   H4A14480   2.740   6.010   9.637 -0.5294  0.2018 -0.9992
  112CHL1   H4B14481   2.806   6.180   9.630  1.0546  0.6063  0.0299
  112CHL1    C514482   2.825   6.059   9.448  0.2099  0.2284  0.5482
  112CHL1    C614483   2.817   6.162   9.362 -0.5559  0.6140  0.0042
  112CHL1    H614484   2.791   6.262   9.401  1.0536  0.4428  1.7015
  112CHL1    C714485   2.830   6.155   9.213 -0.1933  0.3567  0.2025
  112CHL1   H7A14486   2.751   6.207   9.154  0.0585  0.2520 -0.2365
  112CHL1   H7B14487   2.929   6.189   9.177 -1.2493  0.2039 -3.2026
  112CHL1    C814488   2.813   6.007   9.163  0.4298  0.6405 -0.0987
  112CHL1    H814489   2.709   5.971   9.179  0.9395  0.1173  2.4559
  112CHL1   C1414490   2.860   5.993   9.017 -0.3951  0.3166  0.7169
  112CHL1   H1414491   2.969   6.016   9.016 -0.2961 -0.1227 -0.9067
  112CHL1   C1514492   2.803   6.080   8.910  0.0981  0.0259  0.5053
  112CHL1  H15A14493   2.692   6.076   8.906  0.0225 -0.6109 -5.2190
  112CHL1  H15B14494   2.837   6.186   8.913  1.2929 -0.2519 -1.6359
  112CHL1   C1614495   2.840   6.009   8.779 -0.1366  0.2036  0.5618
  112CHL1  H16A14496   2.746   5.992   8.723 -0.0729  0.0474  0.5009
  112CHL1  H16B14497   2.911   6.065   8.715  0.3953 -0.4374  0.5749
  112CHL1   C1714498   2.897   5.867   8.818  0.4308 -0.3419  0.2451
  112CHL1   H1714499   3.007   5.877   8.824  0.4209 -0.2765  0.3153
  112CHL1   C1314500   2.857   5.843   8.965 -0.0975  0.1543  0.0277
  112CHL1   C1814501   2.712   5.782   8.981 -0.6411 -0.4695  0.0979
  112CHL1  H18A14502   2.664   5.804   9.079 -0.4876  3.6862 -0.5940
  112CHL1  H18B14503   2.643   5.826   8.905 -0.9079  0.2711  0.7550
  112CHL1  H18C14504   2.727   5.673   8.964  0.2520 -0.6291  1.7376
  112CHL1   C1214505   2.956   5.766   9.051  0.2307 -0.1526  0.4058
  112CHL1  H12A14506   2.977   5.660   9.027  1.1584 -0.7519  3.3769
  112CHL1  H12B14507   3.050   5.825   9.045  0.8562 -0.9730  1.6836
  112CHL1   C1114508   2.915   5.769   9.203 -0.4011  0.1328  0.2842
  112CHL1  H11A14509   2.818   5.716   9.212 -0.1513 -0.3951 -0.1082
  112CHL1  H11B14510   2.994   5.714   9.258 -0.3151 -3.1810 -2.7602
  112CHL1    C914511   2.900   5.913   9.256  0.4121 -0.1961  0.2416
  112CHL1    H914512   2.999   5.961   9.242  0.6081 -0.3812  0.9332
  112CHL1   C1014513   2.870   5.920   9.406  0.6707  0.2519 -0.0234
  112CHL1   C1914514   2.735   5.831   9.432  1.2383  0.2579 -0.4547
  112CHL1  H19A14515   2.758   5.724   9.413  0.3340 -0.5311  2.3434
  112CHL1  H19B14516   2.710   5.845   9.540  1.9475 -0.6526 -0.1547
  112CHL1  H19C14517   2.654   5.869   9.366  0.6741  1.4953  0.8834
  112CHL1    C114518   2.999   5.877   9.484  0.1838  0.1871 -0.5961
  112CHL1   H1A14519   3.022   5.771   9.462  3.2155  0.4491  0.8089
  112CHL1   H1B14520   3.086   5.938   9.450 -0.3204  2.5931  2.0331
  112CHL1    C214521   2.982   5.884   9.639 -0.3023 -0.8114  0.5696
  112CHL1   H2A14522   3.077   5.859   9.692  0.0829  1.8807  1.3502
  112CHL1   H2B14523   2.901   5.815   9.668 -1.5237 -0.5029 -1.8587
  112CHL1   C2014524   2.868   5.761   8.712 -0.2882  0.4184  0.1270
  112CHL1   H2014525   2.760   5.735   8.717 -0.3018 -0.3665 -2.3980
  112CHL1   C2114526   2.954   5.632   8.738  0.6715  0.1674 -0.9174
  112CHL1  H21A14527   3.060   5.664   8.750  1.5395 -1.7537 -2.7660
  112CHL1  H21B14528   2.948   5.558   8.656  1.9093  0.1886 -1.0600
  112CHL1  H21C14529   2.914   5.579   8.826  2.0855 -0.5861 -0.6953
  112CHL1   C2214530   2.888   5.806   8.564  0.2754 -0.5611  0.4651
  112CHL1  H22A14531   2.869   5.724   8.492 -1.5579 -0.4249  0.7544
  112CHL1  H22B14532   2.820   5.888   8.531  2.2756  0.4146 -1.5333
  112CHL1   C2314533   3.036   5.851   8.534  0.4626 -0.1238  0.0523
  112CHL1  H23A14534   3.075   5.914   8.617  1.2858 -2.1246  1.2393
  112CHL1  H23B14535   3.099   5.760   8.532 -0.5811 -0.9574  2.0200
  112CHL1   C2414536   3.057   5.941   8.408  0.9146 -0.2694 -0.5448
  112CHL1  H24A14537   2.985   5.912   8.328  0.7070  0.7955 -0.7479
  112CHL1  H24B14538   3.043   6.049   8.426 -0.2474 -0.1723 -1.8687
  112CHL1   C2514539   3.197   5.936   8.342  0.1218  0.6989  0.6671
  112CHL1   H2514540   3.230   5.831   8.359 -1.2480  0.2520  0.6924
  112CHL1   C2614541   3.182   5.978   8.189  0.3135 -0.0065 -0.0221
  112CHL1  H26A14542   3.104   5.922   8.133  0.3727 -0.0643 -0.0480
  112CHL1  H26B14543   3.154   6.085   8.185  0.9329  0.1191 -1.9422
  112CHL1  H26C14544   3.281   5.977   8.139 -0.0024 -2.9914 -0.8333
  112CHL1   C2714545   3.291   6.021   8.423  0.2441 -0.1291  0.8635
  112CHL1  H27A14546   3.395   6.014   8.384  0.2194  1.0930  0.5385
  112CHL1  H27B14547   3.247   6.123   8.414 -0.2734 -0.4483 -0.4757
  112CHL1  H27C14548   3.298   5.987   8.529 -0.8251 -0.7229  0.7572
  113CHL1    C314549   7.312   3.335   9.534  0.0575 -0.1862  0.2876
  113CHL1    H314550   7.374   3.257   9.485  0.1095 -0.0335  0.1086
  113CHL1    O314551   7.369   3.369   9.656  0.1742  0.3143  0.0484
  113CHL1   H3'14552   7.298   3.401   9.712 -1.2480  1.8538 -2.4811
  113CHL1    C414553   7.308   3.461   9.441 -0.3184 -0.1452  0.0883
  113CHL1   H4A14554   7.249   3.539   9.494  0.1988  0.0103  0.4474
  113CHL1   H4B14555   7.413   3.497   9.441 -0.3072 -0.1607  0.7311
  113CHL1    C514556   7.254   3.418   9.304 -0.3357  0.3263 -0.0679
  113CHL1    C614557   7.334   3.417   9.199  0.3976  1.0595  0.0816
  113CHL1    H614558   7.436   3.458   9.208  0.8489  0.3299 -1.4471
  113CHL1    C714559   7.290   3.379   9.062  0.3212  0.0297 -0.2891
  113CHL1   H7A14560   7.329   3.451   8.987 -1.0393  0.3325 -0.7334
  113CHL1   H7B14561   7.322   3.276   9.036 -2.6641 -1.1633  0.3885
  113CHL1    C814562   7.138   3.387   9.056 -0.1769 -0.0121 -0.6006
  113CHL1    H814563   7.105   3.493   9.066 -1.3203 -0.5518  2.6516
  113CHL1   C1414564   7.092   3.342   8.922 -0.6798  0.3122  0.1508
  113CHL1   H1414565   7.140   3.244   8.902  1.1654  1.2564 -0.2328
  113CHL1   C1514566   7.149   3.417   8.794 -0.1231  0.2092  0.0600
  113CHL1  H15A14567   7.144   3.524   8.822 -0.4166  0.4186 -0.7718
  113CHL1  H15B14568   7.256   3.394   8.777  0.1759  1.6143 -0.0387
  113CHL1   C1614569   7.044   3.369   8.689 -0.0277  0.3534 -0.1815
  113CHL1  H16A14570   6.994   3.454   8.638  1.2644  2.2760  1.5631
  113CHL1  H16B14571   7.100   3.309   8.614  1.0083  1.3458 -0.2299
  113CHL1   C1714572   6.933   3.282   8.761  0.3923 -0.5239 -0.1693
  113CHL1   H1714573   6.976   3.180   8.761  2.0321  0.1166 -1.6199
  113CHL1   C1314574   6.940   3.331   8.905 -0.8386  0.0023 -0.8524
  113CHL1   C1814575   6.875   3.471   8.913  0.1950 -0.3250  0.1913
  113CHL1  H18A14576   6.916   3.542   8.838 -2.4853  0.4612 -0.6231
  113CHL1  H18B14577   6.767   3.464   8.891 -0.0454  0.5938  1.0194
  113CHL1  H18C14578   6.885   3.520   9.012 -1.1761  1.7855 -0.6354
  113CHL1   C1214579   6.884   3.235   9.002  0.3165  0.6591 -0.2416
  113CHL1  H12A14580   6.776   3.213   8.992 -0.1751  1.2951  2.6937
  113CHL1  H12B14581   6.929   3.135   8.986 -0.8779 -0.0161  0.4862
  113CHL1   C1114582   6.914   3.284   9.148 -0.3037  0.2779  0.5091
  113CHL1  H11A14583   6.851   3.374   9.166 -0.8750 -0.1034  0.4603
  113CHL1  H11B14584   6.881   3.201   9.214  1.5453 -0.6478  0.3401
  113CHL1    C914585   7.066   3.304   9.167  0.2223 -1.2657  0.3854
  113CHL1    H914586   7.105   3.201   9.159 -0.2662 -1.4914  0.8742
  113CHL1   C1014587   7.106   3.366   9.304  0.1432 -0.2863  0.3851
  113CHL1   C1914588   7.014   3.485   9.352  0.3417  0.4744  0.3172
  113CHL1  H19A14589   6.910   3.449   9.370  0.4247 -0.1848 -0.4793
  113CHL1  H19B14590   7.044   3.530   9.449 -0.8032 -0.5750  1.1971
  113CHL1  H19C14591   7.014   3.565   9.274 -0.7664 -2.1111 -2.5564
  113CHL1    C114592   7.103   3.249   9.409 -0.8898 -0.2676  0.7267
  113CHL1   H1A14593   7.000   3.208   9.418 -1.6168  1.1877 -0.5820
  113CHL1   H1B14594   7.160   3.161   9.371 -3.5591 -1.5401 -0.5836
  113CHL1    C214595   7.166   3.289   9.547  0.6252  0.0442  0.4664
  113CHL1   H2A14596   7.143   3.205   9.617  0.6656 -2.0154 -1.8455
  113CHL1   H2B14597   7.107   3.378   9.577  1.9383  1.1201 -0.0642
  113CHL1   C2014598   6.801   3.283   8.687  0.0310  0.3491  0.2668
  113CHL1   H2014599   6.769   3.389   8.698 -1.9613 -0.3677  1.9996
  113CHL1   C2114600   6.698   3.189   8.752 -0.0381 -0.5323  0.7546
  113CHL1  H21A14601   6.644   3.236   8.837 -0.1978  0.0352  0.3469
  113CHL1  H21B14602   6.750   3.096   8.783  1.5262 -0.0853 -0.4022
  113CHL1  H21C14603   6.616   3.172   8.680 -2.4954  1.3844  2.8779
  113CHL1   C2214604   6.805   3.252   8.529  0.2334  0.5424 -0.1308
  113CHL1  H22A14605   6.702   3.249   8.490  0.3122 -0.7499 -0.2938
  113CHL1  H22B14606   6.861   3.334   8.480 -0.6494  0.6367 -0.9963
  113CHL1   C2314607   6.883   3.122   8.500  0.0314  0.1729 -0.2666
  113CHL1  H23A14608   6.986   3.124   8.540  0.6764  0.9031 -1.8743
  113CHL1  H23B14609   6.823   3.041   8.547  1.3475 -0.8725 -0.3349
  113CHL1   C2414610   6.888   3.096   8.345  0.0306  0.0097  0.3773
  113CHL1  H24A14611   6.945   3.174   8.291  0.6059 -0.5924  0.0988
  113CHL1  H24B14612   6.949   3.004   8.329 -1.7158 -1.4274  1.6214
  113CHL1   C2514613   6.755   3.078   8.267 -0.5012  0.3059  0.0499
  113CHL1   H2514614   6.692   3.167   8.289 -2.7386 -1.0108 -0.7929
  113CHL1   C2614615   6.780   3.075   8.107 -0.1432 -0.0227 -0.4568
  113CHL1  H26A14616   6.696   3.043   8.042 -1.1797  0.2653  0.7052
  113CHL1  H26B14617   6.806   3.178   8.074 -0.5414 -0.4062 -2.0754
  113CHL1  H26C14618   6.871   3.013   8.093 -0.5784 -0.9567  0.6570
  113CHL1   C2714619   6.685   2.960   8.311 -0.1796  0.2925  0.5307
  113CHL1  H27A14620   6.602   2.941   8.239 -0.9550 -1.4269  1.7789
  113CHL1  H27B14621   6.747   2.867   8.307  0.0666  0.3530  2.2099
  113CHL1  H27C14622   6.645   2.966   8.415  0.1402  0.0524  0.6718
  114CHL1    C314623   5.089   6.563   9.634  0.5839 -0.1410  0.4186
  114CHL1    H314624   5.174   6.631   9.655 -0.0102  0.9051 -0.4188
  114CHL1    O314625   5.014   6.537   9.749  0.3699  0.6309 -0.2573
  114CHL1   H3'14626   5.049   6.454   9.784 -1.2586  0.3016  0.7073
  114CHL1    C414627   4.986   6.618   9.538 -0.4344 -1.1113  0.6245
  114CHL1   H4A14628   4.893   6.557   9.535 -1.7641  0.7537 -3.9817
  114CHL1   H4B14629   4.954   6.718   9.574 -0.5410 -0.4188 -1.2872
  114CHL1    C514630   5.029   6.637   9.388  0.2043  0.8060  0.8298
  114CHL1    C614631   5.015   6.755   9.322  0.1848  0.2908 -0.6742
  114CHL1    H614632   4.982   6.840   9.381 -0.5032  0.8504 -1.8297
  114CHL1    C714633   5.050   6.782   9.179  0.3625 -0.3862  0.3817
  114CHL1   H7A14634   4.972   6.827   9.114  1.2745 -0.3793 -0.7453
  114CHL1   H7B14635   5.138   6.850   9.172 -0.1498  0.1550 -1.2512
  114CHL1    C814636   5.093   6.648   9.106  1.0291  0.4226 -0.3109
  114CHL1    H814637   5.011   6.579   9.076  2.4501 -0.9905 -1.1568
  114CHL1   C1414638   5.181   6.676   8.985  0.4620  0.0092  0.3122
  114CHL1   H1414639   5.272   6.720   9.032  1.7476 -2.2068  0.0746
  114CHL1   C1514640   5.131   6.767   8.884 -0.0217 -0.3584  0.0278
  114CHL1  H15A14641   5.034   6.722   8.854  0.5740 -0.8014 -1.2923
  114CHL1  H15B14642   5.103   6.866   8.927 -0.7589 -0.3206 -0.5119
  114CHL1   C1614643   5.217   6.751   8.764 -0.3890 -0.0907 -0.0385
  114CHL1  H16A14644   5.161   6.734   8.670  3.0792  2.8884 -2.9528
  114CHL1  H16B14645   5.274   6.843   8.741 -0.1090 -0.4934 -1.0059
  114CHL1   C1714646   5.304   6.617   8.792 -0.6736 -0.6979  0.8416
  114CHL1   H1714647   5.405   6.654   8.819 -1.2211  2.1349 -0.6548
  114CHL1   C1314648   5.234   6.548   8.902  0.3766 -0.0506 -0.8137
  114CHL1   C1814649   5.105   6.467   8.852  0.2116 -0.3077 -0.1919
  114CHL1  H18A14650   5.129   6.391   8.775 -0.2094 -0.5050 -0.1309
  114CHL1  H18B14651   5.056   6.414   8.937  0.6447  2.1671  1.7236
  114CHL1  H18C14652   5.027   6.531   8.804 -1.8577 -1.3664  1.5568
  114CHL1   C1214653   5.319   6.467   8.998 -0.4685  0.3690  0.2768
  114CHL1  H12A14654   5.355   6.376   8.946  1.8097  1.6475 -0.5109
  114CHL1  H12B14655   5.412   6.526   9.010  0.4474 -0.9836  0.0245
  114CHL1   C1114656   5.243   6.436   9.126 -0.7615  0.6640 -0.4468
  114CHL1  H11A14657   5.168   6.357   9.103  1.3474 -0.9013 -2.4046
  114CHL1  H11B14658   5.326   6.406   9.193 -0.8884  2.9100  0.8251
  114CHL1    C914659   5.174   6.555   9.201  0.3323 -0.4272  0.3863
  114CHL1    H914660   5.246   6.636   9.229 -3.8028  3.8324 -0.0439
  114CHL1   C1014661   5.091   6.512   9.324 -0.1961  0.2724  0.6858
  114CHL1   C1914662   4.980   6.400   9.292 -0.3527 -0.6220 -0.8067
  114CHL1  H19A14663   5.025   6.300   9.274 -1.7076 -1.3368 -0.3428
  114CHL1  H19B14664   4.930   6.369   9.386 -0.3122 -0.4707 -0.7336
  114CHL1  H19C14665   4.911   6.432   9.211 -0.6472 -1.5881 -0.9421
  114CHL1    C114666   5.197   6.459   9.429  0.1405 -0.2743 -0.0854
  114CHL1   H1A14667   5.232   6.363   9.387  1.6961  0.0343  0.4244
  114CHL1   H1B14668   5.287   6.523   9.433  0.3958 -0.6941  1.8641
  114CHL1    C214669   5.142   6.433   9.568 -0.5584 -0.0134 -0.7519
  114CHL1   H2A14670   5.226   6.401   9.634  1.2205 -0.3562 -3.0282
  114CHL1   H2B14671   5.067   6.351   9.566 -0.6138 -0.1269  1.9280
  114CHL1   C2014672   5.325   6.540   8.659  0.4538  0.0469  0.0716
  114CHL1   H2014673   5.229   6.509   8.612  0.9592 -0.8861 -0.3743
  114CHL1   C2114674   5.412   6.415   8.687  0.3849  0.6762  0.1226
  114CHL1  H21A14675   5.505   6.431   8.746  0.0142 -0.6137  1.1116
  114CHL1  H21B14676   5.451   6.377   8.591  3.6477  0.3795  1.4500
  114CHL1  H21C14677   5.358   6.329   8.733 -0.4717  0.5301 -1.1032
  114CHL1   C2214678   5.406   6.619   8.556 -0.9511  0.3771 -0.2356
  114CHL1  H22A14679   5.376   6.726   8.556 -0.0040  0.6785 -2.2992
  114CHL1  H22B14680   5.514   6.610   8.578 -0.5499  1.0008 -1.8709
  114CHL1   C2314681   5.391   6.568   8.412 -0.8952  0.1599  0.0214
  114CHL1  H23A14682   5.410   6.458   8.412  1.3590  0.5000 -1.0252
  114CHL1  H23B14683   5.287   6.591   8.381 -0.7217  0.4138 -0.3751
  114CHL1   C2414684   5.492   6.620   8.310 -0.8549  0.2519 -0.2772
  114CHL1  H24A14685   5.481   6.730   8.306 -0.8064  0.2965  0.7411
  114CHL1  H24B14686   5.594   6.606   8.350  0.0547  0.1138 -2.4723
  114CHL1   C2514687   5.479   6.559   8.174  1.0984  1.3127 -0.0492
  114CHL1   H2514688   5.487   6.449   8.182  0.9041  1.1972 -1.2484
  114CHL1   C2614689   5.340   6.586   8.114 -0.5000 -0.3391  0.7761
  114CHL1  H26A14690   5.297   6.683   8.147 -2.5478 -1.2857  1.0414
  114CHL1  H26B14691   5.347   6.572   8.004  2.2773 -1.6811  1.0372
  114CHL1  H26C14692   5.270   6.507   8.148  0.1137 -2.3384 -2.1960
  114CHL1   C2714693   5.577   6.620   8.077 -0.4990  0.0113 -0.0926
  114CHL1  H27A14694   5.681   6.604   8.116 -0.6980  1.3936  1.1249
  114CHL1  H27B14695   5.578   6.577   7.975  3.2559 -2.1211  0.6422
  114CHL1  H27C14696   5.571   6.729   8.057  0.0092 -0.0307 -0.5008
  115CHL1    C314697   0.791   6.996   9.696  0.2201  0.2817  0.8455
  115CHL1    H314698   0.819   7.083   9.632  0.7133 -1.7987 -1.9204
  115CHL1    O314699   0.761   7.039   9.823 -0.1030  0.4849 -0.4363
  115CHL1   H3'14700   0.757   6.955   9.868 -0.5521 -0.2472 -1.8009
  115CHL1    C414701   0.662   6.930   9.636  0.5815 -0.0023 -0.6037
  115CHL1   H4A14702   0.631   6.852   9.709  0.2310  1.2380  0.6027
  115CHL1   H4B14703   0.574   6.997   9.644 -0.4669 -1.4544  0.5507
  115CHL1    C514704   0.692   6.873   9.496 -0.0512 -0.0175  0.3029
  115CHL1    C614705   0.616   6.911   9.391 -0.0278  0.0681  0.4707
  115CHL1    H614706   0.536   6.985   9.404  1.6800  2.5441 -1.9336
  115CHL1    C714707   0.627   6.853   9.249  0.0189  0.0630 -0.0967
  115CHL1   H7A14708   0.528   6.823   9.209  0.2154  0.5150 -0.9283
  115CHL1   H7B14709   0.680   6.926   9.185 -1.1006  0.8730 -0.1306
  115CHL1    C814710   0.719   6.721   9.252 -0.6509 -0.0295  0.5548
  115CHL1    H814711   0.647   6.643   9.284 -0.4150  0.0603  1.3113
  115CHL1   C1414712   0.765   6.697   9.107 -0.1821 -0.1703  0.8092
  115CHL1   H1414713   0.831   6.782   9.077 -0.1830 -0.1759  0.7911
  115CHL1   C1514714   0.656   6.699   8.992 -0.3023  0.0699 -0.1811
  115CHL1  H15A14715   0.556   6.662   9.023 -1.0888  0.6156 -1.9380
  115CHL1  H15B14716   0.652   6.799   8.945  0.7398  0.0914 -0.2410
  115CHL1   C1614717   0.718   6.620   8.883 -0.4055 -0.1120  0.5528
  115CHL1  H16A14718   0.647   6.538   8.856 -0.2431  0.7771 -3.0869
  115CHL1  H16B14719   0.734   6.665   8.782 -1.6508  0.3759  0.5542
  115CHL1   C1714720   0.852   6.569   8.938 -0.0397 -0.0710 -1.0068
  115CHL1   H1714721   0.930   6.646   8.920 -1.2202  1.1729 -0.9588
  115CHL1   C1314722   0.840   6.574   9.093  0.0476  0.1042 -1.0835
  115CHL1   C1814723   0.756   6.449   9.129  0.0115 -0.2225  0.1425
  115CHL1  H18A14724   0.815   6.356   9.118  1.5582  0.7460 -0.1147
  115CHL1  H18B14725   0.729   6.455   9.237 -1.3898  1.4264 -0.2593
  115CHL1  H18C14726   0.659   6.455   9.075  0.5525  0.1938 -0.8079
  115CHL1   C1214727   0.969   6.578   9.185  0.7069 -0.1671  0.1169
  115CHL1  H12A14728   1.023   6.482   9.172  0.9426  0.1040 -1.0119
  115CHL1  H12B14729   1.037   6.657   9.146 -0.0592  1.0559  1.1516
  115CHL1   C1114730   0.932   6.610   9.330  0.5227  0.5980 -0.7661
  115CHL1  H11A14731   0.879   6.524   9.377 -1.5963  2.5438  0.5775
  115CHL1  H11B14732   1.025   6.623   9.389 -0.1098  1.2365  0.1202
  115CHL1    C914733   0.839   6.737   9.342 -0.5470  0.2818 -0.1577
  115CHL1    H914734   0.899   6.821   9.302 -1.3928 -0.1996 -2.5924
  115CHL1   C1014735   0.814   6.780   9.490 -0.0765 -0.6027  0.6133
  115CHL1   C1914736   0.776   6.654   9.570 -0.5624  0.3904 -0.3894
  115CHL1  H19A14737   0.692   6.601   9.522  0.0638 -0.8976 -0.0997
  115CHL1  H19B14738   0.866   6.589   9.580 -0.0294  1.2134  0.3210
  115CHL1  H19C14739   0.741   6.685   9.671 -2.1430  0.6214 -0.9902
  115CHL1    C114740   0.933   6.854   9.547 -1.1109  0.3966  0.0922
  115CHL1   H1A14741   1.020   6.786   9.536 -1.4700 -0.0306 -0.1428
  115CHL1   H1B14742   0.947   6.933   9.470 -0.9076 -0.4972 -0.7993
  115CHL1    C214743   0.913   6.900   9.689  0.1492  0.3491 -0.1544
  115CHL1   H2A14744   1.004   6.949   9.729 -0.5301  0.4792  1.2971
  115CHL1   H2B14745   0.891   6.809   9.750 -2.6047  1.1616  0.1967
  115CHL1   C2014746   0.902   6.434   8.877  0.9606 -0.8727 -0.3771
  115CHL1   H2014747   0.969   6.404   8.960  0.2724 -2.8138 -0.4561
  115CHL1   C2114748   1.001   6.473   8.755  1.1704  0.8214 -0.0938
  115CHL1  H21A14749   1.075   6.542   8.800 -0.3642  1.6377  1.2700
  115CHL1  H21B14750   0.935   6.519   8.678 -0.4858 -2.0248 -0.5620
  115CHL1  H21C14751   1.047   6.380   8.714  0.6604 -0.2311  1.6074
  115CHL1   C2214752   0.801   6.322   8.844  0.6113  0.8992  0.3049
  115CHL1  H22A14753   0.718   6.325   8.917 -1.8258 -3.4801 -1.8768
  115CHL1  H22B14754   0.766   6.347   8.741 -2.1127  0.7342  1.1267
  115CHL1   C2314755   0.842   6.176   8.839  0.6273  0.1546  0.8042
  115CHL1  H23A14756   0.935   6.162   8.779  0.5401  0.0157  0.7007
  115CHL1  H23B14757   0.865   6.139   8.941  2.2670 -1.3003 -0.0157
  115CHL1   C2414758   0.740   6.083   8.763  0.3739  0.0602 -0.1429
  115CHL1  H24A14759   0.646   6.097   8.820  0.1529 -0.6339 -0.3324
  115CHL1  H24B14760   0.717   6.115   8.659 -0.6724 -0.7067 -0.1621
  115CHL1   C2514761   0.775   5.931   8.771  0.2558 -0.1760 -0.4181
  115CHL1   H2514762   0.830   5.911   8.865 -0.9693 -1.0025  0.1360
  115CHL1   C2614763   0.650   5.845   8.773 -0.0192  0.4557 -0.5726
  115CHL1  H26A14764   0.684   5.741   8.794  3.8755  1.1742 -2.4373
  115CHL1  H26B14765   0.583   5.875   8.857  0.2821 -1.7227  0.5419
  115CHL1  H26C14766   0.591   5.835   8.680  0.1626 -2.6977 -0.4769
  115CHL1   C2714767   0.878   5.889   8.663 -0.8204 -0.2744  0.8289
  115CHL1  H27A14768   0.887   5.778   8.661  0.0955 -0.1965 -0.3693
  115CHL1  H27B14769   0.853   5.926   8.561  1.1467 -0.2428  0.3075
  115CHL1  H27C14770   0.977   5.931   8.690 -0.4530 -0.6429  0.0757
  116CHL1    C314771   1.344   6.511   9.881 -0.3844 -0.0749 -0.0398
  116CHL1    H314772   1.411   6.423   9.875 -0.9063 -0.5686  0.9274
  116CHL1    O314773   1.268   6.498   9.999  0.5841  0.0409 -0.3312
  116CHL1   H3'14774   1.331   6.468  10.065 -1.1744 -0.6683  1.0788
  116CHL1    C414775   1.435   6.639   9.896 -0.2104  0.0591 -0.2229
  116CHL1   H4A14776   1.367   6.725   9.912 -1.1904 -0.9507  1.2831
  116CHL1   H4B14777   1.505   6.626   9.981 -1.8155 -1.1559  0.9744
  116CHL1    C514778   1.509   6.674   9.770 -0.6750  0.3123  0.5771
  116CHL1    C614779   1.640   6.684   9.760 -0.2747 -0.0248 -0.7722
  116CHL1    H614780   1.700   6.684   9.852  1.7725  2.6418 -1.9695
  116CHL1    C714781   1.723   6.728   9.651  0.3861  0.1389 -0.3939
  116CHL1   H7A14782   1.789   6.809   9.689  0.4254 -0.6477  1.3413
  116CHL1   H7B14783   1.790   6.644   9.623 -0.9925 -0.9078 -0.6370
  116CHL1    C814784   1.636   6.778   9.534 -0.4997 -0.1814  0.1823
  116CHL1    H814785   1.620   6.885   9.559 -0.5023 -0.3908  1.1012
  116CHL1   C1414786   1.716   6.776   9.409  0.1908 -0.2704  0.6632
  116CHL1   H1414787   1.736   6.669   9.390  3.0017  0.2501  0.2019
  116CHL1   C1514788   1.860   6.827   9.400  0.3437  0.5003 -0.1177
  116CHL1  H15A14789   1.873   6.926   9.449 -0.3762  0.0152  1.0989
  116CHL1  H15B14790   1.928   6.762   9.459  0.5995  0.7077 -0.1829
  116CHL1   C1614791   1.897   6.841   9.249  0.1430 -0.1234 -0.4573
  116CHL1  H16A14792   1.930   6.947   9.238  0.1321 -0.1259 -0.5144
  116CHL1  H16B14793   1.986   6.780   9.222 -0.7471 -1.3754 -0.6707
  116CHL1   C1714794   1.758   6.821   9.185  0.0197  0.4633  0.2281
  116CHL1   H1714795   1.753   6.714   9.157  2.0896 -0.5538  3.2525
  116CHL1   C1314796   1.649   6.829   9.289 -0.2576  0.1993  0.3641
  116CHL1   C1814797   1.612   6.974   9.314 -0.1297 -0.5032 -0.0628
  116CHL1  H18A14798   1.598   7.034   9.221  1.9688  0.8607  0.4245
  116CHL1  H18B14799   1.516   6.974   9.370 -1.0421 -0.0804 -1.5608
  116CHL1  H18C14800   1.688   7.019   9.382 -0.6652 -0.0359  0.2365
  116CHL1   C1214801   1.525   6.740   9.259 -0.8458 -0.1189  0.7681
  116CHL1  H12A14802   1.465   6.781   9.174  1.8434  1.2057 -0.6113
  116CHL1  H12B14803   1.555   6.640   9.221 -1.1389 -0.3433  1.1242
  116CHL1   C1114804   1.430   6.723   9.384 -1.0863 -0.0427 -0.0442
  116CHL1  H11A14805   1.374   6.817   9.402 -0.9082 -0.2314  1.5834
  116CHL1  H11B14806   1.359   6.639   9.363  1.4923 -2.3830 -0.0374
  116CHL1    C914807   1.508   6.698   9.518  1.3731  0.4525 -0.1808
  116CHL1    H914808   1.546   6.595   9.500  0.0367 -0.3081  1.1086
  116CHL1   C1014809   1.419   6.683   9.646 -0.2541  0.0402 -0.1639
  116CHL1   C1914810   1.341   6.819   9.660  0.3835  0.0026 -0.5058
  116CHL1  H19A14811   1.416   6.893   9.624  0.8875  0.3626  1.2125
  116CHL1  H19B14812   1.257   6.815   9.587  1.8006 -1.6853 -2.1623
  116CHL1  H19C14813   1.306   6.848   9.761 -0.8523  0.3817 -1.0259
  116CHL1    C114814   1.326   6.560   9.631  0.6979 -0.2532  0.0039
  116CHL1   H1A14815   1.255   6.576   9.547  0.8709  0.3376 -0.0334
  116CHL1   H1B14816   1.384   6.471   9.598 -1.1082 -1.0751 -1.0612
  116CHL1    C214817   1.252   6.523   9.757  0.0548  0.8156 -0.9178
  116CHL1   H2A14818   1.203   6.424   9.746  2.5118 -0.7783  1.1825
  116CHL1   H2B14819   1.166   6.588   9.785 -0.8392 -0.9587  0.6923
  116CHL1   C2014820   1.727   6.896   9.056 -0.2873  0.2978 -0.4679
  116CHL1   H2014821   1.617   6.912   9.056  0.0298  2.8980  0.0010
  116CHL1   C2114822   1.761   6.807   8.936  0.4526  0.2089  0.0055
  116CHL1  H21A14823   1.872   6.806   8.925  0.5009 -1.4208  0.3871
  116CHL1  H21B14824   1.714   6.851   8.846 -0.3026 -0.4348  0.0784
  116CHL1  H21C14825   1.726   6.702   8.936  1.8858 -0.2984  0.7663
  116CHL1   C2214826   1.792   7.033   9.038  1.1438 -0.1738 -0.2803
  116CHL1  H22A14827   1.805   7.091   9.132  1.1560 -2.5052  1.2292
  116CHL1  H22B14828   1.891   7.019   8.991  1.8978  0.1645  1.1712
  116CHL1   C2314829   1.690   7.106   8.956  0.1587 -0.1192  0.6023
  116CHL1  H23A14830   1.623   7.045   8.893 -0.9720 -0.8515  2.4205
  116CHL1  H23B14831   1.623   7.157   9.029  1.0030  2.7633 -0.4833
  116CHL1   C2414832   1.740   7.209   8.855  0.0725 -0.2908 -0.0984
  116CHL1  H24A14833   1.849   7.227   8.872  0.8905 -1.4012 -3.3830
  116CHL1  H24B14834   1.741   7.160   8.756  1.4566  1.0126 -0.7738
  116CHL1   C2514835   1.664   7.346   8.854 -0.2791  0.0278 -0.1098
  116CHL1   H2514836   1.671   7.386   8.957 -0.7434  1.4053 -0.5894
  116CHL1   C2614837   1.724   7.442   8.749  0.3033 -0.0769 -1.2090
  116CHL1  H26A14838   1.835   7.438   8.751  0.3248 -1.0255 -2.5640
  116CHL1  H26B14839   1.700   7.394   8.651 -1.5317 -0.2902 -0.6966
  116CHL1  H26C14840   1.669   7.538   8.756 -0.7924 -0.7143 -0.7080
  116CHL1   C2714841   1.517   7.318   8.821 -0.3177  0.0723 -0.0815
  116CHL1  H27A14842   1.471   7.416   8.797  0.8783  0.3884 -1.2611
  116CHL1  H27B14843   1.508   7.253   8.731  2.0178 -3.2612  1.8944
  116CHL1  H27C14844   1.470   7.261   8.904  0.8895 -2.2245 -0.8902
  117CHL1    C314845   3.317   7.406   9.917 -0.5060 -0.4738 -1.1013
  117CHL1    H314846   3.323   7.513   9.945 -0.7235 -0.5569 -0.7378
  117CHL1    O314847   3.278   7.344  10.043 -0.2136  0.3312  0.0492
  117CHL1   H3'14848   3.352   7.340  10.104 -1.8584 -0.1809  2.1425
  117CHL1    C414849   3.204   7.378   9.812 -0.6413 -0.0600 -0.1171
  117CHL1   H4A14850   3.192   7.268   9.805  2.6971 -0.7567  2.1200
  117CHL1   H4B14851   3.117   7.425   9.862 -0.0282  2.5485 -1.3121
  117CHL1    C514852   3.236   7.442   9.677  0.3297 -0.5409 -0.4099
  117CHL1    C614853   3.151   7.532   9.622 -0.1889 -0.5556  0.6816
  117CHL1    H614854   3.050   7.544   9.664 -0.4580 -2.0940  0.5415
  117CHL1    C714855   3.186   7.590   9.484 -0.2127 -0.0347 -0.1127
  117CHL1   H7A14856   3.097   7.596   9.419  0.0969  1.0761 -0.4434
  117CHL1   H7B14857   3.226   7.691   9.506 -1.0213  0.4152 -0.6732
  117CHL1    C814858   3.302   7.520   9.409 -0.2613  0.1625  0.5840
  117CHL1    H814859   3.271   7.419   9.374 -0.2805 -0.0786  1.2727
  117CHL1   C1414860   3.350   7.609   9.299 -0.5259 -0.0313  0.5253
  117CHL1   H1414861   3.397   7.699   9.344  2.9656 -0.6945 -1.4699
  117CHL1   C1514862   3.244   7.653   9.191  0.2215  0.1152  0.0440
  117CHL1  H15A14863   3.183   7.565   9.162  0.2559 -0.0476  0.4539
  117CHL1  H15B14864   3.190   7.734   9.244 -0.0643  0.5622 -0.9049
  117CHL1   C1614865   3.330   7.702   9.071 -0.3542  0.3407  0.0260
  117CHL1  H16A14866   3.299   7.655   8.976  1.3609  1.3202 -1.0666
  117CHL1  H16B14867   3.322   7.813   9.077 -0.6955  0.3713 -0.8934
  117CHL1   C1714868   3.478   7.659   9.116 -0.0732 -0.1688  0.3352
  117CHL1   H1714869   3.523   7.738   9.180  1.4903 -0.2007 -0.6718
  117CHL1   C1314870   3.467   7.547   9.223 -0.4306 -0.2139 -0.1415
  117CHL1   C1814871   3.431   7.420   9.139 -0.3836 -0.0789  0.2143
  117CHL1  H18A14872   3.402   7.334   9.203  3.4627 -2.5855 -1.0416
  117CHL1  H18B14873   3.343   7.447   9.077  0.2096 -0.1895 -0.6943
  117CHL1  H18C14874   3.512   7.388   9.071  0.7903  0.2328  1.4269
  117CHL1   C1214875   3.593   7.527   9.313 -0.9370 -0.3843 -0.5850
  117CHL1  H12A14876   3.680   7.500   9.249  0.0295  2.6874 -0.7523
  117CHL1  H12B14877   3.615   7.631   9.345  0.1603 -1.1273  1.2001
  117CHL1   C1114878   3.548   7.438   9.427  0.3964  0.1795 -0.2446
  117CHL1  H11A14879   3.534   7.335   9.388 -0.4075 -0.0802  0.7171
  117CHL1  H11B14880   3.624   7.427   9.507 -0.7496 -0.0363  0.8517
  117CHL1    C914881   3.420   7.495   9.500 -0.2754  0.2387 -0.2564
  117CHL1    H914882   3.456   7.594   9.537  1.7048  0.2592 -2.0218
  117CHL1   C1014883   3.378   7.407   9.622  0.5380  0.2487 -0.2834
  117CHL1   C1914884   3.379   7.260   9.587  0.0002 -0.3361  0.2215
  117CHL1  H19A14885   3.309   7.251   9.501  0.0005  0.4992  0.1198
  117CHL1  H19B14886   3.477   7.225   9.547  0.4543  0.3939  0.6686
  117CHL1  H19C14887   3.352   7.190   9.668 -0.0287 -1.5060 -0.7663
  117CHL1    C114888   3.487   7.415   9.729 -0.2862 -0.3707 -0.6869
  117CHL1   H1A14889   3.586   7.373   9.700 -0.1897  0.7621 -2.1597
  117CHL1   H1B14890   3.508   7.524   9.743 -3.5853  0.2985 -0.0190
  117CHL1    C214891   3.448   7.357   9.869 -0.2938 -0.6743  0.1819
  117CHL1   H2A14892   3.526   7.402   9.934 -1.1248  1.6418 -0.3184
  117CHL1   H2B14893   3.450   7.246   9.869  2.2225 -0.7579 -2.5237
  117CHL1   C2014894   3.589   7.656   9.007 -0.1678  0.9225 -0.3189
  117CHL1   H2014895   3.675   7.610   9.060 -0.7263  0.0237 -0.1700
  117CHL1   C2114896   3.641   7.800   8.983  0.1586  0.7870  0.4781
  117CHL1  H21A14897   3.735   7.804   8.923  0.4924 -0.8876  0.8378
  117CHL1  H21B14898   3.659   7.851   9.080  0.9520  2.3910 -0.4663
  117CHL1  H21C14899   3.564   7.862   8.933 -1.1019  1.7059  3.3970
  117CHL1   C2214900   3.557   7.571   8.878 -0.1865 -0.3239  0.4936
  117CHL1  H22A14901   3.516   7.472   8.907 -0.9247 -0.7614 -1.8177
  117CHL1  H22B14902   3.466   7.602   8.823  0.5255 -0.4248 -0.7847
  117CHL1   C2314903   3.672   7.561   8.773 -0.2849  0.7521  0.2268
  117CHL1  H23A14904   3.677   7.662   8.728 -1.9667 -0.6050 -3.3496
  117CHL1  H23B14905   3.770   7.527   8.813  0.2069 -0.7444 -2.1073
  117CHL1   C2414906   3.618   7.475   8.653  0.0016 -0.8787 -0.1891
  117CHL1  H24A14907   3.642   7.375   8.696 -0.7552 -0.6430  0.8226
  117CHL1  H24B14908   3.507   7.485   8.647 -0.1435 -1.4496  1.1934
  117CHL1   C2514909   3.689   7.478   8.516  0.3433 -0.1817  0.1852
  117CHL1   H2514910   3.696   7.575   8.463  1.2277 -0.7542 -0.7923
  117CHL1   C2614911   3.833   7.421   8.541 -1.0503  0.1157  0.5510
  117CHL1  H26A14912   3.863   7.513   8.596 -1.7930  0.5648  0.2310
  117CHL1  H26B14913   3.840   7.330   8.603 -0.4452 -0.5006 -0.4036
  117CHL1  H26C14914   3.897   7.417   8.450  0.2763  1.2644  1.3849
  117CHL1   C2714915   3.616   7.376   8.425  0.3361 -0.1803 -0.3453
  117CHL1  H27A14916   3.620   7.274   8.470 -1.4397  0.0155  0.2985
  117CHL1  H27B14917   3.513   7.414   8.411  0.7927  1.7011  0.9852
  117CHL1  H27C14918   3.661   7.388   8.324  0.3151  3.1319 -0.0575
  118CHL1    C314919   6.434   7.075   9.512  0.5326 -0.3533 -0.1652
  118CHL1    H314920   6.536   7.100   9.549  0.7888  1.4377 -1.8960
  118CHL1    O314921   6.356   7.027   9.621  0.3700  0.3871 -0.1302
  118CHL1   H3'14922   6.296   6.959   9.590 -0.0399  0.8614 -0.3930
  118CHL1    C414923   6.364   7.201   9.464  0.0942 -0.4297  0.1237
  118CHL1   H4A14924   6.261   7.174   9.432  1.0686 -0.8624 -2.9504
  118CHL1   H4B14925   6.344   7.282   9.538 -0.7889 -0.7377  0.2374
  118CHL1    C514926   6.441   7.254   9.342  0.2213  0.3656  0.1608
  118CHL1    C614927   6.489   7.383   9.341  0.3780  0.3041 -0.2415
  118CHL1    H614928   6.471   7.455   9.422 -0.9628 -0.3574  0.0779
  118CHL1    C714929   6.558   7.435   9.219 -0.0788  0.2153  0.4642
  118CHL1   H7A14930   6.520   7.539   9.208  3.3413  1.7322  1.8326
  118CHL1   H7B14931   6.668   7.443   9.233  0.2675  2.0809 -2.3345
  118CHL1    C814932   6.525   7.352   9.092 -0.2805  0.4627 -0.3058
  118CHL1    H814933   6.415   7.366   9.084 -0.6492 -1.8222  0.1751
  118CHL1   C1414934   6.599   7.404   8.966 -0.1933 -0.2941  0.0871
  118CHL1   H1414935   6.708   7.387   8.982 -0.1305 -0.4082 -0.4770
  118CHL1   C1514936   6.591   7.556   8.928 -0.1908  0.8724  0.0695
  118CHL1  H15A14937   6.488   7.591   8.951  0.2857  1.2944  1.7286
  118CHL1  H15B14938   6.671   7.610   8.984  0.8204  0.1081 -0.6109
  118CHL1   C1614939   6.617   7.554   8.777  0.3976 -0.2493  0.3837
  118CHL1  H16A14940   6.529   7.594   8.721  1.4503 -0.2250 -1.3017
  118CHL1  H16B14941   6.692   7.627   8.742  0.0142  0.6124  1.3190
  118CHL1   C1714942   6.626   7.408   8.725 -0.3829 -0.2475 -0.2763
  118CHL1   H1714943   6.730   7.371   8.729  0.1510  1.1821 -0.1677
  118CHL1   C1314944   6.563   7.323   8.839  0.2512 -1.1425  0.3229
  118CHL1   C1814945   6.405   7.333   8.818 -0.0128  0.9636  0.6705
  118CHL1  H18A14946   6.379   7.276   8.726 -0.4696  0.5406  1.0571
  118CHL1  H18B14947   6.346   7.292   8.902  0.7218  0.5213  0.9695
  118CHL1  H18C14948   6.354   7.431   8.804 -0.1933  0.6084 -1.5732
  118CHL1   C1214949   6.618   7.185   8.865 -0.5250  0.2937 -0.1602
  118CHL1  H12A14950   6.599   7.121   8.777 -0.9375 -0.3727  0.4007
  118CHL1  H12B14951   6.725   7.196   8.891 -0.4081 -0.8041 -0.1656
  118CHL1   C1114952   6.551   7.124   8.982 -0.1855 -0.1981 -0.4255
  118CHL1  H11A14953   6.444   7.106   8.956 -0.5557  0.1414  0.7791
  118CHL1  H11B14954   6.593   7.023   9.001 -1.7058 -0.7614  0.1556
  118CHL1    C914955   6.558   7.206   9.113 -0.0405  0.1052 -0.4381
  118CHL1    H914956   6.665   7.201   9.144 -0.6400 -1.8834  1.6124
  118CHL1   C1014957   6.455   7.150   9.223 -0.3072 -0.1034  0.1502
  118CHL1   C1914958   6.314   7.132   9.174  0.3382 -0.0644  0.0601
  118CHL1  H19A14959   6.241   7.097   9.249 -1.9320  1.3280 -1.3700
  118CHL1  H19B14960   6.280   7.224   9.121  1.1334 -0.0213 -0.3926
  118CHL1  H19C14961   6.312   7.050   9.099  1.7261  0.3913 -0.5095
  118CHL1    C114962   6.517   7.017   9.278  0.5571 -0.1522  0.2053
  118CHL1   H1A14963   6.508   6.940   9.199  0.5769 -0.1992  0.2496
  118CHL1   H1B14964   6.617   7.039   9.320  0.7246 -1.4262  0.5049
  118CHL1    C214965   6.446   6.966   9.406  0.5068  0.3918  0.2883
  118CHL1   H2A14966   6.508   6.883   9.446 -0.8224  0.0214  1.6514
  118CHL1   H2B14967   6.347   6.927   9.374  1.6134 -0.1142 -2.8591
  118CHL1   C2014968   6.587   7.389   8.569 -0.4463  0.0609 -0.0238
  118CHL1   H2014969   6.480   7.415   8.554 -0.4992 -0.2361 -0.1794
  118CHL1   C2114970   6.591   7.236   8.542 -0.0963 -0.7392 -0.1129
  118CHL1  H21A14971   6.500   7.197   8.594 -0.8140  0.5745 -0.3177
  118CHL1  H21B14972   6.686   7.193   8.580  2.0463  1.8155 -2.1939
  118CHL1  H21C14973   6.587   7.217   8.433  2.1270  0.8345 -0.5380
  118CHL1   C2214974   6.676   7.467   8.465 -0.5160  0.5915  0.3948
  118CHL1  H22A14975   6.698   7.574   8.487  2.8567  0.0765  0.0509
  118CHL1  H22B14976   6.776   7.419   8.471 -0.2189  0.8583 -1.7515
  118CHL1   C2314977   6.637   7.463   8.314  0.3229 -0.2228  0.2970
  118CHL1  H23A14978   6.621   7.357   8.285 -0.5246 -0.3843  1.2876
  118CHL1  H23B14979   6.540   7.517   8.309 -0.4659 -1.3951  2.1036
  118CHL1   C2414980   6.733   7.534   8.225 -0.0871  0.5288  0.0790
  118CHL1  H24A14981   6.763   7.631   8.270  0.1994  0.8543 -0.7900
  118CHL1  H24B14982   6.825   7.471   8.230 -0.4829 -0.0759 -0.1670
  118CHL1   C2514983   6.695   7.541   8.069 -0.1765 -0.2919  0.4340
  118CHL1   H2514984   6.662   7.438   8.042  0.9042 -0.4552 -0.3177
  118CHL1   C2614985   6.580   7.646   8.046 -0.0879  0.4056  1.0577
  118CHL1  H26A14986   6.620   7.749   8.057 -0.1652  0.9315 -2.5526
  118CHL1  H26B14987   6.539   7.639   7.943 -0.1628  3.5983  0.7686
  118CHL1  H26C14988   6.497   7.634   8.119 -0.0544 -0.0633  1.0239
  118CHL1   C2714989   6.821   7.569   7.987  0.2071 -0.2261 -0.1775
  118CHL1  H27A14990   6.899   7.497   8.020  2.0457  1.5322 -0.4956
  118CHL1  H27B14991   6.805   7.555   7.878  2.0813 -1.1237 -0.3818
  118CHL1  H27C14992   6.861   7.667   8.023  1.9106 -0.9842  0.1187
  119CHL1    C314993   1.022   7.370   9.678  1.1726 -0.2871 -0.0433
  119CHL1    H314994   0.956   7.288   9.712  0.2232  0.2716 -0.4759
  119CHL1    O314995   1.047   7.459   9.781  1.0080  0.1077 -0.0358
  119CHL1   H3'14996   1.082   7.406   9.853  2.9064  2.8019  1.2278
  119CHL1    C414997   1.156   7.315   9.614  0.7871 -0.0604 -0.0587
  119CHL1   H4A14998   1.220   7.406   9.615  1.0255 -0.2079  1.8637
  119CHL1   H4B14999   1.211   7.258   9.692  0.5544  1.6592  1.4306
  119CHL1    C515000   1.140   7.236   9.490  0.3532 -0.3350  0.7049
  119CHL1    C615001   1.191   7.115   9.484 -0.0089 -0.4964 -0.3558
  119CHL1    H615002   1.246   7.077   9.572 -0.6524  0.7234  0.6125
  119CHL1    C715003   1.193   7.036   9.360 -0.9079  0.5389  0.3706
  119CHL1   H7A15004   1.292   6.986   9.349 -1.3046 -0.1144 -0.2985
  119CHL1   H7B15005   1.108   6.966   9.373 -3.1364  3.2178  1.0371
  119CHL1    C815006   1.156   7.107   9.230 -0.1532  0.2095 -0.4594
  119CHL1    H815007   1.241   7.175   9.206  0.0596 -0.0009 -0.3026
  119CHL1   C1415008   1.123   7.025   9.112 -0.4732  0.1091 -0.3590
  119CHL1   H1415009   1.035   6.965   9.143 -0.2671  0.1163  0.2449
  119CHL1   C1515010   1.232   6.925   9.073  0.3143  0.0752  0.5871
  119CHL1  H15A15011   1.333   6.972   9.067 -0.6656  2.1163 -1.4203
  119CHL1  H15B15012   1.236   6.843   9.147  1.6767  0.7308  1.2802
  119CHL1   C1615013   1.189   6.868   8.937  0.3866  0.1132 -0.3525
  119CHL1  H16A15014   1.274   6.860   8.866  0.6220  0.6438 -0.1365
  119CHL1  H16B15015   1.138   6.770   8.948  0.9331  0.0081  1.5301
  119CHL1   C1715016   1.075   6.965   8.887 -0.2122  0.9980 -0.4851
  119CHL1   H1715017   0.979   6.917   8.919  0.7456 -0.6645  0.0126
  119CHL1   C1315018   1.081   7.096   8.982  0.5190 -0.2523 -0.3524
  119CHL1   C1815019   1.199   7.180   8.931  0.7337  0.5372 -0.4697
  119CHL1  H18A15020   1.176   7.216   8.828 -1.9565 -0.2639 -0.2355
  119CHL1  H18B15021   1.232   7.259   9.001 -0.2202  1.0697 -0.6013
  119CHL1  H18C15022   1.283   7.110   8.911 -0.8841 -1.2003 -1.6081
  119CHL1   C1215023   0.948   7.173   9.018 -0.2831  1.0601  0.5392
  119CHL1  H12A15024   0.915   7.236   8.933 -1.5296 -1.2651 -0.8175
  119CHL1  H12B15025   0.871   7.094   9.032  0.2982  0.6618  1.5850
  119CHL1   C1115026   0.972   7.263   9.138  0.4422  0.6159  0.4443
  119CHL1  H11A15027   1.052   7.336   9.114  2.9268 -1.8695  0.6704
  119CHL1  H11B15028   0.886   7.323   9.174 -0.1899  1.0259 -1.6398
  119CHL1    C915029   1.036   7.196   9.262  0.3982 -0.1170 -0.4058
  119CHL1    H915030   0.963   7.124   9.304  0.2720  0.0966 -0.2567
  119CHL1   C1015031   1.067   7.301   9.377 -0.1904 -0.0668  0.4603
  119CHL1   C1915032   1.167   7.412   9.328 -0.3169 -0.5577 -0.3438
  119CHL1  H19A15033   1.253   7.372   9.269 -1.8722 -0.4353 -2.8383
  119CHL1  H19B15034   1.112   7.465   9.247 -0.6512 -0.5491 -0.1159
  119CHL1  H19C15035   1.180   7.498   9.397  1.5971 -0.3791 -0.8718
  119CHL1    C115036   0.933   7.354   9.438  0.4648 -0.3131  0.6553
  119CHL1   H1A15037   0.889   7.420   9.360 -0.3016 -1.1923  0.3193
  119CHL1   H1B15038   0.858   7.272   9.443 -1.3383  1.1052 -1.4139
  119CHL1    C215039   0.942   7.446   9.561  0.7635  0.2198 -0.6305
  119CHL1   H2A15040   0.840   7.474   9.596  0.9321  1.5690 -1.1332
  119CHL1   H2B15041   1.000   7.538   9.537  2.4207 -1.1009 -1.9186
  119CHL1   C2015042   1.076   6.981   8.739 -0.0488 -0.5701  0.0816
  119CHL1   H2015043   1.175   7.016   8.703 -0.3012 -0.0884 -0.1388
  119CHL1   C2115044   0.970   7.081   8.693  0.2794 -0.5764  0.6526
  119CHL1  H21A15045   0.978   7.177   8.748  0.3384  0.2354 -0.7224
  119CHL1  H21B15046   0.872   7.046   8.729 -0.2996  0.3769  0.0504
  119CHL1  H21C15047   0.965   7.108   8.585  3.3624 -0.1212  0.5151
  119CHL1   C2215048   1.041   6.843   8.670 -0.5724  0.0051 -0.2706
  119CHL1  H22A15049   1.107   6.761   8.708 -1.0377  0.1257  0.8289
  119CHL1  H22B15050   0.940   6.805   8.698 -0.9480  0.7726 -0.5709
  119CHL1   C2315051   1.058   6.847   8.520  0.0698 -0.0287  0.4622
  119CHL1  H23A15052   0.971   6.901   8.477 -0.9756 -0.7687  1.5670
  119CHL1  H23B15053   1.156   6.895   8.504  0.7536 -0.6741  2.4747
  119CHL1   C2415054   1.050   6.712   8.455 -0.1761  0.8152 -0.0930
  119CHL1  H24A15055   1.128   6.653   8.506 -0.8100  0.7078  0.7716
  119CHL1  H24B15056   0.951   6.662   8.468  0.4019 -0.4528 -0.4784
  119CHL1   C2515057   1.096   6.709   8.303  0.0907 -0.7751 -0.5137
  119CHL1   H2515058   1.196   6.758   8.304 -1.0372  1.7196  0.7830
  119CHL1   C2615059   1.101   6.571   8.261 -0.0073 -0.0176  0.8075
  119CHL1  H26A15060   1.187   6.519   8.308  0.5474  1.7942  1.8956
  119CHL1  H26B15061   1.013   6.506   8.280 -0.9075  0.6429 -0.8569
  119CHL1  H26C15062   1.116   6.564   8.151  0.9174 -0.6274  0.9575
  119CHL1   C2715063   1.003   6.788   8.210  0.0481 -0.9894  0.3382
  119CHL1  H27A15064   1.061   6.782   8.116 -0.5572  0.2296 -0.1260
  119CHL1  H27B15065   0.897   6.754   8.205 -0.1789 -1.2360  3.9632
  119CHL1  H27C15066   0.995   6.894   8.241  0.4587 -0.9354  0.2605
  120CHL1    C315067   7.267   6.363   9.807 -0.7617  0.3529 -0.9833
  120CHL1    H315068   7.366   6.375   9.856 -1.5865  1.1261  0.6093
  120CHL1    O315069   7.197   6.297   9.904 -0.0189  0.1324 -0.2922
  120CHL1   H3'15070   7.256   6.230   9.939 -1.7359  0.0012  2.7520
  120CHL1    C415071   7.210   6.504   9.795  0.2902  0.3151 -0.0338
  120CHL1   H4A15072   7.100   6.498   9.784  0.4030 -0.0338 -1.0363
  120CHL1   H4B15073   7.238   6.554   9.891 -1.3329 -0.3226  0.8100
  120CHL1    C515074   7.260   6.582   9.672 -0.6073  0.4207  0.1573
  120CHL1    C615075   7.308   6.705   9.695 -0.2748  1.0696  0.2465
  120CHL1    H615076   7.305   6.733   9.802  1.4692 -0.6087  0.7892
  120CHL1    C715077   7.356   6.796   9.587 -0.7062  0.2081 -0.8738
  120CHL1   H7A15078   7.329   6.903   9.604  0.3221  0.3863 -0.2996
  120CHL1   H7B15079   7.466   6.785   9.593 -0.8751 -1.6605 -0.8465
  120CHL1    C815080   7.310   6.744   9.442 -0.4440 -0.0773 -0.4843
  120CHL1    H815081   7.206   6.780   9.426 -0.0142  2.0298  0.9515
  120CHL1   C1415082   7.389   6.811   9.328 -0.3471  0.5268 -0.0471
  120CHL1   H1415083   7.490   6.765   9.335 -0.3630 -0.2793 -3.4659
  120CHL1   C1515084   7.411   6.962   9.334  0.1033  0.3074 -0.8467
  120CHL1  H15A15085   7.306   6.986   9.362  0.6317  0.9123  0.6855
  120CHL1  H15B15086   7.497   6.983   9.401  0.3489 -1.6812 -0.4580
  120CHL1   C1615087   7.460   6.996   9.188  0.1792  0.2156 -0.9542
  120CHL1  H16A15088   7.386   7.071   9.152 -0.8869  0.2287  1.1174
  120CHL1  H16B15089   7.564   7.033   9.196  0.5731 -0.9434 -0.5573
  120CHL1   C1715090   7.452   6.865   9.104 -0.1122  0.7022  0.1417
  120CHL1   H1715091   7.546   6.806   9.105 -1.6854 -2.1129 -1.6833
  120CHL1   C1315092   7.352   6.775   9.188  0.1152 -0.3797 -0.6116
  120CHL1   C1815093   7.209   6.812   9.152  0.0237 -0.2237  0.1026
  120CHL1  H18A15094   7.182   6.780   9.049 -0.1178 -0.8932  0.3379
  120CHL1  H18B15095   7.135   6.764   9.219 -0.4802 -0.8440 -0.8708
  120CHL1  H18C15096   7.187   6.920   9.162 -0.3838 -0.1588 -1.2169
  120CHL1   C1215097   7.362   6.620   9.178  0.2085 -0.0963 -0.2188
  120CHL1  H12A15098   7.339   6.575   9.079 -2.0502 -0.4134  0.3933
  120CHL1  H12B15099   7.470   6.603   9.195 -0.2031 -2.9432 -0.0449
  120CHL1   C1115100   7.288   6.543   9.292 -0.3709  0.8302 -0.3944
  120CHL1  H11A15101   7.180   6.539   9.269 -0.1043 -0.2819 -1.5505
  120CHL1  H11B15102   7.319   6.437   9.281 -1.6542  0.3979  0.0061
  120CHL1    C915103   7.320   6.592   9.430 -0.2592 -0.2356  0.0529
  120CHL1    H915104   7.429   6.575   9.442 -0.8887 -3.4354  2.3909
  120CHL1   C1015105   7.253   6.506   9.539  0.5518 -0.2783  0.7630
  120CHL1   C1915106   7.100   6.493   9.505 -0.1060  0.0647  0.4489
  120CHL1  H19A15107   7.059   6.596   9.489  2.4009  1.0886  0.2269
  120CHL1  H19B15108   7.094   6.431   9.414 -3.0059 -0.1093  0.6656
  120CHL1  H19C15109   7.041   6.435   9.579 -1.1906 -1.2021 -1.3279
  120CHL1    C115110   7.322   6.371   9.555 -0.3594  0.3304 -0.2207
  120CHL1   H1A15111   7.310   6.323   9.455 -0.2534  2.1680 -1.1546
  120CHL1   H1B15112   7.432   6.388   9.561 -0.5786  1.5805  0.8295
  120CHL1    C215113   7.259   6.289   9.672 -0.5558 -0.7511  0.0662
  120CHL1   H2A15114   7.322   6.198   9.681 -0.6568 -0.8238  0.0447
  120CHL1   H2B15115   7.157   6.253   9.645 -1.5846  2.0003 -0.0534
  120CHL1   C2015116   7.431   6.894   8.952  0.1128  0.5589  0.9868
  120CHL1   H2015117   7.324   6.919   8.931  0.4836  2.7522  1.4472
  120CHL1   C2115118   7.461   6.760   8.883 -0.0842 -0.3980 -0.6844
  120CHL1  H21A15119   7.570   6.742   8.880  0.4949  2.0050  1.8901
  120CHL1  H21B15120   7.419   6.766   8.780 -0.3664  0.4548 -0.5256
  120CHL1  H21C15121   7.411   6.670   8.925  0.0659 -2.4112 -4.3551
  120CHL1   C2215122   7.516   7.005   8.898  0.0836  0.4202  0.2321
  120CHL1  H22A15123   7.472   7.102   8.930 -0.8279 -0.0106  0.3145
  120CHL1  H22B15124   7.624   7.006   8.925  0.0395 -0.8589  0.4800
  120CHL1   C2315125   7.510   7.017   8.747  0.4589  0.8660  0.5416
  120CHL1  H23A15126   7.534   6.924   8.693 -5.0919 -0.4200 -0.3378
  120CHL1  H23B15127   7.408   7.039   8.710  0.8064  1.9286  0.1546
  120CHL1   C2415128   7.594   7.143   8.706 -0.6914 -0.1042  0.1219
  120CHL1  H24A15129   7.563   7.244   8.741 -0.9323 -0.4519  0.9461
  120CHL1  H24B15130   7.687   7.129   8.764 -0.9810 -1.5913  0.2641
  120CHL1   C2515131   7.623   7.150   8.557  0.7622  0.1542  0.2728
  120CHL1   H2515132   7.653   7.046   8.530  0.8950  0.1588  0.3991
  120CHL1   C2615133   7.502   7.193   8.464  0.1250 -0.5057  0.1627
  120CHL1  H26A15134   7.462   7.291   8.497 -1.5746 -1.6383  1.6973
  120CHL1  H26B15135   7.558   7.202   8.369 -1.2027  1.2542 -0.4951
  120CHL1  H26C15136   7.413   7.127   8.460 -2.6878  3.0861 -1.6005
  120CHL1   C2715137   7.756   7.231   8.534  0.1391  0.0599  0.0884
  120CHL1  H27A15138   7.734   7.330   8.579  0.0881  0.7537 -1.4071
  120CHL1  H27B15139   7.846   7.186   8.581 -0.2424 -1.8992 -0.9547
  120CHL1  H27C15140   7.771   7.248   8.425  0.4261 -0.9745 -0.0408
  121CHL1    C315141   3.082   2.075   6.641  0.2365  0.4271  0.0588
  121CHL1    H315142   3.044   1.977   6.677 -0.1497  0.1696 -1.0000
  121CHL1    O315143   3.110   2.071   6.496  0.3660  0.1145 -0.0663
  121CHL1   H3'15144   3.162   1.994   6.472 -1.4904 -0.8163 -1.2959
  121CHL1    C415145   2.976   2.181   6.669 -0.7472 -1.3255  0.7144
  121CHL1   H4A15146   3.017   2.272   6.619  2.4397 -2.8174  0.3727
  121CHL1   H4B15147   2.881   2.166   6.614 -1.4016  1.7782  0.7671
  121CHL1    C515148   2.968   2.210   6.813  0.0288  0.2886 -0.3412
  121CHL1    C615149   2.846   2.200   6.864 -0.5826 -0.0500 -0.2120
  121CHL1    H615150   2.761   2.177   6.799  0.9876 -1.1413 -1.9685
  121CHL1    C715151   2.810   2.203   7.017 -0.6750 -0.2571  0.4302
  121CHL1   H7A15152   2.723   2.265   7.047 -0.8254 -0.2055 -0.1052
  121CHL1   H7B15153   2.783   2.099   7.048 -0.4000 -0.6467 -0.5989
  121CHL1    C815154   2.926   2.271   7.097 -0.5699  0.2368 -0.2514
  121CHL1    H815155   2.937   2.379   7.072  0.1848  0.9064  2.5948
  121CHL1   C1415156   2.918   2.259   7.249  0.3879  0.0479  0.1062
  121CHL1   H1415157   2.915   2.151   7.276 -1.9586 -0.1503 -0.6676
  121CHL1   C1515158   2.777   2.303   7.315  0.1053  0.5155 -0.5040
  121CHL1  H15A15159   2.755   2.406   7.278  1.7244  1.5467  1.2317
  121CHL1  H15B15160   2.699   2.226   7.295  0.7791  0.0706 -1.4961
  121CHL1   C1615161   2.815   2.308   7.464  0.2571 -1.0270 -0.2841
  121CHL1  H16A15162   2.787   2.410   7.496 -2.0629 -1.5095 -0.5876
  121CHL1  H16B15163   2.760   2.234   7.526 -0.5627  0.2334  0.5250
  121CHL1   C1715164   2.964   2.301   7.480  0.0592 -0.6162 -0.6370
  121CHL1   H1715165   2.990   2.194   7.499 -1.0273 -1.4976 -3.5300
  121CHL1   C1315166   3.020   2.329   7.334  0.2947 -0.6823  0.1270
  121CHL1   C1815167   3.014   2.477   7.309 -0.5112  0.0373 -0.1098
  121CHL1  H18A15168   2.915   2.529   7.313 -0.1886  0.6241  2.6648
  121CHL1  H18B15169   3.095   2.524   7.367 -1.3617 -0.9499  1.9910
  121CHL1  H18C15170   3.050   2.492   7.205 -0.8433 -1.2019 -0.4193
  121CHL1   C1215171   3.158   2.262   7.293  0.0730  0.2084  0.3274
  121CHL1  H12A15172   3.235   2.319   7.348  2.3291 -0.1627 -2.2725
  121CHL1  H12B15173   3.159   2.157   7.329  2.2245  0.1459  0.2165
  121CHL1   C1115174   3.182   2.261   7.142 -0.3361 -0.0792  0.0951
  121CHL1  H11A15175   3.183   2.369   7.119  1.4707 -0.5025 -2.1789
  121CHL1  H11B15176   3.286   2.225   7.124  0.4075  2.2712 -0.6475
  121CHL1    C915177   3.061   2.204   7.056  0.0587 -0.1166 -0.0297
  121CHL1    H915178   3.049   2.100   7.091  1.4627 -0.0521  0.7218
  121CHL1   C1015179   3.091   2.211   6.904 -0.1416 -0.0720 -0.7009
  121CHL1   C1915180   3.158   2.347   6.875 -0.2055  0.3787 -0.0565
  121CHL1  H19A15181   3.266   2.349   6.903 -0.7636  1.1680  2.2419
  121CHL1  H19B15182   3.168   2.358   6.765 -3.5993 -0.1501 -0.5199
  121CHL1  H19C15183   3.100   2.434   6.913  0.5862 -0.2006  2.6784
  121CHL1    C115184   3.186   2.101   6.859 -0.1709 -0.2994  0.3772
  121CHL1   H1A15185   3.281   2.122   6.912  1.6181  0.7830 -2.9367
  121CHL1   H1B15186   3.147   2.002   6.889  0.0978 -1.1015 -1.7162
  121CHL1    C215187   3.213   2.103   6.701 -0.1124  0.3540 -0.4977
  121CHL1   H2A15188   3.284   2.022   6.673 -2.1282 -1.2109 -1.2381
  121CHL1   H2B15189   3.259   2.201   6.675  0.9360  0.3631  1.2093
  121CHL1   C2015190   3.017   2.382   7.596  0.3670  0.0952 -0.5483
  121CHL1   H2015191   3.017   2.489   7.566 -0.3453  0.3634  0.3599
  121CHL1   C2115192   3.165   2.350   7.627  0.1948 -0.3209 -0.6268
  121CHL1  H21A15193   3.183   2.241   7.639  0.1657 -0.1871  0.8950
  121CHL1  H21B15194   3.213   2.403   7.713  1.0903  0.1491 -1.3940
  121CHL1  H21C15195   3.226   2.380   7.539  3.4223 -2.4689  0.6855
  121CHL1   C2215196   2.928   2.376   7.718  0.3655 -0.0588 -0.0740
  121CHL1  H22A15197   2.822   2.404   7.698 -0.6887 -3.2250  0.4075
  121CHL1  H22B15198   2.922   2.272   7.758 -3.7961  0.2255  0.5396
  121CHL1   C2315199   2.959   2.462   7.837  0.8105 -0.3494  0.4460
  121CHL1  H23A15200   3.064   2.439   7.867  0.2087  0.2360  3.2695
  121CHL1  H23B15201   2.963   2.572   7.819  2.1106 -0.5943 -0.9788
  121CHL1   C2415202   2.877   2.433   7.969 -0.3739 -0.3424 -0.4449
  121CHL1  H24A15203   2.773   2.459   7.941  0.2815  0.0944 -2.6812
  121CHL1  H24B15204   2.887   2.325   7.994 -1.7184  0.0806  2.2547
  121CHL1   C2515205   2.929   2.525   8.083  0.4974 -0.2492 -0.0755
  121CHL1   H2515206   2.917   2.627   8.043  0.1319 -0.0788  0.4562
  121CHL1   C2615207   2.832   2.520   8.201 -0.4798 -0.5590 -0.4466
  121CHL1  H26A15208   2.785   2.419   8.208 -1.8131  0.1612  2.2991
  121CHL1  H26B15209   2.890   2.552   8.289 -1.6759  1.8509 -0.4679
  121CHL1  H26C15210   2.748   2.592   8.196 -0.7298 -0.6498  1.5999
  121CHL1   C2715211   3.075   2.504   8.129 -1.1035 -0.5929  0.1851
  121CHL1  H27A15212   3.098   2.398   8.154  0.4161 -0.5106 -0.7499
  121CHL1  H27B15213   3.143   2.524   8.043 -0.1500 -2.7923  0.3453
  121CHL1  H27C15214   3.096   2.572   8.214 -1.2055  1.4740 -1.3816
  122CHL1    C315215   2.385   2.863   6.691  0.3637 -0.4406 -0.7044
  122CHL1    H315216   2.379   2.760   6.730 -0.1225  0.2022  1.0421
  122CHL1    O315217   2.390   2.847   6.552  0.4684  0.2253  0.3070
  122CHL1   H3'15218   2.476   2.865   6.513 -0.2348  1.5823 -0.6703
  122CHL1    C415219   2.254   2.945   6.727 -0.3007  0.3457 -0.0589
  122CHL1   H4A15220   2.250   3.040   6.670 -0.4502  1.1579  1.2502
  122CHL1   H4B15221   2.168   2.888   6.685 -1.4247  1.4926  0.5884
  122CHL1    C515222   2.236   2.977   6.875 -0.1170  0.2181  0.3938
  122CHL1    C615223   2.128   2.927   6.938 -0.2618  0.3573  0.1996
  122CHL1    H615224   2.047   2.895   6.870  0.8152 -0.0514 -0.9222
  122CHL1    C715225   2.108   2.933   7.089  0.6326 -0.1427  0.4028
  122CHL1   H7A15226   2.004   2.972   7.099  1.4584  2.8203 -1.2715
  122CHL1   H7B15227   2.102   2.836   7.142  3.9430  1.0718  3.3018
  122CHL1    C815228   2.208   3.027   7.156 -0.5540  0.3189 -0.4654
  122CHL1    H815229   2.180   3.128   7.119  1.6463  1.1012 -0.1600
  122CHL1   C1415230   2.207   3.013   7.308 -0.2653  0.3408  0.4054
  122CHL1   H1415231   2.233   2.909   7.334 -0.7176  0.1537  0.1234
  122CHL1   C1515232   2.068   3.039   7.373 -0.0104  0.6728 -0.4328
  122CHL1  H15A15233   2.002   3.109   7.318 -0.6668 -0.7585 -1.5500
  122CHL1  H15B15234   2.024   2.937   7.372  2.4406 -0.4942  0.3873
  122CHL1   C1615235   2.104   3.079   7.518  0.2315  0.2015 -0.2724
  122CHL1  H16A15236   2.047   3.170   7.547  0.7279  1.0392 -1.8583
  122CHL1  H16B15237   2.079   2.995   7.587  2.7121  0.3648  0.9242
  122CHL1   C1715238   2.258   3.091   7.521 -0.0047 -0.2853 -0.1279
  122CHL1   H1715239   2.286   2.987   7.550  0.9956  0.1178  0.4018
  122CHL1   C1315240   2.311   3.105   7.377 -0.1589 -0.1547 -0.3697
  122CHL1   C1815241   2.286   3.255   7.350 -0.5876 -0.0354 -0.0598
  122CHL1  H18A15242   2.308   3.287   7.246  0.5336  1.3153  0.5574
  122CHL1  H18B15243   2.178   3.274   7.366 -0.2268  1.2551  0.9881
  122CHL1  H18C15244   2.349   3.331   7.400 -1.0350  1.5991 -1.8306
  122CHL1   C1215245   2.449   3.062   7.340 -0.2263  0.1118  0.4863
  122CHL1  H12A15246   2.534   3.114   7.389 -0.0458  1.3896 -1.0828
  122CHL1  H12B15247   2.465   2.953   7.351  2.2578  0.3251 -0.3414
  122CHL1   C1115248   2.464   3.071   7.189  0.6224 -0.2910  0.1187
  122CHL1  H11A15249   2.479   3.178   7.162 -1.2373 -0.1324 -0.4830
  122CHL1  H11B15250   2.554   3.017   7.155  0.3364 -0.7702  0.1120
  122CHL1    C915251   2.351   3.007   7.108  0.8120  0.1571 -0.4983
  122CHL1    H915252   2.370   2.899   7.122 -1.9631 -0.1768  1.5116
  122CHL1   C1015253   2.370   3.028   6.950  0.2115 -0.0941 -0.0213
  122CHL1   C1915254   2.389   3.178   6.920 -0.2757  0.6090 -0.0707
  122CHL1  H19A15255   2.307   3.238   6.967 -0.8969  0.6797 -1.2250
  122CHL1  H19B15256   2.488   3.208   6.961  1.1083 -1.8431 -1.4289
  122CHL1  H19C15257   2.394   3.199   6.811  0.6457 -1.4775 -0.4579
  122CHL1    C115258   2.496   2.960   6.899  0.5237 -0.3778  0.5615
  122CHL1   H1A15259   2.589   3.014   6.924  1.4000 -0.7867 -1.6506
  122CHL1   H1B15260   2.509   2.858   6.942  0.8140 -1.4603 -1.9455
  122CHL1    C215261   2.506   2.939   6.750 -0.1332 -0.0569 -0.4952
  122CHL1   H2A15262   2.597   2.883   6.719  1.3686  3.2718 -2.5790
  122CHL1   H2B15263   2.501   3.037   6.698 -1.4246 -0.2668 -0.7994
  122CHL1   C2015264   2.316   3.197   7.631 -0.0907 -0.1272  0.5242
  122CHL1   H2015265   2.408   3.246   7.595 -0.8965  2.9917  2.3359
  122CHL1   C2115266   2.351   3.116   7.751  0.2579 -0.0052 -0.1010
  122CHL1  H21A15267   2.414   3.169   7.826 -0.3886 -1.0798  1.2510
  122CHL1  H21B15268   2.397   3.017   7.730 -0.4918 -0.3922  0.0479
  122CHL1  H21C15269   2.251   3.093   7.795 -0.1373 -0.7010 -1.3198
  122CHL1   C2215270   2.229   3.326   7.663  0.8447 -0.6441 -0.7485
  122CHL1  H22A15271   2.170   3.370   7.579  0.4611  1.4061  0.5338
  122CHL1  H22B15272   2.158   3.294   7.742  0.7750 -0.2370 -0.6486
  122CHL1   C2315273   2.310   3.443   7.720 -0.5073 -0.4335 -0.1603
  122CHL1  H23A15274   2.371   3.423   7.811 -1.6911  1.7442  1.2121
  122CHL1  H23B15275   2.384   3.474   7.643  0.6516  0.7860  1.3778
  122CHL1   C2415276   2.215   3.567   7.740  0.3384 -0.8682 -0.1219
  122CHL1  H24A15277   2.166   3.618   7.654 -2.6505 -0.7136  1.5205
  122CHL1  H24B15278   2.137   3.520   7.805  1.4662 -0.2795  1.7490
  122CHL1   C2515279   2.283   3.682   7.822  0.0992  0.1921 -0.4893
  122CHL1   H2515280   2.367   3.709   7.755 -0.2445 -0.7593 -1.3211
  122CHL1   C2615281   2.201   3.806   7.851 -0.3367  0.3451  0.5691
  122CHL1  H26A15282   2.150   3.839   7.758  0.2507  1.6313  0.6784
  122CHL1  H26B15283   2.133   3.780   7.935 -0.2331  0.5350  0.7142
  122CHL1  H26C15284   2.276   3.882   7.883 -1.3313  0.5132  2.6662
  122CHL1   C2715285   2.334   3.636   7.958 -0.7088 -0.5354 -0.1153
  122CHL1  H27A15286   2.430   3.582   7.944  1.3940  2.5752  1.3316
  122CHL1  H27B15287   2.351   3.726   8.020 -1.0709 -2.0028  2.2318
  122CHL1  H27C15288   2.260   3.576   8.015  1.5884  0.3177  4.1206
  123CHL1    C315289   3.775   2.885   6.540 -0.5255 -0.2912 -1.0539
  123CHL1    H315290   3.667   2.908   6.522 -1.0827 -1.8478  0.0433
  123CHL1    O315291   3.838   2.881   6.420  0.3111  0.4104  0.3968
  123CHL1   H3'15292   3.809   2.959   6.373 -0.1232  0.2900  0.4611
  123CHL1    C415293   3.842   3.006   6.615  0.0581  0.0539 -0.5176
  123CHL1   H4A15294   3.953   3.003   6.616  0.1628  2.2314  1.4319
  123CHL1   H4B15295   3.813   3.093   6.552 -1.8850 -0.0104  0.2281
  123CHL1    C515296   3.789   3.004   6.753 -0.1200 -0.8789  0.1809
  123CHL1    C615297   3.720   3.108   6.800  0.3048 -0.5133  0.7092
  123CHL1    H615298   3.696   3.199   6.741  1.3340 -0.3030  0.5942
  123CHL1    C715299   3.654   3.095   6.938  0.0647 -0.0994  0.0603
  123CHL1   H7A15300   3.624   3.197   6.970 -0.1596 -0.0647 -0.2643
  123CHL1   H7B15301   3.564   3.034   6.916  0.5647 -0.1719 -2.0058
  123CHL1    C815302   3.750   3.030   7.036  0.7859  0.0143  0.3078
  123CHL1    H815303   3.843   3.091   7.035 -0.0673  1.4189 -2.9686
  123CHL1   C1415304   3.695   3.034   7.180  0.0104 -0.3373  0.4601
  123CHL1   H1415305   3.605   2.968   7.183  0.4426 -0.9327  3.8167
  123CHL1   C1515306   3.678   3.170   7.249  0.0631 -0.0736 -0.2792
  123CHL1  H15A15307   3.765   3.238   7.237 -2.0172  2.4030 -2.7217
  123CHL1  H15B15308   3.593   3.233   7.214  0.6824  1.7703  1.3393
  123CHL1   C1615309   3.664   3.132   7.391 -0.4919 -0.4207  0.0560
  123CHL1  H16A15310   3.716   3.204   7.458 -2.5922  1.1929  0.0730
  123CHL1  H16B15311   3.557   3.131   7.425 -0.0720 -1.1607  1.4699
  123CHL1   C1715312   3.708   2.984   7.410 -0.4960  0.5794 -0.2515
  123CHL1   H1715313   3.624   2.911   7.407 -0.0992  0.0863  0.1964
  123CHL1   C1315314   3.788   2.960   7.279 -0.4960  0.4488 -0.3064
  123CHL1   C1815315   3.931   3.025   7.286 -0.3866  0.3633  0.5674
  123CHL1  H18A15316   3.975   3.035   7.185  1.3798 -0.2060  1.2303
  123CHL1  H18B15317   3.923   3.124   7.336 -0.1452  1.4454 -1.4479
  123CHL1  H18C15318   3.990   2.955   7.350 -1.0684 -1.2549 -0.5184
  123CHL1   C1215319   3.804   2.816   7.235 -0.0686  0.3519 -0.0471
  123CHL1  H12A15320   3.878   2.768   7.303 -2.1791 -1.2594  1.2149
  123CHL1  H12B15321   3.707   2.763   7.243 -0.4513  1.2212  1.6795
  123CHL1   C1115322   3.865   2.814   7.088 -0.2500  0.0420  0.6678
  123CHL1  H11A15323   3.970   2.850   7.093  0.2466 -0.7440 -2.1144
  123CHL1  H11B15324   3.862   2.707   7.057 -1.0343  0.3471 -0.3680
  123CHL1    C915325   3.784   2.892   6.991  0.4930  0.3305 -0.1928
  123CHL1    H915326   3.686   2.841   6.997  0.7804 -0.1365  0.6985
  123CHL1   C1015327   3.821   2.878   6.842 -0.3859 -0.6825 -0.1606
  123CHL1   C1915328   3.974   2.869   6.842  0.3137  0.6841  0.3713
  123CHL1  H19A15329   4.010   2.782   6.902 -0.4340 -0.5594 -0.9189
  123CHL1  H19B15330   4.020   2.837   6.746 -0.1112 -2.0454  1.0057
  123CHL1  H19C15331   4.030   2.957   6.880  2.3955  0.8169 -2.6148
  123CHL1    C115332   3.761   2.755   6.770 -0.2071 -0.1289  0.4806
  123CHL1   H1A15333   3.802   2.661   6.813 -2.3752 -1.1274  0.5173
  123CHL1   H1B15334   3.652   2.745   6.788  0.1440 -3.3456  1.4232
  123CHL1    C215335   3.793   2.750   6.616  0.0770  0.2502 -0.3759
  123CHL1   H2A15336   3.733   2.668   6.569  0.1110  0.5971 -1.0428
  123CHL1   H2B15337   3.901   2.728   6.601  0.0914  0.4934 -0.6460
  123CHL1   C2015338   3.786   2.944   7.542  0.6705  0.0837  0.0433
  123CHL1   H2015339   3.897   2.948   7.534  0.7452 -0.3389  0.7903
  123CHL1   C2115340   3.761   2.792   7.575 -0.2677 -0.1302  0.6810
  123CHL1  H21A15341   3.848   2.744   7.627  2.0331 -0.0173 -2.7560
  123CHL1  H21B15342   3.755   2.723   7.489 -0.2592 -0.5609  1.0187
  123CHL1  H21C15343   3.666   2.776   7.629 -0.0579 -0.7680  0.8704
  123CHL1   C2215344   3.735   3.020   7.663 -0.5673 -0.5232 -1.0313
  123CHL1  H22A15345   3.624   3.020   7.656 -0.6903  0.1783  0.4915
  123CHL1  H22B15346   3.760   2.950   7.746  0.8099  0.3936 -0.6257
  123CHL1   C2315347   3.800   3.161   7.707  0.2251  0.4896  0.2465
  123CHL1  H23A15348   3.905   3.156   7.671  0.0047 -0.5916 -0.2903
  123CHL1  H23B15349   3.743   3.243   7.658 -0.2591 -0.5669 -1.0531
  123CHL1   C2415350   3.789   3.180   7.855 -0.3579  0.1646  0.4260
  123CHL1  H24A15351   3.824   3.083   7.898 -0.0187 -0.6814 -1.6237
  123CHL1  H24B15352   3.869   3.255   7.871 -0.9406  0.8910 -0.0300
  123CHL1   C2515353   3.661   3.238   7.908  0.1247  0.0622 -0.4372
  123CHL1   H2515354   3.573   3.183   7.867  1.1214 -1.2168 -0.9103
  123CHL1   C2615355   3.665   3.235   8.063  0.2555  0.6252  0.5756
  123CHL1  H26A15356   3.761   3.280   8.097  1.7648 -2.5017  0.8512
  123CHL1  H26B15357   3.581   3.293   8.105  0.2655 -0.3779  2.0495
  123CHL1  H26C15358   3.640   3.132   8.097 -4.2379  1.2152 -0.3453
  123CHL1   C2715359   3.646   3.391   7.874  0.2056  0.2761  0.1972
  123CHL1  H27A15360   3.545   3.420   7.907 -0.1489 -0.9510  0.2317
  123CHL1  H27B15361   3.727   3.444   7.929  1.4978  1.7290 -2.8297
  123CHL1  H27C15362   3.639   3.404   7.764  1.5143 -0.6699 -0.0218
  124CHL1    C315363   2.808   3.423   6.935  0.6537 -0.0704 -0.3376
  124CHL1    H315364   2.808   3.530   6.906  1.1619  0.9658  3.0734
  124CHL1    O315365   2.810   3.338   6.823 -0.0277 -0.5055  0.0163
  124CHL1   H3'15366   2.748   3.370   6.757  1.9467  1.3254 -1.0564
  124CHL1    C415367   2.923   3.389   7.033  0.0268 -0.2277 -0.1310
  124CHL1   H4A15368   2.918   3.278   7.046 -1.5041 -0.2993 -1.0448
  124CHL1   H4B15369   3.017   3.416   6.979 -0.3544  0.4440 -0.4635
  124CHL1    C515370   2.914   3.467   7.160 -0.1694  1.2438 -0.0178
  124CHL1    C615371   3.029   3.516   7.212 -0.2492  0.2245  0.5244
  124CHL1    H615372   3.126   3.512   7.159  1.4251 -3.8862  3.3752
  124CHL1    C715373   3.046   3.578   7.348  0.6185  0.3457  0.5850
  124CHL1   H7A15374   3.131   3.524   7.395  0.8771 -0.0427 -0.2923
  124CHL1   H7B15375   3.064   3.687   7.337  1.6683  0.3202  1.8331
  124CHL1    C815376   2.924   3.564   7.442 -0.0296  0.2214  0.0712
  124CHL1    H815377   2.940   3.472   7.502  0.0767  0.0672 -0.1889
  124CHL1   C1415378   2.917   3.675   7.542 -0.9020  0.2317 -0.1898
  124CHL1   H1415379   2.906   3.765   7.478  0.0984 -1.2167 -2.5369
  124CHL1   C1515380   3.043   3.700   7.626  0.4341  0.0704  0.5531
  124CHL1  H15A15381   3.087   3.599   7.638  0.5572 -0.0772 -0.9060
  124CHL1  H15B15382   3.116   3.767   7.575  0.6363 -0.1674  0.5266
  124CHL1   C1615383   2.990   3.756   7.753  0.4538 -0.1461  0.4949
  124CHL1  H16A15384   3.006   3.685   7.837 -0.0924 -1.8562 -0.8038
  124CHL1  H16B15385   3.028   3.858   7.776  0.2854 -0.2518  1.2917
  124CHL1   C1715386   2.834   3.777   7.731  0.8917 -0.3644  0.1264
  124CHL1   H1715387   2.827   3.871   7.673  2.3123  0.8247  1.7648
  124CHL1   C1315388   2.802   3.669   7.635 -0.1336  0.3245  0.2238
  124CHL1   C1815389   2.807   3.536   7.715 -0.0307  0.0076 -0.2086
  124CHL1  H18A15390   2.721   3.536   7.784  0.1668  2.0349  0.0932
  124CHL1  H18B15391   2.790   3.445   7.653  0.9143 -0.3265  0.0115
  124CHL1  H18C15392   2.903   3.507   7.761  0.7319 -0.4884 -2.0104
  124CHL1   C1215393   2.665   3.672   7.559 -0.5263  0.4576  0.6528
  124CHL1  H12A15394   2.579   3.662   7.629  0.0153 -2.4444  1.0286
  124CHL1  H12B15395   2.659   3.774   7.515  0.1580  0.0210 -0.5028
  124CHL1   C1115396   2.662   3.563   7.446  0.1767 -0.5099  0.2561
  124CHL1  H11A15397   2.641   3.462   7.488 -1.0712 -0.5373 -0.3944
  124CHL1  H11B15398   2.578   3.590   7.378  1.2430 -0.7068 -1.1949
  124CHL1    C915399   2.788   3.565   7.357  0.6820 -0.6250 -0.3869
  124CHL1    H915400   2.801   3.668   7.317 -1.3823 -0.9556 -2.0895
  124CHL1   C1015401   2.782   3.461   7.238 -0.4223  0.5825  0.4870
  124CHL1   C1915402   2.751   3.318   7.300  0.0879  0.9065 -0.4414
  124CHL1  H19A15403   2.771   3.234   7.230  0.0954 -0.4165  1.0999
  124CHL1  H19B15404   2.820   3.302   7.386  0.6050  0.1451 -0.9794
  124CHL1  H19C15405   2.649   3.311   7.343  0.7094 -1.8354  0.8027
  124CHL1    C115406   2.666   3.486   7.144  0.0744  0.5512  0.6398
  124CHL1   H1A15407   2.566   3.487   7.192 -0.0819  3.8107  0.5048
  124CHL1   H1B15408   2.673   3.590   7.103 -3.8448 -0.3348 -2.9956
  124CHL1    C215409   2.677   3.401   7.013 -0.0587 -0.3310  0.3689
  124CHL1   H2A15410   2.590   3.426   6.948 -0.9188 -0.5787  1.3988
  124CHL1   H2B15411   2.663   3.294   7.039 -1.5689 -0.2693 -0.1067
  124CHL1   C2015412   2.747   3.800   7.857  0.3416 -0.2881 -0.2691
  124CHL1   H2015413   2.721   3.697   7.891  1.3534 -0.9521 -1.4256
  124CHL1   C2115414   2.614   3.882   7.828  0.1291  0.7269 -0.8959
  124CHL1  H21A15415   2.563   3.891   7.927  1.3248  2.4576 -0.3980
  124CHL1  H21B15416   2.548   3.821   7.762  0.1906 -1.4924  0.9764
  124CHL1  H21C15417   2.634   3.978   7.777 -0.6399  1.9300  0.9424
  124CHL1   C2215418   2.827   3.871   7.969 -0.6460 -0.4746 -0.7481
  124CHL1  H22A15419   2.930   3.830   7.978 -0.3231  0.6794  1.8934
  124CHL1  H22B15420   2.853   3.976   7.945  0.8718 -1.0305 -1.6496
  124CHL1   C2315421   2.765   3.854   8.106 -0.0119  0.4445 -0.1612
  124CHL1  H23A15422   2.658   3.886   8.099 -0.5410 -1.5505 -2.8030
  124CHL1  H23B15423   2.763   3.746   8.133 -2.9442  0.6838  1.0149
  124CHL1   C2415424   2.842   3.946   8.200 -0.4476 -0.0866 -0.5438
  124CHL1  H24A15425   2.948   3.912   8.203 -0.3203  0.2435  3.6160
  124CHL1  H24B15426   2.850   4.045   8.150 -2.3536 -1.5059 -4.0936
  124CHL1   C2515427   2.781   3.948   8.341  0.3124  0.1747  0.2576
  124CHL1   H2515428   2.740   3.847   8.363 -2.1688  1.5806  2.8311
  124CHL1   C2615429   2.873   3.992   8.455 -0.4572  0.5128 -0.1604
  124CHL1  H26A15430   2.822   3.990   8.553 -0.4205  0.9712 -0.1276
  124CHL1  H26B15431   2.951   3.914   8.467 -0.0107  1.1712  1.5052
  124CHL1  H26C15432   2.916   4.094   8.447 -0.6578  0.7296  1.2160
  124CHL1   C2715433   2.654   4.032   8.345 -0.0216 -0.0699 -0.2104
  124CHL1  H27A15434   2.600   3.989   8.432 -0.0267 -2.7628 -1.4302
  124CHL1  H27B15435   2.674   4.141   8.347  0.9974 -0.2509  0.8891
  124CHL1  H27C15436   2.588   4.016   8.257 -1.0051 -1.0709  0.6861
  125CHL1    C315437   3.144   3.661   6.721  0.5769 -0.0387  0.0569
  125CHL1    H315438   3.103   3.580   6.786  2.4207 -1.4077 -0.3782
  125CHL1    O315439   3.188   3.604   6.601 -0.6561  0.2993 -0.3492
  125CHL1   H3'15440   3.117   3.619   6.539 -0.1492 -3.1524 -2.0232
  125CHL1    C415441   3.025   3.766   6.689  0.4544 -0.1462 -0.4970
  125CHL1   H4A15442   3.064   3.834   6.611  2.4358  1.4289  1.7201
  125CHL1   H4B15443   2.944   3.709   6.640 -1.0169  0.0867  1.5673
  125CHL1    C515444   2.973   3.832   6.814 -0.2033  0.4466 -1.3193
  125CHL1    C615445   2.842   3.818   6.845 -0.2690 -0.3923 -0.1613
  125CHL1    H615446   2.789   3.749   6.778 -0.6337  0.6089 -0.9369
  125CHL1    C715447   2.791   3.872   6.973  0.0428  0.3251 -0.5533
  125CHL1   H7A15448   2.692   3.921   6.961 -0.0829  0.2012 -0.0394
  125CHL1   H7B15449   2.787   3.782   7.038 -2.0248 -0.4122 -1.6350
  125CHL1    C815450   2.885   3.975   7.046 -0.1160 -0.2528  0.4317
  125CHL1    H815451   2.889   4.074   6.996  2.6114 -0.7558 -0.4884
  125CHL1   C1415452   2.830   3.997   7.192  0.1774 -0.6696  0.4651
  125CHL1   H1415453   2.819   3.896   7.237  0.2628 -1.2437 -0.7334
  125CHL1   C1515454   2.693   4.063   7.210  0.9924  0.1179 -0.5418
  125CHL1  H15A15455   2.689   4.142   7.133 -1.1940  2.2489  1.5886
  125CHL1  H15B15456   2.612   3.987   7.205  0.9251 -0.0337  1.8135
  125CHL1   C1615457   2.696   4.123   7.357  0.6522 -0.2286 -0.3880
  125CHL1  H16A15458   2.682   4.233   7.356 -2.4594 -0.4813  1.8927
  125CHL1  H16B15459   2.613   4.088   7.420 -1.3700 -0.9137 -3.2185
  125CHL1   C1715460   2.835   4.085   7.406  0.5504  0.2013 -0.8177
  125CHL1   H1715461   2.832   3.984   7.452  1.3783 -0.2344 -1.6856
  125CHL1   C1315462   2.923   4.074   7.278 -1.0908  0.0143  0.0062
  125CHL1   C1815463   2.940   4.222   7.218 -0.4480 -0.1320 -1.1465
  125CHL1  H18A15464   3.004   4.223   7.127 -0.2104 -1.6820 -1.0304
  125CHL1  H18B15465   2.842   4.261   7.184  0.9702  2.8611 -2.1365
  125CHL1  H18C15466   2.991   4.293   7.286 -1.5783 -1.7614  1.5777
  125CHL1   C1215467   3.056   4.002   7.289  0.6543  0.7949 -0.1367
  125CHL1  H12A15468   3.129   4.055   7.353 -0.8451  0.6083  1.8117
  125CHL1  H12B15469   3.034   3.898   7.322  0.1533  0.6262 -0.9697
  125CHL1   C1115470   3.123   3.969   7.155 -0.3349 -0.0424  0.7316
  125CHL1  H11A15471   3.160   4.063   7.110  0.6974 -1.3957 -1.4266
  125CHL1  H11B15472   3.210   3.900   7.165  0.9584  1.5746  1.0653
  125CHL1    C915473   3.025   3.908   7.055 -0.2632  0.0395  0.1338
  125CHL1    H915474   3.006   3.806   7.094  1.2111 -0.6256 -0.7957
  125CHL1   C1015475   3.083   3.874   6.911 -0.0035 -0.1279 -0.0177
  125CHL1   C1915476   3.135   4.004   6.856 -0.0500 -0.2892 -0.5560
  125CHL1  H19A15477   3.049   4.074   6.857 -0.1837 -0.4362  1.3548
  125CHL1  H19B15478   3.217   4.050   6.916 -0.4753 -1.0941  0.6641
  125CHL1  H19C15479   3.166   3.997   6.749 -1.9665 -1.7868 -1.0664
  125CHL1    C115480   3.202   3.778   6.935 -0.4259  0.2752  0.0142
  125CHL1   H1A15481   3.280   3.838   6.986  0.3822  2.2216 -3.1895
  125CHL1   H1B15482   3.165   3.690   6.991 -1.4348  0.3641 -0.4726
  125CHL1    C215483   3.259   3.718   6.800 -0.3790  0.0185  0.2391
  125CHL1   H2A15484   3.352   3.661   6.818 -0.8466 -0.7006  0.3990
  125CHL1   H2B15485   3.293   3.806   6.740  0.6844  0.1631  1.0302
  125CHL1   C2015486   2.885   4.171   7.528  0.2983  0.2008  0.6625
  125CHL1   H2015487   2.914   4.271   7.487  3.1220 -1.3013 -1.3092
  125CHL1   C2115488   3.017   4.112   7.599 -0.4946 -0.9068  0.1219
  125CHL1  H21A15489   3.040   4.159   7.697  3.2799 -0.0475 -1.0246
  125CHL1  H21B15490   3.106   4.120   7.534 -0.0998 -2.3417  0.4469
  125CHL1  H21C15491   3.020   4.005   7.630  1.7354 -0.6951  0.8182
  125CHL1   C2215492   2.782   4.193   7.644  0.6879  0.3898 -0.0114
  125CHL1  H22A15493   2.675   4.200   7.616 -0.4021  2.3303  3.9395
  125CHL1  H22B15494   2.774   4.102   7.706  2.8009  0.8401  1.0136
  125CHL1   C2315495   2.803   4.316   7.731 -0.2636 -0.2935 -0.1853
  125CHL1  H23A15496   2.907   4.335   7.765  0.0479 -1.4241 -0.4750
  125CHL1  H23B15497   2.774   4.397   7.661  1.8142  0.8780  0.2351
  125CHL1   C2415498   2.725   4.304   7.859 -0.1558  1.0212  0.0315
  125CHL1  H24A15499   2.615   4.295   7.843 -0.5260 -1.8923  3.0033
  125CHL1  H24B15500   2.759   4.209   7.907  0.9747  1.4870  0.1692
  125CHL1   C2515501   2.750   4.412   7.965 -0.1514 -0.0863 -1.0814
  125CHL1   H2515502   2.856   4.399   7.997 -0.6460  0.1187  0.7128
  125CHL1   C2615503   2.735   4.556   7.915  0.0834 -0.0430 -0.2384
  125CHL1  H26A15504   2.641   4.565   7.855  0.2766 -1.6595 -0.8349
  125CHL1  H26B15505   2.730   4.620   8.005 -0.7164  0.0362 -0.3224
  125CHL1  H26C15506   2.826   4.577   7.855  2.7299 -2.7262  2.5649
  125CHL1   C2715507   2.660   4.388   8.088  0.3857 -0.0615  0.3578
  125CHL1  H27A15508   2.562   4.339   8.067  0.1789  1.0745 -1.5780
  125CHL1  H27B15509   2.696   4.306   8.153  0.5318  1.2342  1.9610
  125CHL1  H27C15510   2.654   4.477   8.153 -0.9072 -0.4860  0.8480
  126CHL1    C315511   0.597   4.079   7.011 -0.3720 -0.6580 -0.0892
  126CHL1    H315512   0.620   3.982   7.061  0.6278 -0.1495  0.4877
  126CHL1    O315513   0.677   4.096   6.902 -0.0239  0.3099  0.2949
  126CHL1   H3'15514   0.637   4.049   6.828 -0.9053 -1.5958  1.8805
  126CHL1    C415515   0.450   4.063   6.964 -0.7734 -0.1008  0.1145
  126CHL1   H4A15516   0.411   4.155   6.917 -1.2860 -0.6207 -0.4843
  126CHL1   H4B15517   0.444   3.977   6.895 -0.2455 -2.2476  2.5928
  126CHL1    C515518   0.360   4.028   7.081  0.1698 -0.2783  0.4446
  126CHL1    C615519   0.259   3.936   7.070 -0.2482  0.4481 -0.6416
  126CHL1    H615520   0.244   3.885   6.973  1.4905  0.3901 -0.9141
  126CHL1    C715521   0.169   3.912   7.184  0.3078 -0.1819  0.1677
  126CHL1   H7A15522   0.066   3.939   7.153  1.0746  2.4988 -0.3181
  126CHL1   H7B15523   0.175   3.802   7.199 -1.7567 -0.2766  0.5874
  126CHL1    C815524   0.201   3.978   7.318  0.3565 -0.0481  0.5792
  126CHL1    H815525   0.130   4.063   7.316  1.5838  1.0317 -1.6269
  126CHL1   C1415526   0.164   3.886   7.429  0.4805  0.4985  0.7522
  126CHL1   H1415527   0.239   3.805   7.425 -0.8155 -0.7380  0.4839
  126CHL1   C1515528   0.023   3.819   7.421  0.7282 -0.5403 -0.4983
  126CHL1  H15A15529  -0.062   3.883   7.387 -0.1864 -1.3156  0.2591
  126CHL1  H15B15530   0.030   3.729   7.356  0.3398  1.3996 -3.4225
  126CHL1   C1615531  -0.004   3.773   7.568  0.5518  0.3850 -0.0553
  126CHL1  H16A15532  -0.107   3.790   7.607  0.3380 -1.0593  0.0763
  126CHL1  H16B15533   0.015   3.664   7.581  2.3536  0.8307  1.4344
  126CHL1   C1715534   0.099   3.843   7.659 -0.0293  0.3492  0.6116
  126CHL1   H1715535   0.179   3.768   7.676 -0.0254  1.0456  4.5449
  126CHL1   C1315536   0.163   3.949   7.567  0.0120  0.5145  0.0976
  126CHL1   C1815537   0.063   4.062   7.575  0.0154  0.3327  0.2404
  126CHL1  H18A15538   0.064   4.105   7.677 -2.0982  2.0112 -0.3786
  126CHL1  H18B15539   0.082   4.137   7.496  0.5953 -0.1726 -0.1115
  126CHL1  H18C15540  -0.041   4.033   7.549  0.8829 -2.6643 -0.3236
  126CHL1   C1215541   0.307   3.996   7.592 -0.4239 -0.2581 -0.4312
  126CHL1  H12A15542   0.317   4.065   7.678 -1.9552 -0.8460  0.2460
  126CHL1  H12B15543   0.375   3.910   7.614 -1.8392 -1.4546 -0.6034
  126CHL1   C1115544   0.351   4.094   7.478 -0.8171 -0.4624  0.3928
  126CHL1  H11A15545   0.292   4.188   7.480 -1.3432 -0.7798  0.0079
  126CHL1  H11B15546   0.458   4.121   7.485 -0.9837  0.7617 -1.4029
  126CHL1    C915547   0.340   4.026   7.335  0.2470  0.3573 -0.1711
  126CHL1    H915548   0.406   3.939   7.355 -0.1098 -0.2187 -1.4256
  126CHL1   C1015549   0.386   4.107   7.208 -0.8728 -0.0974 -0.1284
  126CHL1   C1915550   0.297   4.231   7.188  0.5079  0.0799 -0.4055
  126CHL1  H19A15551   0.190   4.200   7.180 -0.0445  2.0715 -1.4672
  126CHL1  H19B15552   0.305   4.300   7.275 -0.5790  1.7924 -1.5985
  126CHL1  H19C15553   0.326   4.289   7.098 -3.5121 -0.6575 -2.4092
  126CHL1    C115554   0.535   4.158   7.236  0.0915 -0.0461 -0.0094
  126CHL1   H1A15555   0.542   4.244   7.307  1.2022  0.1754 -0.3784
  126CHL1   H1B15556   0.592   4.082   7.292  2.0491  0.1930 -1.5865
  126CHL1    C215557   0.603   4.191   7.107 -0.4133 -0.5759 -1.1792
  126CHL1   H2A15558   0.709   4.209   7.137 -1.0262 -0.7163  1.3138
  126CHL1   H2B15559   0.559   4.277   7.052 -0.6585 -2.1709 -3.5841
  126CHL1   C2015560   0.054   3.877   7.799  0.8143 -0.6835 -0.8702
  126CHL1   H2015561  -0.023   3.957   7.794  1.0496 -0.5387 -2.7737
  126CHL1   C2115562   0.172   3.917   7.887  0.1477 -0.7833 -0.2130
  126CHL1  H21A15563   0.248   3.837   7.874 -0.8803 -1.6601 -0.9880
  126CHL1  H21B15564   0.133   3.919   7.991  0.7192  0.6679  0.0023
  126CHL1  H21C15565   0.207   4.018   7.857 -2.7458 -0.4155 -2.8519
  126CHL1   C2215566  -0.024   3.765   7.865  0.1012 -0.0526  0.2437
  126CHL1  H22A15567  -0.073   3.800   7.958 -2.0492  1.3391 -1.3194
  126CHL1  H22B15568  -0.112   3.735   7.805  0.3170 -0.5337  0.1542
  126CHL1   C2315569   0.055   3.639   7.905 -0.1680  0.9106 -0.3448
  126CHL1  H23A15570   0.141   3.598   7.847  1.5440 -0.6525  3.0235
  126CHL1  H23B15571   0.106   3.665   8.000  0.6476  0.5084 -0.6592
  126CHL1   C2415572  -0.040   3.524   7.965  0.1931 -0.1810 -0.1306
  126CHL1  H24A15573   0.026   3.459   8.027  0.6716 -0.2192 -0.6786
  126CHL1  H24B15574  -0.106   3.580   8.035  1.2224  1.5462 -0.4941
  126CHL1   C2515575  -0.112   3.441   7.863 -0.5661 -0.1050  0.1361
  126CHL1   H2515576  -0.175   3.511   7.804  1.9187  0.7579 -1.6440
  126CHL1   C2615577  -0.021   3.377   7.758 -0.1365  0.4722 -0.4455
  126CHL1  H26A15578   0.063   3.445   7.733 -0.3362  0.8254 -0.1652
  126CHL1  H26B15579   0.028   3.286   7.800 -1.0106 -0.1060 -0.6724
  126CHL1  H26C15580  -0.085   3.350   7.672 -2.1814  1.1443  0.7944
  126CHL1   C2715581  -0.205   3.339   7.932  0.4490  0.2947 -0.3391
  126CHL1  H27A15582  -0.273   3.380   8.010 -2.0430 -4.0384  0.0932
  126CHL1  H27B15583  -0.275   3.281   7.867 -0.9068  1.0309  0.4256
  126CHL1  H27C15584  -0.151   3.260   7.989 -0.0009  0.2819  0.0776
  127CHL1    C315585   1.637   3.892   6.811  0.4382  0.1724 -0.4400
  127CHL1    H315586   1.713   3.972   6.795  0.5222  0.1108 -0.3462
  127CHL1    O315587   1.625   3.810   6.702  0.3189  0.3097 -0.0428
  127CHL1   H3'15588   1.587   3.731   6.738 -0.5848  0.6399 -0.2548
  127CHL1    C415589   1.693   3.810   6.930 -0.1478  0.3056  0.1876
  127CHL1   H4A15590   1.633   3.717   6.927 -0.3132  0.2829  2.5172
  127CHL1   H4B15591   1.794   3.771   6.906  0.7910  2.7978 -0.1694
  127CHL1    C515592   1.687   3.881   7.064 -0.0398 -0.3794 -0.0803
  127CHL1    C615593   1.797   3.882   7.147  0.4917  0.3186  0.1956
  127CHL1    H615594   1.888   3.833   7.108 -1.1361 -1.6366 -1.3032
  127CHL1    C715595   1.805   3.956   7.281  0.8728 -0.1905  0.4601
  127CHL1   H7A15596   1.869   3.899   7.351  2.9312 -1.0706 -1.9793
  127CHL1   H7B15597   1.851   4.056   7.264 -0.5318  0.7176  1.7681
  127CHL1    C815598   1.666   3.980   7.335 -1.0488  0.0078  0.5607
  127CHL1    H815599   1.633   3.878   7.364  3.1776 -2.1452 -1.2846
  127CHL1   C1415600   1.678   4.079   7.445 -0.0390 -0.0474 -0.9767
  127CHL1   H1415601   1.713   4.178   7.409  0.5676 -0.0165 -0.3205
  127CHL1   C1515602   1.780   4.044   7.556  0.0473 -0.1518 -0.3502
  127CHL1  H15A15603   1.797   3.935   7.566 -3.1602 -0.7885 -0.7021
  127CHL1  H15B15604   1.877   4.094   7.537  0.8418 -1.7298 -0.6648
  127CHL1   C1615605   1.727   4.110   7.684  0.6944 -1.3983 -0.2816
  127CHL1  H16A15606   1.701   4.037   7.764 -0.1839 -0.2841  0.4898
  127CHL1  H16B15607   1.798   4.179   7.735 -3.3782  1.0410  2.7076
  127CHL1   C1715608   1.598   4.186   7.635  0.5370 -0.1886  0.4803
  127CHL1   H1715609   1.631   4.282   7.592 -2.0171  0.3393 -0.4969
  127CHL1   C1315610   1.548   4.106   7.513  0.4548  0.1633 -0.1441
  127CHL1   C1815611   1.481   3.980   7.563 -0.1434 -0.0456 -0.0120
  127CHL1  H18A15612   1.478   3.904   7.481  3.3945  0.0572 -0.3669
  127CHL1  H18B15613   1.528   3.940   7.655 -1.0401 -1.4441 -0.1270
  127CHL1  H18C15614   1.376   4.007   7.586 -0.0093  2.2710 -1.7547
  127CHL1   C1215615   1.452   4.173   7.417  0.8977 -0.5290  0.6945
  127CHL1  H12A15616   1.347   4.194   7.446  0.3651 -1.1770 -0.6716
  127CHL1  H12B15617   1.500   4.260   7.368 -0.6319  0.8028  1.4633
  127CHL1   C1115618   1.430   4.075   7.301  0.5506  0.4532 -0.4805
  127CHL1  H11A15619   1.374   3.985   7.332  1.1917 -0.4193 -1.7623
  127CHL1  H11B15620   1.369   4.136   7.231  0.9125  2.2551  0.6907
  127CHL1    C915621   1.566   4.031   7.229 -0.4598  0.1447 -0.5442
  127CHL1    H915622   1.616   4.127   7.204  1.4827 -0.1833  1.7448
  127CHL1   C1015623   1.549   3.945   7.100  0.4076  0.4106 -0.8527
  127CHL1   C1915624   1.440   3.836   7.133 -0.3589  0.4284 -0.4846
  127CHL1  H19A15625   1.341   3.871   7.168  0.0973  1.5625 -0.2813
  127CHL1  H19B15626   1.441   3.766   7.047  0.8913 -1.0586  0.6868
  127CHL1  H19C15627   1.489   3.774   7.212 -0.0494  0.6137 -0.5316
  127CHL1    C115628   1.506   4.025   6.983 -0.0881  0.2287 -1.0163
  127CHL1   H1A15629   1.406   4.067   7.010 -0.7976  0.5530 -3.8064
  127CHL1   H1B15630   1.582   4.105   6.971  0.3286  0.4114  2.0445
  127CHL1    C215631   1.503   3.948   6.852  0.2626  0.2157  0.6003
  127CHL1   H2A15632   1.466   4.007   6.765 -0.1070 -0.8747  0.0050
  127CHL1   H2B15633   1.422   3.872   6.860 -0.1944  0.5979 -0.1804
  127CHL1   C2015634   1.504   4.218   7.759 -0.5381 -0.3551  0.4351
  127CHL1   H2015635   1.489   4.117   7.804 -0.5375 -0.6230 -0.1545
  127CHL1   C2115636   1.360   4.263   7.719 -0.9178 -0.1332 -0.7686
  127CHL1  H21A15637   1.307   4.183   7.662 -2.0805  0.9225 -1.1934
  127CHL1  H21B15638   1.362   4.351   7.652 -1.9052 -0.7823 -1.6788
  127CHL1  H21C15639   1.299   4.279   7.811 -0.6494  0.7250 -0.7376
  127CHL1   C2215640   1.574   4.321   7.862 -0.5702 -0.0717  0.2579
  127CHL1  H22A15641   1.676   4.285   7.888 -1.3026 -0.8529  2.2539
  127CHL1  H22B15642   1.572   4.422   7.816 -2.8670 -0.8110 -1.4279
  127CHL1   C2315643   1.512   4.332   8.002  0.2631  0.3408 -0.2610
  127CHL1  H23A15644   1.549   4.418   8.061 -0.9421  0.8732 -0.2407
  127CHL1  H23B15645   1.403   4.350   7.988  0.5784  1.9566 -0.8810
  127CHL1   C2415646   1.546   4.207   8.084  0.2162 -0.8250 -0.6887
  127CHL1  H24A15647   1.508   4.114   8.035 -3.7024  0.8963 -1.2748
  127CHL1  H24B15648   1.656   4.204   8.080  0.3518 -1.2858  1.6033
  127CHL1   C2515649   1.493   4.189   8.227 -0.2710  0.6084  0.3636
  127CHL1   H2515650   1.493   4.082   8.258 -1.5070  0.5913  0.3579
  127CHL1   C2615651   1.584   4.251   8.335 -0.1267 -0.4480 -0.5281
  127CHL1  H26A15652   1.545   4.225   8.436 -1.2058  1.8523 -0.2964
  127CHL1  H26B15653   1.686   4.209   8.324 -0.3872 -1.8270  1.6606
  127CHL1  H26C15654   1.591   4.360   8.319 -1.6245 -0.6139 -2.7922
  127CHL1   C2715655   1.351   4.248   8.251 -0.7632  0.0641  0.2948
  127CHL1  H27A15656   1.349   4.359   8.240  1.8587  0.2153  0.7595
  127CHL1  H27B15657   1.293   4.212   8.163  1.4336 -0.5709 -0.9837
  127CHL1  H27C15658   1.306   4.214   8.346  0.2936 -1.1447  0.3843
  128CHL1    C315659   1.375   0.254   6.819  0.5394 -0.4447 -0.2055
  128CHL1    H315660   1.405   0.354   6.857  2.9501 -0.5686 -1.5241
  128CHL1    O315661   1.409   0.251   6.680  0.0119  0.4374 -0.1824
  128CHL1   H3'15662   1.455   0.333   6.662 -0.8281  1.5758  2.3787
  128CHL1    C415663   1.436   0.132   6.902 -0.3450 -0.3174 -0.1387
  128CHL1   H4A15664   1.402   0.036   6.856 -0.7835 -0.4878  0.5215
  128CHL1   H4B15665   1.546   0.128   6.889 -0.2209  3.3816 -1.1225
  128CHL1    C515666   1.388   0.136   7.047  0.1031 -0.7647 -0.2806
  128CHL1    C615667   1.484   0.137   7.141  0.2438  0.4202  0.1803
  128CHL1    H615668   1.589   0.132   7.110 -0.7335 -0.2210 -3.4430
  128CHL1    C715669   1.455   0.156   7.288  0.3479  0.2015  0.3334
  128CHL1   H7A15670   1.511   0.092   7.359 -2.2558 -2.8419 -0.1174
  128CHL1   H7B15671   1.482   0.261   7.314 -0.7718  0.0909  2.1495
  128CHL1    C815672   1.310   0.135   7.324  0.5992 -1.4796  0.4915
  128CHL1    H815673   1.288   0.026   7.329 -1.3877 -1.0654  1.7437
  128CHL1   C1415674   1.270   0.202   7.453  0.7126 -0.1020  0.3290
  128CHL1   H1415675   1.269   0.312   7.439 -1.5216 -0.2322 -1.0828
  128CHL1   C1515676   1.364   0.180   7.570 -0.6065 -0.0908  0.1973
  128CHL1  H15A15677   1.379   0.070   7.584  0.5296  0.0640  0.2298
  128CHL1  H15B15678   1.461   0.231   7.554 -0.8730  0.0931 -0.9374
  128CHL1   C1615679   1.287   0.215   7.696 -0.8731 -0.2098  0.2730
  128CHL1  H16A15680   1.299   0.130   7.766 -0.3247  0.7546  1.3746
  128CHL1  H16B15681   1.343   0.296   7.747 -2.1003  1.0137 -0.2681
  128CHL1   C1715682   1.145   0.243   7.652 -0.2920  0.0237  0.5589
  128CHL1   H1715683   1.146   0.352   7.632  4.2877  0.3734  1.6561
  128CHL1   C1315684   1.128   0.172   7.510 -0.6804 -0.4535  0.5216
  128CHL1   C1815685   1.096   0.016   7.522 -0.0220 -0.5257  0.3235
  128CHL1  H18A15686   1.092  -0.037   7.425  0.1293  2.1915 -1.2816
  128CHL1  H18B15687   1.163  -0.035   7.594  1.2926 -2.7009 -2.2741
  128CHL1  H18C15688   0.992   0.012   7.560 -0.0121 -0.4491  0.3592
  128CHL1   C1215689   1.036   0.241   7.406  0.3203  0.6867 -0.0664
  128CHL1  H12A15690   0.930   0.221   7.434  0.2198  1.0424 -0.1859
  128CHL1  H12B15691   1.053   0.350   7.412  0.0108  0.6739  1.6183
  128CHL1   C1115692   1.060   0.197   7.258  0.1636 -0.4453 -0.2490
  128CHL1  H11A15693   1.020   0.094   7.248 -0.1834 -0.2449 -1.0060
  128CHL1  H11B15694   1.001   0.262   7.189  0.2882 -0.6071 -0.5081
  128CHL1    C915695   1.211   0.198   7.219  0.2218 -0.4373  0.5365
  128CHL1    H915696   1.237   0.306   7.222  2.0079 -0.8177  0.2293
  128CHL1   C1015697   1.236   0.145   7.074  0.5929 -1.3500  0.7310
  128CHL1   C1915698   1.170   0.005   7.038 -0.2041  0.4908  0.5956
  128CHL1  H19A15699   1.212  -0.028   6.941  0.2910  0.8487  0.6844
  128CHL1  H19B15700   1.214  -0.071   7.106 -1.1339  0.3653  1.0801
  128CHL1  H19C15701   1.059   0.009   7.047 -0.3199  2.4453 -1.0502
  128CHL1    C115702   1.181   0.252   6.970  0.3576  0.1533  0.4076
  128CHL1   H1A15703   1.070   0.254   6.966  0.3428 -0.5441  0.4301
  128CHL1   H1B15704   1.216   0.353   6.999 -0.9904  0.6280  0.4539
  128CHL1    C215705   1.222   0.237   6.823 -0.4514  0.1149 -0.3717
  128CHL1   H2A15706   1.171   0.317   6.765  0.4485 -0.6920 -2.3454
  128CHL1   H2B15707   1.188   0.143   6.775 -0.1051  1.0714 -2.5983
  128CHL1   C2015708   1.048   0.216   7.767  0.3319  0.6187 -0.3423
  128CHL1   H2015709   1.035   0.106   7.779 -0.4745  0.6835 -0.5609
  128CHL1   C2115710   0.906   0.264   7.720 -0.1542 -0.1132 -0.7328
  128CHL1  H21A15711   0.856   0.207   7.639  1.1282 -1.0562 -0.8938
  128CHL1  H21B15712   0.912   0.369   7.684 -2.9997 -0.6113 -3.0451
  128CHL1  H21C15713   0.839   0.250   7.807  0.0185 -2.1245 -0.8622
  128CHL1   C2215714   1.088   0.278   7.899  0.4964  0.0704  0.2746
  128CHL1  H22A15715   1.185   0.235   7.933  1.1411  1.9257  0.8778
  128CHL1  H22B15716   1.104   0.388   7.892  0.1166  0.0590 -0.8778
  128CHL1   C2315717   1.005   0.242   8.023  0.3127 -0.0889 -0.1423
  128CHL1  H23A15718   0.914   0.305   8.031  0.3402 -0.0118 -0.4438
  128CHL1  H23B15719   0.980   0.134   8.016 -0.2879  0.1654 -2.7987
  128CHL1   C2415720   1.082   0.273   8.153 -0.3342 -0.4281 -0.1848
  128CHL1  H24A15721   1.183   0.227   8.140  0.5906  1.6831 -0.8996
  128CHL1  H24B15722   1.097   0.381   8.174  0.8461 -0.8394  1.2799
  128CHL1   C2515723   1.016   0.217   8.279  0.0732 -0.0059  0.2893
  128CHL1   H2515724   0.990   0.112   8.253 -2.7603  0.2525  1.7699
  128CHL1   C2615725   1.102   0.223   8.398  0.0684 -0.3938 -0.1317
  128CHL1  H26A15726   1.050   0.183   8.488 -0.0246  1.3249  0.6180
  128CHL1  H26B15727   1.203   0.180   8.381  1.3099  1.8885  0.9885
  128CHL1  H26C15728   1.121   0.330   8.422 -1.7590  0.0040 -0.3314
  128CHL1   C2715729   0.875   0.270   8.315 -0.4390 -0.3487  0.2407
  128CHL1  H27A15730   0.836   0.204   8.395  4.2555 -0.6171  2.6425
  128CHL1  H27B15731   0.897   0.374   8.345  1.2872 -0.2369 -1.2066
  128CHL1  H27C15732   0.809   0.271   8.225 -0.3797 -0.8688  0.1857
  129CHL1    C315733   3.443   4.126   6.660 -0.1297 -0.3195 -0.4484
  129CHL1    H315734   3.344   4.077   6.671 -1.4245  2.3975  1.2363
  129CHL1    O315735   3.483   4.125   6.527  0.3881  0.4452 -0.1648
  129CHL1   H3'15736   3.570   4.165   6.520  1.7417 -2.1380  0.6730
  129CHL1    C415737   3.448   4.266   6.700 -0.5621  0.1686  0.0158
  129CHL1   H4A15738   3.554   4.297   6.687 -0.3885  0.3330  1.6163
  129CHL1   H4B15739   3.384   4.327   6.632 -0.3364 -0.2783 -0.6027
  129CHL1    C515740   3.418   4.284   6.852 -0.8370 -0.0931  0.3209
  129CHL1    C615741   3.307   4.347   6.893 -0.0214  0.4500 -0.1249
  129CHL1    H615742   3.232   4.374   6.819 -0.5276  0.1624  0.2785
  129CHL1    C715743   3.283   4.382   7.034 -0.0091  0.2778  0.2966
  129CHL1   H7A15744   3.262   4.491   7.043  2.6856  0.7541  1.8083
  129CHL1   H7B15745   3.192   4.333   7.074 -0.6379  2.5839  1.9098
  129CHL1    C815746   3.399   4.337   7.134  0.2884 -0.5573 -0.1961
  129CHL1    H815747   3.479   4.414   7.130 -2.3265  2.4334  0.6756
  129CHL1   C1415748   3.353   4.329   7.275 -0.5522  0.7236 -0.3610
  129CHL1   H1415749   3.290   4.238   7.282  1.9554 -1.2758 -1.8704
  129CHL1   C1515750   3.273   4.445   7.331 -0.8900 -0.4129 -0.6487
  129CHL1  H15A15751   3.325   4.541   7.311  1.6745 -1.3981  0.8751
  129CHL1  H15B15752   3.172   4.447   7.283 -1.1642 -1.1102 -0.1015
  129CHL1   C1615753   3.278   4.427   7.482  0.7465 -0.0543 -0.6629
  129CHL1  H16A15754   3.321   4.516   7.532  0.8848 -0.1272 -0.6508
  129CHL1  H16B15755   3.181   4.398   7.528  0.7826  1.4164  0.3945
  129CHL1   C1715756   3.374   4.310   7.508 -0.0337 -0.3703 -0.2011
  129CHL1   H1715757   3.311   4.218   7.499 -2.7187  1.3166  0.2961
  129CHL1   C1315758   3.461   4.305   7.380  0.0340 -0.4341 -0.0479
  129CHL1   C1815759   3.567   4.420   7.386  0.8334 -0.3528  0.3092
  129CHL1  H18A15760   3.640   4.386   7.462 -1.0086 -2.3673  1.2760
  129CHL1  H18B15761   3.624   4.442   7.293  1.7709  1.8223  1.3383
  129CHL1  H18C15762   3.518   4.514   7.419  0.5307 -0.9893  1.7621
  129CHL1   C1215763   3.523   4.171   7.343 -0.4471  0.3194 -0.3892
  129CHL1  H12A15764   3.606   4.155   7.416 -0.1203  0.8684 -0.6339
  129CHL1  H12B15765   3.447   4.090   7.350 -1.3158  1.1349 -0.0217
  129CHL1   C1115766   3.576   4.172   7.197 -0.2865  0.3220  0.1867
  129CHL1  H11A15767   3.658   4.246   7.188 -0.8882  1.0910  0.8955
  129CHL1  H11B15768   3.621   4.071   7.183 -0.7954  0.2603 -1.1174
  129CHL1    C915769   3.465   4.209   7.092  0.1974  0.6786 -0.5582
  129CHL1    H915770   3.385   4.133   7.104  1.0625 -0.3115 -0.9468
  129CHL1   C1015771   3.516   4.217   6.947 -0.1360 -0.3166  0.3118
  129CHL1   C1915772   3.659   4.280   6.944 -0.9320  0.0695  0.2923
  129CHL1  H19A15773   3.695   4.268   6.839  1.4446 -0.9184  1.1265
  129CHL1  H19B15774   3.656   4.389   6.965  2.2115  0.3995 -0.4081
  129CHL1  H19C15775   3.729   4.220   7.007  0.1718  0.0407 -0.9275
  129CHL1    C115776   3.532   4.071   6.896  0.0008 -0.3480  0.7417
  129CHL1   H1A15777   3.617   4.016   6.941 -0.1081 -0.7730  0.4340
  129CHL1   H1B15778   3.453   4.003   6.935  0.2446 -1.7815 -1.1678
  129CHL1    C215779   3.550   4.049   6.745 -0.5396 -0.7303 -0.6733
  129CHL1   H2A15780   3.555   3.945   6.706 -0.1602 -0.0481 -2.5139
  129CHL1   H2B15781   3.649   4.089   6.715 -0.1967 -0.7365  0.4047
  129CHL1   C2015782   3.424   4.306   7.649 -0.0907  0.2053 -0.6887
  129CHL1   H2015783   3.481   4.398   7.673  2.0292 -1.8575  3.0803
  129CHL1   C2115784   3.528   4.191   7.672  0.0123  0.3022  0.2114
  129CHL1  H21A15785   3.624   4.223   7.626 -0.2277  0.3078 -0.2920
  129CHL1  H21B15786   3.487   4.097   7.629  0.4056 -1.6260  3.6932
  129CHL1  H21C15787   3.537   4.177   7.782 -2.5066  0.0683  0.4363
  129CHL1   C2215788   3.304   4.300   7.750  0.1099  0.7419 -0.1698
  129CHL1  H22A15789   3.233   4.381   7.725  0.3247  1.0579  0.2306
  129CHL1  H22B15790   3.256   4.201   7.738  1.4987  0.2112 -1.9050
  129CHL1   C2315791   3.346   4.319   7.899  0.4944 -0.2251  0.1856
  129CHL1  H23A15792   3.403   4.230   7.933 -0.2152 -0.4625  0.7817
  129CHL1  H23B15793   3.413   4.406   7.916 -0.9644  1.1077 -0.5934
  129CHL1   C2415794   3.227   4.312   7.995 -0.1840 -0.6457  0.1232
  129CHL1  H24A15795   3.159   4.394   7.964  1.1693  0.7262  0.6561
  129CHL1  H24B15796   3.156   4.228   7.983  0.0448 -1.5443  3.8500
  129CHL1   C2515797   3.263   4.327   8.143 -0.2707 -0.3725 -0.3422
  129CHL1   H2515798   3.328   4.416   8.156 -0.2585 -0.5570  1.0607
  129CHL1   C2615799   3.130   4.345   8.220  0.1856  0.4240  0.2915
  129CHL1  H26A15800   3.067   4.254   8.206 -0.8589  0.9799  1.1876
  129CHL1  H26B15801   3.142   4.369   8.328  0.0554  0.0785  0.3851
  129CHL1  H26C15802   3.074   4.429   8.173 -2.0136 -2.3438 -2.4494
  129CHL1   C2715803   3.334   4.205   8.192 -0.0454  0.1385 -0.3575
  129CHL1  H27A15804   3.436   4.192   8.150  0.1969  0.3254  0.1709
  129CHL1  H27B15805   3.352   4.205   8.301 -3.3834 -0.9110  0.3152
  129CHL1  H27C15806   3.273   4.116   8.167  0.6826  0.0414 -1.9197
  130CHL1    C315807   3.306   5.809   6.882 -0.0362  0.2854 -0.6043
  130CHL1    H315808   3.417   5.809   6.867  0.2026 -0.8865  0.9262
  130CHL1    O315809   3.248   5.810   6.753 -0.6697 -0.0894 -0.2897
  130CHL1   H3'15810   3.161   5.773   6.771 -0.2422 -0.5203  1.0531
  130CHL1    C415811   3.273   5.675   6.958 -0.5697  0.3085 -0.3548
  130CHL1   H4A15812   3.162   5.676   6.972 -0.6189  1.5042 -0.7183
  130CHL1   H4B15813   3.293   5.582   6.901 -0.8826 -0.5802  0.9308
  130CHL1    C515814   3.337   5.677   7.092 -0.5599  0.1026  0.3571
  130CHL1    C615815   3.422   5.583   7.136  0.5958  0.0512 -0.6568
  130CHL1    H615816   3.439   5.497   7.070  0.1607 -0.9539  0.4921
  130CHL1    C715817   3.492   5.587   7.271  0.1373 -0.1424 -0.1364
  130CHL1   H7A15818   3.499   5.491   7.327  0.7369  0.9288  1.7195
  130CHL1   H7B15819   3.596   5.625   7.258  0.0353  0.8156  1.5840
  130CHL1    C815820   3.422   5.678   7.376  0.3911 -0.5576  0.5921
  130CHL1    H815821   3.333   5.622   7.412 -0.0105 -0.3236 -0.0274
  130CHL1   C1415822   3.523   5.709   7.485 -0.4045  0.6396  0.2804
  130CHL1   H1415823   3.608   5.752   7.428 -0.0758 -1.3970 -0.8594
  130CHL1   C1515824   3.595   5.595   7.555  0.1647  0.9095 -0.4318
  130CHL1  H15A15825   3.532   5.506   7.579  2.8209 -0.9818  0.0909
  130CHL1  H15B15826   3.682   5.559   7.496  1.8764  0.0218  2.4398
  130CHL1   C1615827   3.632   5.658   7.689  0.4426 -0.4304  0.0155
  130CHL1  H16A15828   3.607   5.594   7.777 -0.4797  1.7544  1.4030
  130CHL1  H16B15829   3.741   5.657   7.712  0.2759 -0.6359  0.8517
  130CHL1   C1715830   3.572   5.805   7.693 -0.9535 -0.7902 -0.4668
  130CHL1   H1715831   3.658   5.862   7.650 -0.1266 -0.6716  1.2536
  130CHL1   C1315832   3.457   5.798   7.596  0.2712 -0.4530  0.1301
  130CHL1   C1815833   3.335   5.734   7.663 -0.0732  0.1904 -0.7048
  130CHL1  H18A15834   3.335   5.645   7.730 -2.2424  0.1259 -0.7345
  130CHL1  H18B15835   3.275   5.805   7.724 -1.4056 -2.5328  1.4089
  130CHL1  H18C15836   3.260   5.704   7.587  0.2269 -0.8270 -0.6210
  130CHL1   C1215837   3.419   5.929   7.533 -0.0298  0.1703 -0.3235
  130CHL1  H12A15838   3.371   6.005   7.599 -0.8886 -1.3464  0.8665
  130CHL1  H12B15839   3.516   5.966   7.494  0.4660 -0.4000  0.3482
  130CHL1   C1115840   3.328   5.906   7.410 -0.5349 -0.4532  0.2386
  130CHL1  H11A15841   3.226   5.881   7.446  0.4351 -2.6340  1.6926
  130CHL1  H11B15842   3.324   6.003   7.356 -1.2839 -0.8480 -0.4262
  130CHL1    C915843   3.379   5.807   7.308  0.5919  0.2626 -0.6271
  130CHL1    H915844   3.474   5.850   7.270  1.2277  0.7271  1.3284
  130CHL1   C1015845   3.292   5.786   7.185 -0.1220  0.0101 -0.5644
  130CHL1   C1915846   3.146   5.746   7.227 -0.3476 -0.6819 -0.1419
  130CHL1  H19A15847   3.138   5.646   7.276  0.5332 -1.5184 -1.6177
  130CHL1  H19B15848   3.104   5.822   7.295 -0.6534 -0.6978 -0.3127
  130CHL1  H19C15849   3.074   5.743   7.143 -0.1608  0.3359 -0.3456
  130CHL1    C115850   3.298   5.926   7.105 -0.1002  0.2842  0.1756
  130CHL1   H1A15851   3.233   6.001   7.156 -0.3445  0.1749  0.0269
  130CHL1   H1B15852   3.401   5.969   7.106 -0.5445  1.3909  0.7574
  130CHL1    C215853   3.246   5.922   6.964  0.5267 -0.4949 -0.0898
  130CHL1   H2A15854   3.268   6.016   6.908  0.5618 -0.7571 -0.5234
  130CHL1   H2B15855   3.136   5.910   6.968  0.4301  0.6071  2.8108
  130CHL1   C2015856   3.554   5.856   7.838  0.4114  0.2413  0.2725
  130CHL1   H2015857   3.476   5.805   7.900 -0.0968  0.5623 -0.0963
  130CHL1   C2115858   3.520   6.009   7.834 -0.0121 -0.2206  0.3819
  130CHL1  H21A15859   3.576   6.051   7.748 -0.0470 -0.4677  0.2359
  130CHL1  H21B15860   3.558   6.067   7.920  1.1719  1.3506 -1.1278
  130CHL1  H21C15861   3.413   6.037   7.823  0.2161  1.1307  1.3840
  130CHL1   C2215862   3.687   5.843   7.917  0.1309  0.8794  0.3652
  130CHL1  H22A15863   3.741   5.747   7.897 -0.7460  0.8167 -1.9277
  130CHL1  H22B15864   3.748   5.931   7.888 -0.6295  1.2589 -0.0864
  130CHL1   C2315865   3.673   5.838   8.064 -0.1641 -0.4042 -0.0449
  130CHL1  H23A15866   3.639   5.941   8.090 -0.5184 -0.3239 -0.8093
  130CHL1  H23B15867   3.593   5.770   8.101  0.3205 -1.2790 -0.5738
  130CHL1   C2415868   3.806   5.812   8.135  0.3501  0.1145  0.1241
  130CHL1  H24A15869   3.832   5.706   8.112  0.8693  0.1506  0.4998
  130CHL1  H24B15870   3.878   5.872   8.075  1.1844 -1.2032 -0.2341
  130CHL1   C2515871   3.806   5.819   8.290  0.0268  0.0243  0.3058
  130CHL1   H2515872   3.716   5.766   8.325  0.0928  0.2812  0.8806
  130CHL1   C2615873   3.934   5.754   8.343 -0.3843 -0.1110  0.8375
  130CHL1  H26A15874   3.939   5.748   8.453  0.5905  1.0446  0.8749
  130CHL1  H26B15875   3.941   5.653   8.297  1.5779  0.6180 -0.5786
  130CHL1  H26C15876   4.021   5.812   8.305 -0.9504  1.7057  2.1547
  130CHL1   C2715877   3.797   5.967   8.337 -0.1608 -0.2563  0.2623
  130CHL1  H27A15878   3.895   6.013   8.311  0.5751 -1.6853  0.4352
  130CHL1  H27B15879   3.708   6.024   8.303  0.2094  0.2539  0.1316
  130CHL1  H27C15880   3.782   5.987   8.446 -1.3713 -0.5108  0.1614
  131CHL1    C315881   7.193   5.240   6.911  0.2178 -0.2917  0.2198
  131CHL1    H315882   7.116   5.160   6.917 -0.2216  0.0077 -1.1426
  131CHL1    O315883   7.228   5.248   6.775 -0.3883  0.1008 -0.0130
  131CHL1   H3'15884   7.151   5.279   6.725 -1.1520 -1.0975  0.3728
  131CHL1    C415885   7.114   5.360   6.959  0.1067  0.1940 -0.6724
  131CHL1   H4A15886   7.174   5.453   6.947 -2.8196  2.6463  1.8479
  131CHL1   H4B15887   7.037   5.373   6.879  0.6261 -2.8484 -1.7954
  131CHL1    C515888   7.060   5.344   7.100 -0.3297  0.6011  0.1173
  131CHL1    C615889   6.927   5.359   7.124 -0.4073  0.0341 -0.6320
  131CHL1    H615890   6.862   5.400   7.045 -2.0403 -2.5903 -0.7592
  131CHL1    C715891   6.875   5.324   7.262  0.3868  0.6439  0.6008
  131CHL1   H7A15892   6.790   5.389   7.290 -0.1737  0.8942 -1.4897
  131CHL1   H7B15893   6.835   5.220   7.261 -2.3110  1.5959 -0.2519
  131CHL1    C815894   6.983   5.338   7.369  0.0285  0.7984 -0.3391
  131CHL1    H815895   7.019   5.442   7.387 -2.0648  1.3758  0.9040
  131CHL1   C1415896   6.933   5.287   7.501 -0.4142 -0.1999 -0.0066
  131CHL1   H1415897   6.909   5.182   7.476 -1.8660 -0.0950  0.8251
  131CHL1   C1515898   6.809   5.358   7.551 -0.3654 -0.4149  0.6706
  131CHL1  H15A15899   6.819   5.465   7.523 -0.3398 -1.2709 -3.0967
  131CHL1  H15B15900   6.714   5.331   7.500  1.1156 -0.0507 -2.5312
  131CHL1   C1615901   6.799   5.316   7.703 -0.1827  0.5235  0.5580
  131CHL1  H16A15902   6.804   5.407   7.768  2.1338  1.6827 -1.1112
  131CHL1  H16B15903   6.702   5.269   7.729  0.0631 -0.6377 -0.5589
  131CHL1   C1715904   6.925   5.228   7.728  0.7901 -0.7917  0.3823
  131CHL1   H1715905   6.896   5.123   7.708 -1.9204 -0.0729  0.2217
  131CHL1   C1315906   7.030   5.272   7.618  0.5438  0.3223  0.1751
  131CHL1   C1815907   7.084   5.405   7.665  0.5595 -0.5809 -0.2157
  131CHL1  H18A15908   7.143   5.388   7.758  2.6358 -0.5677 -1.4532
  131CHL1  H18B15909   7.146   5.449   7.583  0.1116  1.4046  0.4485
  131CHL1  H18C15910   7.005   5.479   7.688 -1.1927 -2.3838 -0.1947
  131CHL1   C1215911   7.134   5.170   7.571 -0.6718 -0.5558 -0.3369
  131CHL1  H12A15912   7.213   5.147   7.646 -0.4762 -1.7574 -0.8984
  131CHL1  H12B15913   7.078   5.081   7.537  1.8262 -1.8994 -1.1928
  131CHL1   C1115914   7.203   5.218   7.441 -0.4515  0.0284  0.2957
  131CHL1  H11A15915   7.268   5.307   7.456  1.0268 -0.7773 -0.9626
  131CHL1  H11B15916   7.270   5.133   7.415  0.0945 -0.5272  3.1870
  131CHL1    C915917   7.099   5.251   7.331 -0.4081 -0.9124 -0.1855
  131CHL1    H915918   7.050   5.155   7.306  0.0072 -0.6725 -2.0451
  131CHL1   C1015919   7.163   5.294   7.203 -0.4924  0.2670  0.5418
  131CHL1   C1915920   7.247   5.429   7.222  0.6422 -0.4546  0.6493
  131CHL1  H19A15921   7.186   5.506   7.274  0.8943  0.8135 -0.8861
  131CHL1  H19B15922   7.342   5.421   7.278  0.2365  0.2474  1.4615
  131CHL1  H19C15923   7.277   5.482   7.130  3.7929 -1.0020  1.2562
  131CHL1    C115924   7.260   5.189   7.148  0.4346  0.5147  0.8377
  131CHL1   H1A15925   7.351   5.188   7.211  0.3462  0.7868  0.9710
  131CHL1   H1B15926   7.199   5.097   7.159  0.9512 -0.2930 -2.0370
  131CHL1    C215927   7.313   5.208   6.998  0.6963  0.2777 -0.6976
  131CHL1   H2A15928   7.353   5.113   6.958 -0.6061 -0.9885  0.8402
  131CHL1   H2B15929   7.391   5.284   6.977  0.4701  0.3371 -1.3106
  131CHL1   C2015930   6.971   5.224   7.874 -0.1503 -0.7434 -0.3889
  131CHL1   H2015931   6.980   5.331   7.903 -1.1944 -0.6251 -0.4678
  131CHL1   C2115932   7.109   5.152   7.890  0.3232 -0.3119 -0.8270
  131CHL1  H21A15933   7.111   5.048   7.850  0.7624  0.3772 -2.6835
  131CHL1  H21B15934   7.134   5.147   7.998  0.1034 -1.3836 -0.8185
  131CHL1  H21C15935   7.197   5.204   7.847  1.7749 -0.8266  1.3621
  131CHL1   C2215936   6.872   5.159   7.970 -0.1926 -0.7368 -0.5968
  131CHL1  H22A15937   6.772   5.131   7.930 -0.4650 -0.2403 -0.2723
  131CHL1  H22B15938   6.908   5.056   7.990  0.3560 -0.8987 -2.2602
  131CHL1   C2315939   6.853   5.238   8.100  0.3169  0.5649 -0.3429
  131CHL1  H23A15940   6.811   5.338   8.074 -0.4087  0.2268 -0.4849
  131CHL1  H23B15941   6.773   5.190   8.159  0.2142  1.2952  0.1271
  131CHL1   C2415942   6.975   5.243   8.200  0.5954 -0.0879 -0.0417
  131CHL1  H24A15943   7.016   5.140   8.205 -1.8641 -1.1635 -0.8756
  131CHL1  H24B15944   7.050   5.309   8.152 -0.1523  0.4112 -0.5479
  131CHL1   C2515945   6.943   5.308   8.334  1.1315 -0.0162 -0.5838
  131CHL1   H2515946   7.036   5.342   8.384 -1.1620  1.8256  2.8965
  131CHL1   C2615947   6.874   5.443   8.316  0.9655 -0.8417 -0.0603
  131CHL1  H26A15948   6.782   5.427   8.255 -1.0900  1.4730  2.1908
  131CHL1  H26B15949   6.841   5.482   8.414 -2.4568 -0.2751 -1.2923
  131CHL1  H26C15950   6.939   5.523   8.273 -1.2980  0.5934 -1.0133
  131CHL1   C2715951   6.863   5.226   8.436 -1.0700  0.2673 -0.4836
  131CHL1  H27A15952   6.832   5.277   8.530 -2.0516  0.3868 -0.8536
  131CHL1  H27B15953   6.770   5.181   8.395 -0.5551 -2.0313  0.7249
  131CHL1  H27C15954   6.928   5.139   8.458 -0.5776 -0.0359 -2.9233
  132CHL1    C315955   4.804   6.484   6.892  0.4613  0.4973 -0.8629
  132CHL1    H315956   4.745   6.393   6.914  0.7136 -0.1054 -2.5098
  132CHL1    O315957   4.799   6.497   6.747 -0.3944  0.3074 -0.5868
  132CHL1   H3'15958   4.856   6.427   6.715  1.4752  1.3671  0.2564
  132CHL1    C415959   4.751   6.615   6.954 -0.4605 -0.1015 -0.4604
  132CHL1   H4A15960   4.824   6.690   6.917  2.0331 -2.8120 -1.4159
  132CHL1   H4B15961   4.654   6.650   6.913 -0.2588  0.3140 -0.5908
  132CHL1    C515962   4.747   6.606   7.100 -0.0698 -0.3457 -0.1288
  132CHL1    C615963   4.630   6.619   7.166  0.4690  0.5333  0.3449
  132CHL1    H615964   4.537   6.635   7.108  0.0455 -0.7348  0.6347
  132CHL1    C715965   4.614   6.620   7.312 -0.8742  0.3001 -0.5954
  132CHL1   H7A15966   4.557   6.710   7.344 -1.6170  0.3799 -2.0718
  132CHL1   H7B15967   4.572   6.524   7.348  2.8823 -0.5365  2.2011
  132CHL1    C815968   4.756   6.629   7.381 -0.3481 -0.4092 -0.2038
  132CHL1    H815969   4.789   6.734   7.378 -0.0984 -0.4311  1.1610
  132CHL1   C1415970   4.749   6.571   7.525 -0.1621  0.6875  0.0440
  132CHL1   H1415971   4.726   6.464   7.504  1.0355  0.9133 -2.8750
  132CHL1   C1515972   4.635   6.599   7.621 -0.2542 -0.5716  0.2781
  132CHL1  H15A15973   4.609   6.706   7.607 -2.2955 -1.1570 -0.7353
  132CHL1  H15B15974   4.536   6.556   7.595 -0.6995 -0.5354  1.8063
  132CHL1   C1615975   4.689   6.563   7.756  0.0172 -0.2968  0.0365
  132CHL1  H16A15976   4.689   6.657   7.815 -0.9857 -1.8678  2.7115
  132CHL1  H16B15977   4.624   6.489   7.808 -0.2069  0.0955  0.3128
  132CHL1   C1715978   4.833   6.516   7.741 -0.2991  0.3973 -0.2205
  132CHL1   H1715979   4.839   6.406   7.733 -0.6451  0.4532 -1.3725
  132CHL1   C1315980   4.879   6.579   7.608 -0.2119  0.1409 -0.2879
  132CHL1   C1815981   4.920   6.735   7.614  0.3567 -0.1402 -0.4881
  132CHL1  H18A15982   4.832   6.784   7.660 -0.7811 -2.0304 -0.5540
  132CHL1  H18B15983   5.005   6.745   7.684 -0.6382  1.4389  0.5443
  132CHL1  H18C15984   4.950   6.782   7.518 -0.5411  2.0810  0.2636
  132CHL1   C1215985   4.986   6.499   7.539  0.1157  0.1770 -0.1119
  132CHL1  H12A15986   5.075   6.523   7.601 -0.7152  2.1071  0.4158
  132CHL1  H12B15987   4.954   6.392   7.539  1.5036 -0.2612 -0.0251
  132CHL1   C1115988   5.005   6.536   7.396  0.2819 -0.2599 -0.2343
  132CHL1  H11A15989   5.049   6.638   7.390  1.2503 -0.6612 -0.1815
  132CHL1  H11B15990   5.071   6.461   7.347  1.0531  0.1840  0.1029
  132CHL1    C915991   4.868   6.544   7.313  1.0778  0.3810 -0.0035
  132CHL1    H915992   4.816   6.446   7.317 -1.6670  1.7081 -0.4291
  132CHL1   C1015993   4.884   6.570   7.160  0.1294  0.6539 -0.3163
  132CHL1   C1915994   4.976   6.695   7.150 -0.3881 -0.3293 -0.1867
  132CHL1  H19A15995   5.079   6.672   7.185 -0.1353  1.5416  0.3709
  132CHL1  H19B15996   4.999   6.740   7.051  1.7561 -0.4430  0.2068
  132CHL1  H19C15997   4.944   6.778   7.216  1.1285  0.1843 -0.0801
  132CHL1    C115998   4.956   6.446   7.088  0.3139  0.0840 -0.2729
  132CHL1   H1A15999   5.058   6.437   7.132  0.7196 -0.2117 -1.2457
  132CHL1   H1B16000   4.890   6.361   7.116 -0.4743  0.6808 -0.2888
  132CHL1    C216001   4.952   6.452   6.938  0.2760 -0.2249 -0.6581
  132CHL1   H2A16002   4.985   6.357   6.892  1.2646  0.1872 -0.8204
  132CHL1   H2B16003   5.018   6.533   6.902 -0.4299  0.2016 -1.0090
  132CHL1   C2016004   4.923   6.541   7.868 -0.2922  0.0389  0.0955
  132CHL1   H2016005   4.944   6.649   7.881  1.8150 -0.3317  0.1864
  132CHL1   C2116006   5.065   6.476   7.873 -0.0005  0.4667  0.2598
  132CHL1  H21A16007   5.055   6.368   7.851  2.1391  0.2881 -0.0536
  132CHL1  H21B16008   5.111   6.497   7.972  0.1746 -0.6556  0.4318
  132CHL1  H21C16009   5.142   6.521   7.807  2.1553 -1.7859  1.0962
  132CHL1   C2216010   4.847   6.494   8.000  0.1878 -0.0231 -0.1081
  132CHL1  H22A16011   4.748   6.544   8.001  0.4418  0.5084  1.6701
  132CHL1  H22B16012   4.843   6.383   7.991  1.5290 -0.1384  0.4225
  132CHL1   C2316013   4.915   6.537   8.135 -0.6173  0.4496 -0.4397
  132CHL1  H23A16014   5.004   6.473   8.153  0.5372  1.6314 -1.7248
  132CHL1  H23B16015   4.963   6.635   8.111  0.3577 -0.0217 -0.4443
  132CHL1   C2416016   4.818   6.550   8.254 -0.4485  0.1163 -0.4899
  132CHL1  H24A16017   4.746   6.630   8.227 -0.7768  0.1249  0.3783
  132CHL1  H24B16018   4.757   6.458   8.267  1.9579 -1.4767  0.0377
  132CHL1   C2516019   4.894   6.567   8.389 -0.5008 -0.9219 -0.9664
  132CHL1   H2516020   4.942   6.469   8.410  0.4247 -0.6983 -1.9510
  132CHL1   C2616021   5.009   6.673   8.397 -0.2904  0.2162 -0.2021
  132CHL1  H26A16022   5.071   6.666   8.489  1.7674  0.0027 -1.5461
  132CHL1  H26B16023   5.074   6.662   8.308  0.4257 -1.0953  0.4597
  132CHL1  H26C16024   4.953   6.768   8.382 -3.2212 -1.4651 -0.6380
  132CHL1   C2716025   4.789   6.609   8.498 -0.5796 -0.4897  0.2510
  132CHL1  H27A16026   4.703   6.540   8.481  0.1083 -0.9213 -1.7809
  132CHL1  H27B16027   4.842   6.594   8.594  0.9122 -0.1350 -0.4913
  132CHL1  H27C16028   4.760   6.716   8.491 -0.5707 -0.5181 -0.2832
  133CHL1    C316029   0.145   0.039   6.756 -0.4279  0.1598  0.4184
  133CHL1    H316030   0.122   0.143   6.786 -3.9395  0.1019 -1.5094
  133CHL1    O316031   0.138   0.036   6.614 -0.2971 -0.1379  0.3818
  133CHL1   H3'16032   0.214   0.081   6.577  2.3297 -2.6811  2.2523
  133CHL1    C416033   0.286   0.002   6.800  0.6355  0.5649 -0.0118
  133CHL1   H4A16034   0.315  -0.102   6.771 -0.2446 -0.0807  1.3047
  133CHL1   H4B16035   0.365   0.058   6.746 -0.4098 -0.7330 -3.0966
  133CHL1    C516036   0.312   0.009   6.947 -1.3051 -0.5027 -0.2966
  133CHL1    C616037   0.401   0.100   6.994  0.7881 -0.1707  0.3388
  133CHL1    H616038   0.457   0.169   6.929 -1.3515  0.8128 -0.5557
  133CHL1    C716039   0.424   0.129   7.140 -0.4871 -0.2093  0.5764
  133CHL1   H7A16040   0.532   0.111   7.157  0.0962  0.4881 -1.9321
  133CHL1   H7B16041   0.402   0.235   7.168 -1.9665 -1.0540  2.8353
  133CHL1    C816042   0.336   0.041   7.238 -0.0373  1.2363 -0.1414
  133CHL1    H816043   0.389  -0.056   7.254 -0.9682  1.0789  2.5308
  133CHL1   C1416044   0.308   0.110   7.368 -0.3384  0.4584  0.6672
  133CHL1   H1416045   0.246   0.199   7.347 -1.8160 -0.5615  0.5437
  133CHL1   C1516046   0.430   0.167   7.446 -0.6810 -0.1745  0.1929
  133CHL1  H15A16047   0.513   0.096   7.428  0.5182  1.6944 -2.0803
  133CHL1  H15B16048   0.448   0.266   7.400  0.9692 -0.3616  0.3770
  133CHL1   C1616049   0.383   0.192   7.590  0.5313 -0.3677  0.3628
  133CHL1  H16A16050   0.450   0.130   7.654  0.9049  0.1271  0.4564
  133CHL1  H16B16051   0.390   0.296   7.629 -1.9656 -0.9561  2.6286
  133CHL1   C1716052   0.235   0.138   7.593 -0.5277  0.6157 -0.3052
  133CHL1   H1716053   0.167   0.225   7.583 -1.7945 -0.4426 -1.3825
  133CHL1   C1316054   0.224   0.035   7.473 -0.1242 -0.0955 -0.3734
  133CHL1   C1816055   0.310  -0.091   7.496 -0.5145  0.0226  0.0174
  133CHL1  H18A16056   0.412  -0.054   7.520 -0.4830 -0.4975  0.7061
  133CHL1  H18B16057   0.281  -0.155   7.582  1.6774 -1.5891 -0.3596
  133CHL1  H18C16058   0.308  -0.163   7.411 -0.7615 -0.8796  0.7646
  133CHL1   C1216059   0.089   0.007   7.411  0.3996 -0.0430  0.8210
  133CHL1  H12A16060   0.010  -0.036   7.477 -0.2285  0.8274  0.6596
  133CHL1  H12B16061   0.053   0.108   7.382  0.9217 -0.6053 -2.1424
  133CHL1   C1116062   0.099  -0.073   7.279 -0.1493 -0.4727  0.5772
  133CHL1  H11A16063   0.123  -0.182   7.281 -1.4534 -0.7730  0.5360
  133CHL1  H11B16064   0.002  -0.071   7.226  0.4821 -0.8823 -0.6363
  133CHL1    C916065   0.201  -0.001   7.178 -0.0884  0.3767  0.2473
  133CHL1    H916066   0.147   0.096   7.170 -2.4334 -0.9582 -1.1840
  133CHL1   C1016067   0.205  -0.062   7.033  0.6428  0.3298 -0.0541
  133CHL1   C1916068   0.242  -0.210   7.036 -0.0728 -0.4742  0.7618
  133CHL1  H19A16069   0.234  -0.252   6.933 -1.6138  1.1517  0.1685
  133CHL1  H19B16070   0.343  -0.227   7.080  0.6427  0.4200 -0.4967
  133CHL1  H19C16071   0.159  -0.263   7.087 -0.3217 -0.1681  0.6735
  133CHL1    C116072   0.059  -0.053   6.972  0.0203 -0.2877  0.1784
  133CHL1   H1A16073  -0.007  -0.122   7.028 -0.4590  0.9699  1.2151
  133CHL1   H1B16074   0.015   0.047   6.992 -4.1244 -1.4120 -2.2056
  133CHL1    C216075   0.045  -0.065   6.818 -0.8509 -0.3294  0.6432
  133CHL1   H2A16076  -0.057  -0.047   6.778 -0.4899 -1.8081 -1.0623
  133CHL1   H2B16077   0.075  -0.166   6.784 -1.3914 -0.4532  0.5236
  133CHL1   C2016078   0.223   0.079   7.734  0.5855  0.1169 -0.0478
  133CHL1   H2016079   0.298   0.002   7.761  1.0736  0.9300  0.9847
  133CHL1   C2116080   0.083   0.018   7.755  0.0297  0.6402  0.9620
  133CHL1  H21A16081   0.061   0.005   7.863  1.0912  2.7110  1.4762
  133CHL1  H21B16082   0.080  -0.081   7.704 -0.4817  0.7768  0.7143
  133CHL1  H21C16083  -0.000   0.074   7.708 -1.4616  0.0845  2.8003
  133CHL1   C2216084   0.250   0.180   7.853  0.7891 -0.6553 -0.4362
  133CHL1  H22A16085   0.231   0.116   7.942  2.4070 -2.6952 -1.4777
  133CHL1  H22B16086   0.358   0.196   7.872  0.3711 -0.0364  1.7444
  133CHL1   C2316087   0.173   0.316   7.840 -0.0752  0.8505 -0.7720
  133CHL1  H23A16088   0.220   0.361   7.750 -0.1206  2.3628 -0.0605
  133CHL1  H23B16089   0.068   0.292   7.811 -0.1385 -2.4419  1.6823
  133CHL1   C2416090   0.169   0.395   7.968 -0.3671  0.4420  0.0996
  133CHL1  H24A16091   0.169   0.332   8.060  1.5278  0.7011  0.3213
  133CHL1  H24B16092   0.265   0.451   7.967  0.5130 -1.0110 -0.9271
  133CHL1   C2516093   0.057   0.495   7.959  0.7353 -0.9806 -0.0629
  133CHL1   H2516094   0.055   0.552   7.863 -1.7751 -1.1738 -0.1963
  133CHL1   C2616095  -0.083   0.427   7.968 -0.1770  0.4711  0.0538
  133CHL1  H26A16096  -0.106   0.381   7.870  0.5851  0.9188 -0.3471
  133CHL1  H26B16097  -0.080   0.340   8.038 -0.3396  0.0647 -0.4408
  133CHL1  H26C16098  -0.161   0.501   7.994  1.2880  2.0565  0.1523
  133CHL1   C2716099   0.060   0.591   8.071  0.3513 -0.8931 -0.0104
  133CHL1  H27A16100   0.140   0.669   8.067 -0.0536 -0.4509  0.3152
  133CHL1  H27B16101  -0.036   0.647   8.069  0.8129 -0.1029 -1.6860
  133CHL1  H27C16102   0.062   0.538   8.169 -1.2956 -1.1301 -0.0776
  134CHL1    C316103   4.441   1.399   6.885 -1.2534  0.0091 -0.6445
  134CHL1    H316104   4.448   1.300   6.935 -3.0771 -1.1555 -2.5306
  134CHL1    O316105   4.466   1.376   6.749  0.0879 -0.0539  0.5387
  134CHL1   H3'16106   4.429   1.452   6.703  0.7049  0.3132  0.6446
  134CHL1    C416107   4.302   1.443   6.916 -0.2676  0.3133 -0.2027
  134CHL1   H4A16108   4.294   1.542   6.865 -5.2293  0.9400  1.2652
  134CHL1   H4B16109   4.232   1.381   6.856 -2.0850  0.7443  1.3694
  134CHL1    C516110   4.268   1.460   7.060 -0.0144 -0.0705  0.0461
  134CHL1    C616111   4.163   1.396   7.111 -0.8042 -0.3279 -0.0961
  134CHL1    H616112   4.086   1.347   7.049 -1.0615  0.7169 -0.6135
  134CHL1    C716113   4.137   1.399   7.262  0.0518 -0.1508  0.8164
  134CHL1   H7A16114   4.033   1.424   7.292  0.2832  1.1701  0.5671
  134CHL1   H7B16115   4.169   1.301   7.304  3.0583  0.5432  0.3128
  134CHL1    C816116   4.206   1.513   7.341 -0.3629  0.1902 -0.3870
  134CHL1    H816117   4.154   1.606   7.310  0.3005 -0.3929 -3.5130
  134CHL1   C1416118   4.196   1.487   7.496  0.0086  0.1458  0.3647
  134CHL1   H1416119   4.232   1.383   7.509 -1.4212 -0.1307  2.6593
  134CHL1   C1516120   4.058   1.484   7.564 -0.2215 -0.3527  0.1798
  134CHL1  H15A16121   4.000   1.576   7.539 -0.8208 -0.9104 -0.5324
  134CHL1  H15B16122   4.020   1.386   7.529  0.0570 -0.6222  0.6229
  134CHL1   C1616123   4.097   1.482   7.710  0.1426 -0.0070 -0.7869
  134CHL1  H16A16124   4.031   1.541   7.777  1.8136  1.6539 -0.5115
  134CHL1  H16B16125   4.093   1.373   7.729  0.4667 -0.3381 -2.4805
  134CHL1   C1716126   4.238   1.519   7.726 -0.2468  0.2889 -0.1886
  134CHL1   H1716127   4.296   1.426   7.742 -0.4499  0.6104  3.0816
  134CHL1   C1316128   4.270   1.584   7.588  0.3949  0.5101  0.1177
  134CHL1   C1816129   4.220   1.739   7.569 -0.0986  0.2994 -0.0359
  134CHL1  H18A16130   4.112   1.738   7.595 -0.0765 -0.1642  0.0421
  134CHL1  H18B16131   4.276   1.798   7.644  0.2297  0.5817 -0.4935
  134CHL1  H18C16132   4.228   1.780   7.465 -3.1148 -0.5052 -0.6698
  134CHL1   C1216133   4.417   1.572   7.545 -0.5557 -0.1557  1.3495
  134CHL1  H12A16134   4.489   1.636   7.601  0.6317 -1.0756  0.9057
  134CHL1  H12B16135   4.466   1.475   7.564 -0.8574 -0.8026 -0.8362
  134CHL1   C1116136   4.433   1.608   7.395 -0.3828  0.4307 -0.3623
  134CHL1  H11A16137   4.415   1.711   7.359 -0.0774  0.2224 -1.1352
  134CHL1  H11B16138   4.540   1.588   7.374  0.2073  2.5509  0.4481
  134CHL1    C916139   4.352   1.513   7.300 -0.6059  1.1212  0.3091
  134CHL1    H916140   4.390   1.411   7.322  0.1709  1.1900 -0.6638
  134CHL1   C1016141   4.371   1.539   7.147  0.0879  0.0558  0.3131
  134CHL1   C1916142   4.353   1.687   7.117  0.1823 -0.3028 -0.3565
  134CHL1  H19A16143   4.260   1.725   7.166  2.6518  0.7375  4.0501
  134CHL1  H19B16144   4.438   1.742   7.161  0.0426 -1.7609  1.9070
  134CHL1  H19C16145   4.332   1.706   7.009  0.6855  0.6898 -0.2879
  134CHL1    C116146   4.514   1.500   7.098  0.1393  0.4999  0.1383
  134CHL1   H1A16147   4.577   1.572   7.154 -0.6032 -0.7125  2.6990
  134CHL1   H1B16148   4.523   1.395   7.134 -1.2229  1.0411  2.2201
  134CHL1    C216149   4.544   1.491   6.957  0.5865 -0.0162  0.0387
  134CHL1   H2A16150   4.642   1.444   6.939  0.3356 -0.8497  0.7546
  134CHL1   H2B16151   4.542   1.595   6.916  0.4448  0.5714  1.4580
  134CHL1   C2016152   4.266   1.602   7.854 -0.0637  0.7148  0.5628
  134CHL1   H2016153   4.209   1.697   7.846 -0.4700  0.3594 -1.6682
  134CHL1   C2116154   4.420   1.647   7.855  1.2780  0.4076 -0.6040
  134CHL1  H21A16155   4.441   1.717   7.771 -2.1742  1.6150 -0.6004
  134CHL1  H21B16156   4.489   1.560   7.847  1.6936  0.6287  0.4043
  134CHL1  H21C16157   4.445   1.713   7.942  0.3943  1.5260 -1.1684
  134CHL1   C2216158   4.221   1.528   7.975  0.4283 -0.0685  0.3171
  134CHL1  H22A16159   4.110   1.520   7.975  0.4266 -1.0221 -2.3387
  134CHL1  H22B16160   4.261   1.425   7.987  0.7554  0.1285  0.9767
  134CHL1   C2316161   4.265   1.592   8.110 -0.6699 -0.1583 -1.1542
  134CHL1  H23A16162   4.374   1.584   8.132 -0.5552  1.5076 -0.9436
  134CHL1  H23B16163   4.235   1.699   8.101 -0.2440  0.2141  1.2381
  134CHL1   C2416164   4.175   1.538   8.224  0.6057  0.3807 -0.3912
  134CHL1  H24A16165   4.070   1.558   8.194  0.8028 -1.1999 -2.3783
  134CHL1  H24B16166   4.185   1.428   8.232  2.0500  0.5929  1.3997
  134CHL1   C2516167   4.220   1.584   8.367 -0.3128  0.2739  0.4922
  134CHL1   H2516168   4.331   1.576   8.359 -0.2742  1.2162 -0.2305
  134CHL1   C2616169   4.188   1.729   8.395 -0.2706  0.0123 -0.5879
  134CHL1  H26A16170   4.240   1.765   8.486  0.4433  1.9549 -1.7070
  134CHL1  H26B16171   4.243   1.787   8.318 -0.2140  0.1789 -0.4219
  134CHL1  H26C16172   4.078   1.748   8.396 -0.5019 -1.2892  0.3052
  134CHL1   C2716173   4.162   1.493   8.472 -0.1971 -0.3494 -0.1238
  134CHL1  H27A16174   4.217   1.506   8.567 -0.8645 -1.0556  0.3743
  134CHL1  H27B16175   4.057   1.513   8.502 -0.3420  1.3472 -1.5740
  134CHL1  H27C16176   4.175   1.387   8.442  1.6843 -0.6426  1.5128
  135CHL1    C316177   4.621   0.673   6.665  0.6541 -0.1143  0.4468
  135CHL1    H316178   4.570   0.574   6.655 -0.3132  0.5257 -1.4404
  135CHL1    O316179   4.634   0.728   6.535 -0.1891 -0.2688  0.4956
  135CHL1   H3'16180   4.690   0.805   6.548 -0.7749  0.6044 -1.6815
  135CHL1    C416181   4.535   0.763   6.754 -0.7874  0.2290  0.2950
  135CHL1   H4A16182   4.586   0.862   6.761 -3.7571  1.9019  0.1648
  135CHL1   H4B16183   4.438   0.779   6.701  0.5189 -0.4312 -2.4691
  135CHL1    C516184   4.516   0.700   6.886  0.1970  0.1820 -0.5751
  135CHL1    C616185   4.399   0.663   6.934 -0.1437  0.5152 -0.5171
  135CHL1    H616186   4.305   0.678   6.880 -0.1626  1.0737 -0.3318
  135CHL1    C716187   4.381   0.599   7.073 -0.0455 -0.3103  0.6876
  135CHL1   H7A16188   4.289   0.646   7.114 -0.8638 -0.6259 -0.7416
  135CHL1   H7B16189   4.367   0.490   7.057  1.2999 -0.8993  3.0269
  135CHL1    C816190   4.504   0.629   7.165 -0.4434 -0.3998 -0.9584
  135CHL1    H816191   4.506   0.739   7.183 -0.5089 -0.4358 -0.7296
  135CHL1   C1416192   4.489   0.553   7.293  1.0809  0.5129  0.1784
  135CHL1   H1416193   4.474   0.450   7.255  1.6974  1.0971 -1.7694
  135CHL1   C1516194   4.369   0.593   7.380 -0.0794 -0.4860 -0.2504
  135CHL1  H15A16195   4.367   0.704   7.382  2.7997 -0.3789  0.7283
  135CHL1  H15B16196   4.273   0.555   7.339  0.4811 -0.9252 -1.1824
  135CHL1   C1616197   4.400   0.538   7.516  0.4409  0.2411  0.2328
  135CHL1  H16A16198   4.384   0.626   7.582 -0.5354  2.4534 -2.7609
  135CHL1  H16B16199   4.331   0.457   7.548  0.5556  0.1228  0.1829
  135CHL1   C1716200   4.547   0.483   7.516  0.1615 -0.0494 -0.3739
  135CHL1   H1716201   4.550   0.375   7.494  2.5579 -0.0079 -0.5227
  135CHL1   C1316202   4.611   0.560   7.392 -0.0613  0.4001 -0.4618
  135CHL1   C1816203   4.650   0.702   7.433 -0.1841  0.4028 -0.0199
  135CHL1  H18A16204   4.717   0.700   7.521  1.7062 -2.1509 -1.3818
  135CHL1  H18B16205   4.707   0.764   7.360  2.6264 -0.5668  1.2075
  135CHL1  H18C16206   4.562   0.756   7.473 -0.7829 -0.7766  0.3038
  135CHL1   C1216207   4.723   0.490   7.318 -0.1901  0.2758  0.6604
  135CHL1  H12A16208   4.817   0.480   7.377  0.1343  0.3026  0.1560
  135CHL1  H12B16209   4.685   0.393   7.279 -0.0606 -0.0052  1.2153
  135CHL1   C1116210   4.762   0.570   7.185  0.1180  0.5814  0.5348
  135CHL1  H11A16211   4.807   0.670   7.200  0.5911  0.9839 -2.7865
  135CHL1  H11B16212   4.840   0.510   7.134 -1.0887  0.5040 -1.3636
  135CHL1    C916213   4.633   0.590   7.086  0.9971 -0.1926 -0.4697
  135CHL1    H916214   4.601   0.495   7.038 -0.0552  0.4850 -1.1406
  135CHL1   C1016215   4.654   0.682   6.962  0.2352 -0.1163 -0.0718
  135CHL1   C1916216   4.713   0.818   7.000 -0.1027 -0.0753 -0.2039
  135CHL1  H19A16217   4.643   0.879   7.061 -0.4119 -1.4128  0.8187
  135CHL1  H19B16218   4.811   0.806   7.050 -0.2871  1.2277  0.5041
  135CHL1  H19C16219   4.733   0.878   6.909  2.0715  0.0482  0.3238
  135CHL1    C116220   4.747   0.608   6.865 -0.1918  0.7141  0.0224
  135CHL1   H1A16221   4.852   0.602   6.901 -0.2623 -2.1449 -0.0613
  135CHL1   H1B16222   4.698   0.510   6.853 -0.6402  0.4776  3.1211
  135CHL1    C216223   4.758   0.659   6.720  0.6474 -0.4117  0.4121
  135CHL1   H2A16224   4.822   0.591   6.659 -0.1885  0.5430 -1.6121
  135CHL1   H2B16225   4.809   0.758   6.728  0.9881 -0.6192  0.8199
  135CHL1   C2016226   4.621   0.494   7.653  0.5461  0.1121  0.7845
  135CHL1   H2016227   4.630   0.602   7.676  0.6347 -0.0146  1.3596
  135CHL1   C2116228   4.765   0.433   7.655  0.0877 -0.0465  1.0764
  135CHL1  H21A16229   4.817   0.438   7.753 -1.1371 -3.0699  1.9686
  135CHL1  H21B16230   4.825   0.490   7.580 -0.4894 -0.7430  0.0582
  135CHL1  H21C16231   4.761   0.329   7.616 -1.4353  0.0009  1.0741
  135CHL1   C2216232   4.543   0.431   7.770  0.2106 -0.5052  0.0207
  135CHL1  H22A16233   4.437   0.463   7.782 -0.1927 -1.7720  0.0115
  135CHL1  H22B16234   4.547   0.323   7.743  1.3790 -0.2338 -0.9639
  135CHL1   C2316235   4.607   0.455   7.905  0.7664 -0.4684 -0.3999
  135CHL1  H23A16236   4.709   0.414   7.920  1.3776  0.8432 -0.8072
  135CHL1  H23B16237   4.622   0.564   7.920  0.8040 -0.6349  0.9654
  135CHL1   C2416238   4.515   0.398   8.017  0.1903  0.4617 -0.1807
  135CHL1  H24A16239   4.429   0.464   8.042 -0.9755 -1.0257 -0.0571
  135CHL1  H24B16240   4.458   0.312   7.975  0.2999 -0.9298  2.3319
  135CHL1   C2516241   4.588   0.356   8.143 -0.2633  0.2062 -0.4845
  135CHL1   H2516242   4.654   0.270   8.122 -0.1577 -0.5836  2.6381
  135CHL1   C2616243   4.679   0.473   8.197 -1.0477  0.1142 -0.1855
  135CHL1  H26A16244   4.617   0.565   8.199 -1.6133 -0.2564 -0.4658
  135CHL1  H26B16245   4.722   0.453   8.297 -1.0123  0.6185 -0.0947
  135CHL1  H26C16246   4.754   0.508   8.123 -0.6979  0.5830  0.3825
  135CHL1   C2716247   4.484   0.310   8.253  0.1586  0.8875 -0.0392
  135CHL1  H27A16248   4.408   0.386   8.279 -2.5255 -0.7947 -2.3974
  135CHL1  H27B16249   4.414   0.233   8.212 -1.6528  2.1752  0.5218
  135CHL1  H27C16250   4.537   0.270   8.342  1.1438  2.0991 -0.0523
  136CHL1    C316251   5.130   6.979   6.858 -0.3330  0.4656  0.0449
  136CHL1    H316252   5.125   6.868   6.853  0.8098  0.4644 -2.6299
  136CHL1    O316253   5.176   7.016   6.729 -0.0486 -0.0398  0.5479
  136CHL1   H3'16254   5.241   7.087   6.736 -0.2399  0.2265 -0.2398
  136CHL1    C416255   4.983   7.036   6.879  0.8184  0.1141  0.2808
  136CHL1   H4A16256   4.971   7.135   6.830 -0.3171  0.9133  2.1026
  136CHL1   H4B16257   4.917   6.965   6.825  3.2673 -0.0774 -2.7487
  136CHL1    C516258   4.935   7.035   7.021  1.0811  0.0317  0.3520
  136CHL1    C616259   4.812   6.997   7.055  0.0179  0.3425  0.0701
  136CHL1    H616260   4.747   6.961   6.974 -0.9946  0.0292  0.9883
  136CHL1    C716261   4.751   7.016   7.189 -0.5962  0.2322 -0.7280
  136CHL1   H7A16262   4.648   7.057   7.180 -0.7028  0.2316  0.2790
  136CHL1   H7B16263   4.737   6.916   7.236  3.1418  0.3420  1.0281
  136CHL1    C816264   4.838   7.103   7.285 -0.7200  0.4963  0.3246
  136CHL1    H816265   4.819   7.207   7.251 -0.0963  0.4578 -0.1614
  136CHL1   C1416266   4.796   7.090   7.429 -0.6178  0.1986  0.6471
  136CHL1   H1416267   4.825   6.984   7.443 -0.0971 -0.0351 -1.8020
  136CHL1   C1516268   4.646   7.098   7.463  0.1614  0.2766 -0.1024
  136CHL1  H15A16269   4.597   7.194   7.436  0.8706  0.3017 -1.4060
  136CHL1  H15B16270   4.593   7.014   7.413 -1.0725  1.4764 -0.8677
  136CHL1   C1616271   4.638   7.093   7.613  0.3327 -0.7484 -0.0468
  136CHL1  H16A16272   4.569   7.172   7.649  0.7319 -1.2896  2.0332
  136CHL1  H16B16273   4.593   7.000   7.655 -1.2977 -1.1432 -2.4034
  136CHL1   C1716274   4.791   7.113   7.663  0.3782  0.1797 -0.5366
  136CHL1   H1716275   4.831   7.010   7.679 -1.0169 -0.6854 -2.2060
  136CHL1   C1316276   4.879   7.155   7.534 -0.4911 -0.0163 -0.2850
  136CHL1   C1816277   4.857   7.306   7.520 -0.3165 -0.2519 -0.2640
  136CHL1  H18A16278   4.751   7.337   7.532 -0.4867 -0.4396 -1.2463
  136CHL1  H18B16279   4.926   7.370   7.579 -0.3102  1.1618 -1.7343
  136CHL1  H18C16280   4.869   7.336   7.414  2.7039  0.9171  0.3032
  136CHL1   C1216281   5.028   7.125   7.515 -0.2948  0.0648 -0.8476
  136CHL1  H12A16282   5.093   7.192   7.576  1.4140 -0.9825 -1.4493
  136CHL1  H12B16283   5.047   7.016   7.520  0.0223  0.1296 -0.6100
  136CHL1   C1116284   5.077   7.159   7.374 -0.1507 -0.1563  0.7422
  136CHL1  H11A16285   5.071   7.267   7.350 -1.0889 -0.3802 -0.1051
  136CHL1  H11B16286   5.176   7.112   7.360  0.2774 -0.1526  3.2489
  136CHL1    C916287   4.990   7.083   7.265  0.0687  0.2931  0.2318
  136CHL1    H916288   5.003   6.978   7.297 -2.0232 -0.0170  0.1878
  136CHL1   C1016289   5.041   7.085   7.120  0.4263  0.1545  0.1398
  136CHL1   C1916290   5.073   7.236   7.090 -0.3838 -0.3948 -0.1916
  136CHL1  H19A16291   5.101   7.252   6.984  0.6242  2.4397  0.4090
  136CHL1  H19B16292   4.990   7.308   7.110 -0.0362 -0.4245  1.5128
  136CHL1  H19C16293   5.157   7.275   7.150  0.2989 -0.6066 -0.9927
  136CHL1    C116294   5.168   6.999   7.101 -0.2158 -0.4068  0.3357
  136CHL1   H1A16295   5.243   7.037   7.173  0.0501  1.0940 -0.6702
  136CHL1   H1B16296   5.159   6.891   7.123 -1.5853 -0.1703  1.1007
  136CHL1    C216297   5.230   7.021   6.958 -0.3999  0.3519 -0.1179
  136CHL1   H2A16298   5.326   6.965   6.949  1.0364  2.7431 -0.5354
  136CHL1   H2B16299   5.262   7.127   6.944  0.6296  0.1112  0.3355
  136CHL1   C2016300   4.815   7.195   7.790  0.2890 -0.6997  0.0547
  136CHL1   H2016301   4.775   7.298   7.778 -1.2994 -1.2121  0.7598
  136CHL1   C2116302   4.963   7.208   7.834 -0.3094  0.6579  0.3054
  136CHL1  H21A16303   5.005   7.110   7.864  2.9683  1.7881 -0.1769
  136CHL1  H21B16304   4.983   7.280   7.917 -1.5410 -0.3392  1.5118
  136CHL1  H21C16305   5.023   7.240   7.747  0.3307  0.1895  0.5674
  136CHL1   C2216306   4.734   7.135   7.905 -0.0113 -0.3269 -0.4632
  136CHL1  H22A16307   4.765   7.203   7.988 -0.6640 -1.0644  0.4183
  136CHL1  H22B16308   4.624   7.149   7.894 -0.0715 -0.5117 -0.1090
  136CHL1   C2316309   4.760   6.992   7.940 -0.0705 -0.4052  0.2597
  136CHL1  H23A16310   4.730   6.924   7.858  0.3520 -1.6000  1.0628
  136CHL1  H23B16311   4.868   6.978   7.962  0.2631  0.5982 -0.6777
  136CHL1   C2416312   4.677   6.963   8.064 -0.0855  0.0846  0.2594
  136CHL1  H24A16313   4.577   6.999   8.032  0.2997 -0.0280 -1.1289
  136CHL1  H24B16314   4.678   6.854   8.081 -2.7781 -0.2187 -1.0458
  136CHL1   C2516315   4.717   7.030   8.202 -0.3594  0.5259 -0.1535
  136CHL1   H2516316   4.731   7.140   8.192  0.6564  0.1980 -3.5825
  136CHL1   C2616317   4.612   6.996   8.312  0.1215  0.0615  0.6347
  136CHL1  H26A16318   4.583   6.889   8.308 -0.1855  0.1811 -0.6212
  136CHL1  H26B16319   4.667   7.016   8.407  1.7263 -2.3700  0.3095
  136CHL1  H26C16320   4.520   7.056   8.293  0.0052 -0.8542 -2.0832
  136CHL1   C2716321   4.853   6.971   8.253 -0.1760 -0.3553  0.6717
  136CHL1  H27A16322   4.844   6.860   8.253  1.7764 -0.5568 -0.4893
  136CHL1  H27B16323   4.928   6.991   8.173  0.0900  0.5736  1.1414
  136CHL1  H27C16324   4.878   7.001   8.357 -0.7030  1.6999  0.2537
  137CHL1    C316325   7.437   7.173   6.656 -0.0594  0.4632  0.4145
  137CHL1    H316326   7.455   7.067   6.684 -1.4968 -0.0618 -0.5524
  137CHL1    O316327   7.431   7.185   6.517 -0.2723 -0.2896 -0.0745
  137CHL1   H3'16328   7.436   7.280   6.502  0.6802  0.1585  2.4298
  137CHL1    C416329   7.297   7.211   6.711 -0.5114  0.4610  0.1598
  137CHL1   H4A16330   7.271   7.312   6.674  0.7111  1.0629  0.8922
  137CHL1   H4B16331   7.210   7.151   6.677  0.4428 -0.5814 -0.5176
  137CHL1    C516332   7.305   7.199   6.866 -0.4672 -0.9877  1.0167
  137CHL1    C616333   7.224   7.116   6.930 -0.1027 -0.2591 -0.0147
  137CHL1    H616334   7.153   7.061   6.866 -0.0367 -1.8460  1.2145
  137CHL1    C716335   7.206   7.103   7.078 -0.3242 -0.1990 -0.2978
  137CHL1   H7A16336   7.098   7.113   7.104 -0.4561 -0.8103 -0.5887
  137CHL1   H7B16337   7.241   7.004   7.114  0.4807  0.7159  1.5486
  137CHL1    C816338   7.282   7.219   7.149 -0.5734 -0.1798 -0.4475
  137CHL1    H816339   7.222   7.310   7.128 -0.1634  0.9190  2.6881
  137CHL1   C1416340   7.301   7.187   7.297  0.4431 -0.2992  0.6512
  137CHL1   H1416341   7.345   7.086   7.307 -0.8612 -0.7989  1.6411
  137CHL1   C1516342   7.178   7.159   7.380  0.6954 -0.1604 -0.2836
  137CHL1  H15A16343   7.105   7.242   7.363  0.6312  0.1514  1.3476
  137CHL1  H15B16344   7.122   7.067   7.353  1.2799 -1.1378  1.6711
  137CHL1   C1616345   7.231   7.154   7.524  0.3844  0.0227  0.3001
  137CHL1  H16A16346   7.159   7.215   7.583  0.6361 -0.1927  0.8321
  137CHL1  H16B16347   7.233   7.049   7.562  1.1781  0.4539  1.4901
  137CHL1   C1716348   7.368   7.223   7.521  0.4074 -0.4338 -0.2546
  137CHL1   H1716349   7.428   7.130   7.516 -0.4681 -0.9599 -1.2748
  137CHL1   C1316350   7.385   7.285   7.379 -0.2219 -0.1561 -0.2264
  137CHL1   C1816351   7.325   7.424   7.377 -0.1682 -0.2111  0.9921
  137CHL1  H18A16352   7.306   7.460   7.274  3.6857 -0.1911  0.1299
  137CHL1  H18B16353   7.234   7.443   7.438 -0.7956 -1.0862  0.3410
  137CHL1  H18C16354   7.400   7.494   7.420  0.6719 -0.0781 -0.6026
  137CHL1   C1216355   7.535   7.287   7.325  0.7136  0.1329  0.3676
  137CHL1  H12A16356   7.590   7.370   7.374 -0.5393  0.3382  1.5031
  137CHL1  H12B16357   7.582   7.187   7.326  0.9902  0.2541  1.9423
  137CHL1   C1116358   7.526   7.332   7.175 -0.3598 -0.0684 -0.5872
  137CHL1  H11A16359   7.484   7.435   7.177  1.0625  0.5935 -2.1788
  137CHL1  H11B16360   7.630   7.335   7.134 -0.8694  0.5442 -1.9102
  137CHL1    C916361   7.425   7.246   7.086  0.1183 -0.0867 -0.0904
  137CHL1    H916362   7.476   7.147   7.095  0.5098 -0.1155 -2.2345
  137CHL1   C1016363   7.416   7.293   6.935  0.0901  0.3290 -0.1400
  137CHL1   C1916364   7.369   7.443   6.921  0.5198 -0.3737 -0.8789
  137CHL1  H19A16365   7.364   7.468   6.813  1.1046 -2.6873 -1.4925
  137CHL1  H19B16366   7.272   7.467   6.970  0.1334 -4.8377  0.9963
  137CHL1  H19C16367   7.445   7.512   6.965  1.3937 -1.1281 -1.1807
  137CHL1    C116368   7.551   7.261   6.863 -0.4309  0.1983  0.4399
  137CHL1   H1A16369   7.630   7.326   6.908  0.6269 -1.7962  1.6409
  137CHL1   H1B16370   7.586   7.158   6.887  0.2665  0.2045 -0.4934
  137CHL1    C216371   7.542   7.271   6.708  0.1714  0.1155 -0.3777
  137CHL1   H2A16372   7.647   7.245   6.683  0.4241 -0.8270  1.5180
  137CHL1   H2B16373   7.522   7.373   6.667  0.7998  0.3739 -0.0512
  137CHL1   C2016374   7.396   7.306   7.649  0.0565 -0.9426 -0.3313
  137CHL1   H2016375   7.333   7.397   7.645  2.4065  0.8240  0.6804
  137CHL1   C2116376   7.540   7.348   7.648  0.4144  0.3557 -0.4585
  137CHL1  H21A16377   7.583   7.378   7.746  0.3071 -1.0279  0.0382
  137CHL1  H21B16378   7.561   7.433   7.580 -0.0913  0.1504 -0.8742
  137CHL1  H21C16379   7.590   7.259   7.605  0.7162  0.8272 -1.1008
  137CHL1   C2216380   7.359   7.237   7.780  0.2990  1.1393  0.3466
  137CHL1  H22A16381   7.374   7.295   7.874  0.9635  1.3555  0.1141
  137CHL1  H22B16382   7.248   7.236   7.776  0.3263  1.5646 -0.7216
  137CHL1   C2316383   7.409   7.093   7.801  0.2114 -0.5162 -0.4236
  137CHL1  H23A16384   7.336   7.022   7.757  0.3334 -0.5405 -0.5881
  137CHL1  H23B16385   7.509   7.088   7.751 -0.3038  2.1536 -1.9834
  137CHL1   C2416386   7.441   7.048   7.952 -0.3980  0.3201  0.4822
  137CHL1  H24A16387   7.506   7.124   8.002 -0.7118  0.0257  1.3585
  137CHL1  H24B16388   7.344   7.055   8.006 -0.5003  0.0495  0.3330
  137CHL1   C2516389   7.497   6.910   7.977 -0.2677 -0.3577  0.0322
  137CHL1   H2516390   7.449   6.833   7.913  2.0253 -1.4894 -0.4415
  137CHL1   C2616391   7.649   6.915   7.954 -0.2187  0.2341  0.1584
  137CHL1  H26A16392   7.674   6.936   7.848  1.4000 -2.4511 -0.0886
  137CHL1  H26B16393   7.698   7.001   8.003  1.4170 -0.2318 -0.5733
  137CHL1  H26C16394   7.700   6.818   7.977  1.7434  1.3739  0.8373
  137CHL1   C2716395   7.487   6.864   8.118  0.0681  1.0881 -0.0030
  137CHL1  H27A16396   7.536   6.944   8.178  0.1024  1.5772 -0.6757
  137CHL1  H27B16397   7.378   6.863   8.141 -0.2414 -0.4124 -1.3342
  137CHL1  H27C16398   7.536   6.767   8.141 -2.3139  0.4989  3.4748
  138CHL1    C316399   5.601   7.117   7.014  0.0258  0.9313  0.1523
  138CHL1    H316400   5.497   7.081   7.004  0.0397  0.9350 -0.0086
  138CHL1    O316401   5.670   7.065   6.898  0.2190 -0.3697 -0.2977
  138CHL1   H3'16402   5.756   7.106   6.892  0.4063 -0.3850  1.5663
  138CHL1    C416403   5.606   7.274   7.011  0.0454  0.3437 -0.0190
  138CHL1   H4A16404   5.708   7.317   7.011 -0.1486  1.2702 -4.3595
  138CHL1   H4B16405   5.561   7.302   6.913 -1.2045 -1.1991  0.0570
  138CHL1    C516406   5.532   7.324   7.131  0.3053  0.1671 -0.3541
  138CHL1    C616407   5.436   7.410   7.113  0.0163  0.3363 -0.3793
  138CHL1    H616408   5.410   7.451   7.014 -0.3377  0.1320 -0.3720
  138CHL1    C716409   5.366   7.483   7.222 -0.0399 -0.1921  0.3777
  138CHL1   H7A16410   5.376   7.593   7.211 -1.1822 -0.2838 -2.1293
  138CHL1   H7B16411   5.257   7.463   7.215 -0.1255  0.2744  0.2941
  138CHL1    C816412   5.429   7.458   7.365  0.2678  0.2753  0.3373
  138CHL1    H816413   5.515   7.527   7.376 -0.7181  1.4135  1.1451
  138CHL1   C1416414   5.326   7.487   7.476  0.7438 -0.2055  0.0569
  138CHL1   H1416415   5.245   7.414   7.453  0.4618  0.4789 -1.1941
  138CHL1   C1516416   5.265   7.619   7.471  0.0523 -0.0319 -0.0790
  138CHL1  H15A16417   5.338   7.694   7.433  0.7339 -0.4075  0.4774
  138CHL1  H15B16418   5.176   7.615   7.403  0.2574  2.7271 -0.6316
  138CHL1   C1616419   5.211   7.645   7.611 -0.5816  0.1178 -0.5103
  138CHL1  H16A16420   5.258   7.733   7.659 -0.6729 -0.1972  0.1692
  138CHL1  H16B16421   5.100   7.650   7.621 -0.6958 -0.8644 -1.1160
  138CHL1   C1716422   5.249   7.513   7.695 -0.5347 -0.2562  0.0357
  138CHL1   H1716423   5.164   7.448   7.668  0.2959 -0.2762 -2.8757
  138CHL1   C1316424   5.377   7.465   7.616  0.7080  0.0820 -0.0729
  138CHL1   C1816425   5.494   7.556   7.652  0.2654 -0.0995  0.1158
  138CHL1  H18A16426   5.586   7.540   7.592 -0.3664 -1.0729 -0.6127
  138CHL1  H18B16427   5.463   7.661   7.636  0.1296 -0.4124 -1.8642
  138CHL1  H18C16428   5.528   7.553   7.758  0.4602 -1.7093  0.0371
  138CHL1   C1216429   5.407   7.319   7.627  0.7977  0.2678 -0.1874
  138CHL1  H12A16430   5.431   7.304   7.735  2.0837 -0.0788 -0.4987
  138CHL1  H12B16431   5.311   7.268   7.608  0.0299  1.5353  0.1731
  138CHL1   C1116432   5.513   7.272   7.529  0.8109 -0.4722  0.8777
  138CHL1  H11A16433   5.601   7.334   7.557  0.3974 -0.8055  3.1375
  138CHL1  H11B16434   5.536   7.164   7.541 -0.0638 -0.7205  0.4034
  138CHL1    C916435   5.473   7.310   7.383 -0.2475  0.1265  0.0523
  138CHL1    H916436   5.388   7.243   7.358  0.7487 -0.4575 -2.0184
  138CHL1   C1016437   5.576   7.273   7.274  0.3751 -0.3005  0.1344
  138CHL1   C1916438   5.714   7.335   7.289  0.1822  0.3266 -0.3610
  138CHL1  H19A16439   5.760   7.287   7.378  0.6950  0.6721 -0.4347
  138CHL1  H19B16440   5.786   7.317   7.206  0.5647  0.9897 -0.1871
  138CHL1  H19C16441   5.720   7.445   7.302  2.2390  0.0381  1.9334
  138CHL1    C116442   5.582   7.115   7.260  0.1338 -0.3268 -0.2568
  138CHL1   H1A16443   5.635   7.081   7.352 -0.2794 -1.6302 -0.4741
  138CHL1   H1B16444   5.484   7.063   7.262 -0.2086  0.3135  1.4792
  138CHL1    C216445   5.668   7.062   7.140 -0.1822  0.6563  0.0238
  138CHL1   H2A16446   5.672   6.951   7.142  0.2234  0.6781  0.9664
  138CHL1   H2B16447   5.771   7.104   7.141 -1.1303  3.1504  1.5117
  138CHL1   C2016448   5.264   7.523   7.844 -0.0868 -0.7285 -0.2520
  138CHL1   H2016449   5.363   7.569   7.866  0.6475 -1.4222 -1.9107
  138CHL1   C2116450   5.264   7.389   7.923 -0.1233  0.0554 -0.8848
  138CHL1  H21A16451   5.243   7.407   8.031  2.5836  1.7192 -0.5208
  138CHL1  H21B16452   5.369   7.355   7.935 -0.2987 -0.8225 -1.7002
  138CHL1  H21C16453   5.206   7.304   7.883  1.2974 -0.8556 -1.0826
  138CHL1   C2216454   5.167   7.624   7.908 -0.0334  0.3788  0.0448
  138CHL1  H22A16455   5.180   7.721   7.856  1.3700  0.8590  1.2135
  138CHL1  H22B16456   5.062   7.595   7.889  0.5231 -1.2121 -0.8409
  138CHL1   C2316457   5.178   7.664   8.057 -0.0901 -0.2611 -0.6007
  138CHL1  H23A16458   5.146   7.574   8.115 -1.4324  0.1329 -0.6861
  138CHL1  H23B16459   5.285   7.686   8.076  0.0922  0.2833 -2.1607
  138CHL1   C2416460   5.096   7.784   8.084  0.2970 -0.5554 -0.0978
  138CHL1  H24A16461   5.152   7.862   8.029 -0.2960 -0.1328 -0.1038
  138CHL1  H24B16462   4.996   7.774   8.036  1.5196 -1.1290 -2.6993
  138CHL1   C2516463   5.078   7.830   8.224  0.0579  0.1764  0.3871
  138CHL1   H2516464   5.175   7.873   8.257  1.5124 -1.5382 -1.4532
  138CHL1   C2616465   4.972   7.938   8.236  0.3325 -0.1124 -0.1309
  138CHL1  H26A16466   4.998   8.008   8.319  1.9623 -1.4680  0.5535
  138CHL1  H26B16467   4.960   8.004   8.147  1.2947  0.1169 -0.1056
  138CHL1  H26C16468   4.872   7.897   8.261  0.4106 -1.2693 -1.6107
  138CHL1   C2716469   5.042   7.718   8.319 -0.1612  0.2048  0.2808
  138CHL1  H27A16470   5.126   7.646   8.328 -1.2341 -1.1232  0.1181
  138CHL1  H27B16471   5.017   7.758   8.419 -0.6909 -1.4253  0.8349
  138CHL1  H27C16472   4.953   7.665   8.278  0.1172  0.2696 -0.4204
  139CHL1    C316473   6.972   4.889   6.893 -0.0582 -0.2329 -0.6846
  139CHL1    H316474   7.079   4.915   6.912 -1.0840  2.5273  2.3366
  139CHL1    O316475   6.951   4.912   6.754  0.3440  0.2371 -0.1879
  139CHL1   H3'16476   6.858   4.910   6.732  0.2915  0.4440  0.0114
  139CHL1    C416477   6.939   4.743   6.919 -0.1600  1.0046 -0.4079
  139CHL1   H4A16478   6.837   4.725   6.877 -0.3775 -0.9632  0.8380
  139CHL1   H4B16479   7.018   4.680   6.873  1.5343  3.0806 -0.4851
  139CHL1    C516480   6.943   4.707   7.068  0.7057  0.8266 -0.2725
  139CHL1    C616481   7.023   4.606   7.114 -1.0655  0.1805  0.3247
  139CHL1    H616482   7.082   4.546   7.044 -0.4212 -0.7350  1.6053
  139CHL1    C716483   7.040   4.570   7.260  0.1412 -0.1196 -0.4961
  139CHL1   H7A16484   7.043   4.459   7.269  1.0436 -0.4073 -3.3644
  139CHL1   H7B16485   7.141   4.602   7.293  0.5123 -1.4546 -0.2645
  139CHL1    C816486   6.936   4.625   7.353  0.6253 -0.0182  0.0970
  139CHL1    H816487   6.847   4.562   7.337 -1.3707  2.7794 -0.6109
  139CHL1   C1416488   6.992   4.614   7.495 -0.0857  0.0273  0.3049
  139CHL1   H1416489   7.089   4.668   7.501  1.0490 -2.0073  1.7436
  139CHL1   C1516490   7.033   4.475   7.545 -0.2024 -0.2887  0.5460
  139CHL1  H15A16491   6.960   4.397   7.514  2.1523 -1.6698 -1.9885
  139CHL1  H15B16492   7.133   4.439   7.512 -0.1334  1.4277 -1.2806
  139CHL1   C1616493   7.023   4.484   7.701  0.3743 -0.6240  0.1874
  139CHL1  H16A16494   6.943   4.416   7.736 -1.0252 -1.2342 -3.6752
  139CHL1  H16B16495   7.120   4.468   7.753  0.9981  1.8076 -0.1128
  139CHL1   C1716496   6.993   4.635   7.734  0.1188 -0.0505  0.5330
  139CHL1   H1716497   7.083   4.697   7.714 -1.3533  1.6861 -1.1224
  139CHL1   C1316498   6.910   4.678   7.606 -0.5793 -0.2763 -0.3086
  139CHL1   C1816499   6.764   4.619   7.612  0.3429  0.2423  0.1412
  139CHL1  H18A16500   6.736   4.627   7.505  3.1106  0.2378 -0.6617
  139CHL1  H18B16501   6.769   4.514   7.647 -1.1628  0.4986  1.1853
  139CHL1  H18C16502   6.700   4.664   7.691  1.1904 -3.7741  3.5213
  139CHL1   C1216503   6.903   4.835   7.570 -0.0127 -0.2783  0.0762
  139CHL1  H12A16504   6.837   4.882   7.647  0.7044 -0.0151  0.5344
  139CHL1  H12B16505   7.006   4.875   7.573 -0.7585  1.7958 -0.5598
  139CHL1   C1116506   6.842   4.852   7.427 -0.4535  0.5562  0.1654
  139CHL1  H11A16507   6.737   4.817   7.430 -0.3488  0.1933 -0.2615
  139CHL1  H11B16508   6.841   4.959   7.396 -0.9478  0.8024  1.0184
  139CHL1    C916509   6.912   4.776   7.315 -0.4138  0.1455 -0.2517
  139CHL1    H916510   7.014   4.820   7.314 -0.6077  0.6073 -1.9625
  139CHL1   C1016511   6.867   4.795   7.170  0.4437  0.4698 -0.1066
  139CHL1   C1916512   6.714   4.764   7.170 -0.0764  0.1095  0.1932
  139CHL1  H19A16513   6.686   4.770   7.063  0.7532 -3.0526 -0.2805
  139CHL1  H19B16514   6.692   4.662   7.207 -3.0684  0.5632 -0.0346
  139CHL1  H19C16515   6.658   4.845   7.223  1.6540  0.3587  1.7341
  139CHL1    C116516   6.897   4.942   7.123 -0.4518  0.6021 -0.1683
  139CHL1   H1A16517   6.840   5.009   7.191  0.3484 -0.2059  1.3526
  139CHL1   H1B16518   7.000   4.970   7.153  0.0013 -2.9955  2.1216
  139CHL1    C216519   6.876   4.975   6.980 -0.2727 -0.2621  0.1513
  139CHL1   H2A16520   6.907   5.079   6.957 -2.0528  0.2595 -0.0233
  139CHL1   H2B16521   6.771   4.974   6.946  0.7334 -1.7649 -3.3524
  139CHL1   C2016522   6.938   4.667   7.871  0.2154  0.1780  0.1809
  139CHL1   H2016523   6.873   4.755   7.847 -0.5324 -0.3679  0.1816
  139CHL1   C2116524   7.059   4.721   7.952 -0.1692 -0.7821 -0.3219
  139CHL1  H21A16525   7.134   4.640   7.967  1.6853  1.1579  1.7267
  139CHL1  H21B16526   7.019   4.760   8.048  0.7456 -1.4342  0.3459
  139CHL1  H21C16527   7.094   4.812   7.899  1.5620  0.0918  2.1361
  139CHL1   C2216528   6.852   4.558   7.935 -0.0299 -0.7546 -0.1427
  139CHL1  H22A16529   6.775   4.528   7.860  0.6349 -1.0185 -0.7388
  139CHL1  H22B16530   6.916   4.471   7.961 -0.8597 -1.1759  0.5459
  139CHL1   C2316531   6.766   4.607   8.055  0.5701  0.0733 -0.1327
  139CHL1  H23A16532   6.733   4.514   8.105  1.5463  0.6404  1.6573
  139CHL1  H23B16533   6.826   4.670   8.124 -0.2237  0.8410 -0.1179
  139CHL1   C2416534   6.648   4.704   8.012 -0.2888 -0.1161  0.1327
  139CHL1  H24A16535   6.688   4.793   7.960 -0.3210 -0.1922 -0.0223
  139CHL1  H24B16536   6.595   4.651   7.930  0.7508 -0.7633 -0.1500
  139CHL1   C2516537   6.554   4.744   8.125  0.2641  0.1404 -0.4972
  139CHL1   H2516538   6.514   4.666   8.193  1.2283 -0.3216 -0.4512
  139CHL1   C2616539   6.628   4.845   8.219  0.3567  0.4618  0.5586
  139CHL1  H26A16540   6.723   4.797   8.252  0.5973 -0.2792 -1.0983
  139CHL1  H26B16541   6.645   4.948   8.180 -1.8308  0.3451 -0.8722
  139CHL1  H26C16542   6.566   4.871   8.308 -0.0389 -0.8430  0.6760
  139CHL1   C2716543   6.432   4.812   8.064  0.5108 -0.1156  0.0447
  139CHL1  H27A16544   6.339   4.814   8.125  1.4028 -0.9387  1.4641
  139CHL1  H27B16545   6.470   4.911   8.029  1.5109 -1.2620 -2.2983
  139CHL1  H27C16546   6.399   4.758   7.972 -2.1089  2.7688 -0.9078
  140CHL1    C316547   5.633   6.647   6.930  0.2558 -0.7120  0.0620
  140CHL1    H316548   5.665   6.753   6.919  0.8855 -1.0215 -1.2001
  140CHL1    O316549   5.670   6.592   6.807  0.0304 -0.1828 -0.2939
  140CHL1   H3'16550   5.759   6.559   6.820 -0.4195 -0.8275  1.5120
  140CHL1    C416551   5.726   6.588   7.040 -0.1274 -0.0459 -0.0338
  140CHL1   H4A16552   5.712   6.478   7.037 -2.2259  0.1993 -0.9702
  140CHL1   H4B16553   5.828   6.611   7.002  0.3862 -3.8553 -1.4132
  140CHL1    C516554   5.690   6.646   7.172  0.2339  0.7138  0.3827
  140CHL1    C616555   5.782   6.710   7.246  0.4682 -0.0185 -0.4112
  140CHL1    H616556   5.889   6.699   7.223  1.3798  0.4983  3.0221
  140CHL1    C716557   5.746   6.764   7.379 -0.3960 -0.4014 -0.0154
  140CHL1   H7A16558   5.828   6.739   7.450 -0.4957 -1.5177 -0.2626
  140CHL1   H7B16559   5.760   6.873   7.389 -0.1827 -0.5261  1.1172
  140CHL1    C816560   5.612   6.725   7.438  0.1435 -0.2554  0.7765
  140CHL1    H816561   5.629   6.623   7.479 -1.5878 -0.2262  1.6497
  140CHL1   C1416562   5.569   6.823   7.544  0.3621 -0.6928  0.8230
  140CHL1   H1416563   5.550   6.923   7.501  0.2604 -0.8590  0.4756
  140CHL1   C1516564   5.678   6.842   7.656  0.0160  0.1104 -1.0114
  140CHL1  H15A16565   5.710   6.745   7.699  0.1976  0.2666 -0.7891
  140CHL1  H15B16566   5.773   6.889   7.625  0.5976 -0.5096 -0.2157
  140CHL1   C1616567   5.600   6.924   7.751  0.5806 -1.1099  0.7124
  140CHL1  H16A16568   5.635   6.912   7.856  0.4694 -0.7523  0.7917
  140CHL1  H16B16569   5.617   7.029   7.719 -1.1810 -1.4901 -1.6858
  140CHL1   C1716570   5.444   6.901   7.728  0.5821 -0.0502 -0.5301
  140CHL1   H1716571   5.398   6.990   7.681 -0.5028 -1.3563 -2.0310
  140CHL1   C1316572   5.437   6.792   7.622 -0.1242 -0.2925  0.3777
  140CHL1   C1816573   5.436   6.657   7.692  0.8133 -0.4441 -0.1257
  140CHL1  H18A16574   5.336   6.646   7.740 -0.7035  0.6357 -2.7733
  140CHL1  H18B16575   5.442   6.578   7.614 -3.0658 -1.5672  0.4647
  140CHL1  H18C16576   5.514   6.644   7.769  0.8353  0.5036  0.0139
  140CHL1   C1216577   5.322   6.792   7.526 -0.0784  0.0791 -0.4340
  140CHL1  H12A16578   5.229   6.746   7.564  0.3588 -2.0112 -1.7159
  140CHL1  H12B16579   5.294   6.898   7.510  0.6836  0.3458 -0.0579
  140CHL1   C1116580   5.355   6.725   7.389 -0.1818  0.4297  0.2433
  140CHL1  H11A16581   5.325   6.619   7.401 -2.1521  0.9559  0.3204
  140CHL1  H11B16582   5.267   6.758   7.330 -2.1417 -0.5465  2.4274
  140CHL1    C916583   5.504   6.730   7.329  0.3653  0.0430  0.2304
  140CHL1    H916584   5.499   6.833   7.287 -1.1936  0.6571  1.8282
  140CHL1   C1016585   5.536   6.640   7.204  0.3303  0.8346 -0.5904
  140CHL1   C1916586   5.503   6.492   7.237 -0.9060  0.0774 -0.1429
  140CHL1  H19A16587   5.393   6.471   7.239 -1.0174  0.6153 -0.4499
  140CHL1  H19B16588   5.556   6.422   7.169 -1.7630  0.9764 -1.7915
  140CHL1  H19C16589   5.534   6.477   7.343 -0.7229  1.4884  0.0254
  140CHL1    C116590   5.448   6.686   7.091  0.1894  0.0930 -0.1376
  140CHL1   H1A16591   5.345   6.663   7.126  1.1076 -1.7257  1.6431
  140CHL1   H1B16592   5.449   6.795   7.074 -3.5368  0.1005 -1.0932
  140CHL1    C216593   5.487   6.625   6.954 -0.3189 -0.3105 -0.1638
  140CHL1   H2A16594   5.440   6.686   6.874 -0.4034 -1.1923 -0.7904
  140CHL1   H2B16595   5.467   6.517   6.945 -0.6216 -0.2584 -0.1299
  140CHL1   C2016596   5.365   6.897   7.861 -0.1637  0.4813  0.3004
  140CHL1   H2016597   5.399   6.809   7.919  0.2522  0.3432 -0.1498
  140CHL1   C2116598   5.213   6.867   7.851  0.7921 -0.1974 -0.1855
  140CHL1  H21A16599   5.163   6.956   7.808 -1.3580 -0.8978  0.7344
  140CHL1  H21B16600   5.171   6.872   7.953 -0.9657  4.2471 -0.9122
  140CHL1  H21C16601   5.191   6.775   7.793  1.0892  0.2389 -1.0089
  140CHL1   C2216602   5.379   7.026   7.953 -0.5321  0.6362  0.0697
  140CHL1  H22A16603   5.481   7.071   7.945  0.2040 -0.5849  1.8820
  140CHL1  H22B16604   5.304   7.095   7.909 -1.3980  0.8890  1.8821
  140CHL1   C2316605   5.339   7.009   8.105  0.2080 -0.3674  0.4013
  140CHL1  H23A16606   5.230   6.990   8.102  0.1764 -0.1461  0.1781
  140CHL1  H23B16607   5.379   6.914   8.147 -0.6489 -1.4283 -1.0877
  140CHL1   C2416608   5.361   7.138   8.177 -0.0446 -0.3048  0.3718
  140CHL1  H24A16609   5.470   7.155   8.165 -0.3463  0.2902 -1.9575
  140CHL1  H24B16610   5.304   7.223   8.135 -1.0548 -0.6888  0.9202
  140CHL1   C2516611   5.328   7.133   8.324  0.4492 -0.0310  0.4042
  140CHL1   H2516612   5.349   7.232   8.371  4.0927 -1.2058  1.6587
  140CHL1   C2616613   5.429   7.041   8.393  0.7297 -0.4077 -0.1854
  140CHL1  H26A16614   5.422   6.939   8.348 -4.3246 -0.3597 -0.1390
  140CHL1  H26B16615   5.531   7.083   8.403  0.4808 -0.0210  0.8954
  140CHL1  H26C16616   5.397   7.037   8.500 -0.7622  0.5789 -0.5661
  140CHL1   C2716617   5.186   7.099   8.360  0.7784 -0.0660  0.6323
  140CHL1  H27A16618   5.112   7.162   8.307 -0.5586 -1.4853  0.7380
  140CHL1  H27B16619   5.162   6.993   8.336 -0.1740  0.3829 -0.4641
  140CHL1  H27C16620   5.169   7.104   8.470  0.5635 -1.6636  0.7049
  141DOPC     N16621   2.049   1.608  10.724  0.0451 -0.4231 -0.4240
  141DOPC   C1216622   2.034   1.727  10.823 -0.2834  0.4879  0.8022
  141DOPC  H12A16623   1.999   1.681  10.914  0.0899 -1.0706  0.1958
  141DOPC  H12B16624   1.956   1.790  10.785 -0.1301  0.4063  0.3463
  141DOPC   C1316625   1.918   1.542  10.700  0.3994  0.7402  0.0855
  141DOPC  H13A16626   1.937   1.453  10.641 -0.6911  0.1201  0.6376
  141DOPC  H13B16627   1.866   1.521  10.792 -1.6007  1.0087 -0.9194
  141DOPC  H13C16628   1.847   1.597  10.640  2.1476  0.7114 -2.1323
  141DOPC   C1416629   2.148   1.507  10.788  0.1429  0.2206 -0.6357
  141DOPC  H14A16630   2.243   1.558  10.786 -1.2802  3.0884  0.4318
  141DOPC  H14B16631   2.115   1.482  10.888  3.3790 -0.4576  0.3735
  141DOPC  H14C16632   2.156   1.415  10.731 -0.3017  0.0389 -0.4060
  141DOPC   C1516633   2.114   1.663  10.601  0.0524 -0.1162  0.2246
  141DOPC  H15A16634   2.176   1.594  10.546  0.6456  0.6744 -0.1257
  141DOPC  H15B16635   2.173   1.749  10.629  0.4454 -0.2531 -0.1732
  141DOPC  H15C16636   2.034   1.712  10.547  1.1998 -0.5653 -1.9850
  141DOPC   C1116637   2.156   1.818  10.838  0.0131 -0.5440 -0.8836
  141DOPC  H11A16638   2.146   1.881  10.929 -1.0538 -0.8290 -0.7845
  141DOPC  H11B16639   2.250   1.766  10.868  0.4446  2.4772  4.0141
  141DOPC     P16640   2.093   2.025  10.692 -0.0762 -0.2111  0.0894
  141DOPC   O1316641   2.086   2.106  10.816 -0.2991  0.2486 -0.4053
  141DOPC   O1416642   1.963   1.987  10.633 -0.1518 -0.3584  0.1233
  141DOPC   O1216643   2.183   1.899  10.723 -0.7230  0.5127  0.3014
  141DOPC   O1116644   2.173   2.116  10.583 -0.2173  0.2258  0.3250
  141DOPC    C116645   2.271   2.071  10.501  0.2165 -0.0401  0.3770
  141DOPC    HA16646   2.298   1.967  10.530 -2.8967 -1.1524 -0.3808
  141DOPC    HB16647   2.361   2.135  10.513  0.4048 -0.4566  1.3165
  141DOPC    C216648   2.228   2.057  10.352  0.0234 -0.1282 -0.2747
  141DOPC    HS16649   2.309   2.025  10.284 -0.4189 -0.7513 -0.5184
  141DOPC   O2116650   2.190   2.193  10.310  0.0267  0.4705 -0.1051
  141DOPC   C2116651   2.298   2.265  10.283  1.0661  0.5950 -0.0582
  141DOPC   O2216652   2.413   2.228  10.292  0.0482  0.2242  0.4611
  141DOPC   C2216653   2.254   2.406  10.243 -0.4939  0.2577  0.4583
  141DOPC   H2R16654   2.270   2.474  10.329  1.3271 -0.5686  0.8263
  141DOPC   H2S16655   2.143   2.405  10.234 -0.4819  2.1099 -0.3794
  141DOPC    C316656   2.107   1.962  10.338 -0.3009 -0.4217  0.7233
  141DOPC    HX16657   2.019   2.024  10.366  0.4620  1.2152 -0.3335
  141DOPC    HY16658   2.132   1.870  10.395 -0.2526 -1.0807 -0.3321
  141DOPC   O3116659   2.100   1.921  10.198 -0.2361 -0.1904  0.2645
  141DOPC   C3116660   2.013   1.825  10.179 -0.4678  0.5569  0.4616
  141DOPC   O3216661   1.940   1.771  10.264  0.0742  0.1407  0.3078
  141DOPC   C3216662   2.043   1.782  10.035  0.5345  0.5104 -0.7452
  141DOPC   H2X16663   2.052   1.871   9.970 -1.2241  0.3016 -1.3392
  141DOPC   H2Y16664   2.138   1.724  10.042  0.6638  0.8781  1.2332
  141DOPC   C2316665   2.339   2.453  10.122  0.3786 -0.3896  0.4232
  141DOPC   H3R16666   2.313   2.410  10.023  0.9188 -0.8427  0.4717
  141DOPC   H3S16667   2.443   2.416  10.139  1.0646  0.5986 -1.3271
  141DOPC   C2416668   2.363   2.608  10.118  0.1017  0.4280 -0.0816
  141DOPC   H4R16669   2.406   2.645  10.213  0.0804  1.1026 -0.3278
  141DOPC   H4S16670   2.265   2.659  10.106  0.7129  1.8453  0.6769
  141DOPC   C2516671   2.457   2.653  10.011  0.0448  0.7670 -0.0227
  141DOPC   H5R16672   2.554   2.599  10.011  0.2356  1.1067  0.9127
  141DOPC   H5S16673   2.471   2.763  10.024  1.8918  0.2978  2.5598
  141DOPC   C2616674   2.397   2.637   9.870 -0.4489  0.0781  0.0215
  141DOPC   H6R16675   2.294   2.677   9.882 -1.5402 -2.9991  2.3696
  141DOPC   H6S16676   2.401   2.530   9.841  1.8579  0.0980  0.1191
  141DOPC   C2716677   2.472   2.717   9.762 -0.3646 -0.5132 -0.0104
  141DOPC   H7R16678   2.572   2.667   9.755  0.6522  1.5837 -1.4760
  141DOPC   H7S16679   2.489   2.818   9.805 -1.4584 -1.3419  2.5525
  141DOPC   C2816680   2.410   2.699   9.624  0.4257 -0.1029 -0.3215
  141DOPC   H8R16681   2.415   2.590   9.600  1.0028 -0.1752  0.0877
  141DOPC   H8S16682   2.469   2.743   9.541  0.0285  0.8934 -0.0809
  141DOPC   C2916683   2.266   2.748   9.628  1.1463 -0.1664 -0.7376
  141DOPC   H9R16684   2.187   2.678   9.660  0.3711  1.0477  0.1021
  141DOPC  C21016685   2.222   2.864   9.574 -0.4743  0.5618  0.0213
  141DOPC  H10R16686   2.113   2.879   9.579 -0.5042  0.1900  0.5982
  141DOPC  C21116687   2.293   2.966   9.496 -0.3470 -0.3469 -0.4658
  141DOPC  H11R16688   2.361   2.937   9.413 -0.0798  1.1741 -0.8122
  141DOPC  H11S16689   2.351   3.023   9.571  1.8634 -2.8706 -0.1070
  141DOPC  C21216690   2.203   3.067   9.420  0.1338 -0.2349 -0.5337
  141DOPC  H12R16691   2.257   3.159   9.388 -1.9368  0.8363 -1.1762
  141DOPC  H12S16692   2.135   3.111   9.496  0.8276  1.9685 -1.0945
  141DOPC  C21316693   2.119   3.006   9.306 -0.0173 -0.6337 -0.2796
  141DOPC  H13R16694   2.062   3.093   9.266  1.3541  0.5524  0.2228
  141DOPC  H13S16695   2.047   2.935   9.351 -0.1184 -1.8663 -2.2979
  141DOPC  C21416696   2.200   2.942   9.196  0.5202 -0.3589 -0.1742
  141DOPC  H14R16697   2.246   2.851   9.239 -1.7828  0.2368  4.1145
  141DOPC  H14S16698   2.286   3.004   9.162 -0.6268  1.3067 -0.1470
  141DOPC  C21516699   2.119   2.889   9.070  0.0739  0.0015  0.0405
  141DOPC  H15R16700   2.032   2.829   9.105  0.7299  0.4646  2.6355
  141DOPC  H15S16701   2.191   2.832   9.008 -0.6888 -0.8969 -0.0435
  141DOPC  C21616702   2.060   3.013   8.994 -0.1326  0.2551 -0.1091
  141DOPC  H16R16703   2.148   3.071   8.959  0.3230  0.5558  1.4243
  141DOPC  H16S16704   2.006   3.081   9.063  0.4215 -0.4830  1.1018
  141DOPC  C21716705   1.979   2.977   8.867  0.8275 -0.1637  0.0775
  141DOPC  H17R16706   1.878   2.942   8.895  1.0934  0.0223  1.3567
  141DOPC  H17S16707   2.031   2.886   8.829  2.8669  0.1691  1.8355
  141DOPC  C21816708   1.964   3.091   8.767  0.0806 -0.0046 -0.3854
  141DOPC  H18R16709   2.054   3.157   8.766 -1.2006  1.9014  1.3433
  141DOPC  H18S16710   1.880   3.160   8.789  0.3713 -0.0226  0.9021
  141DOPC  H18T16711   1.962   3.042   8.668  2.2112  1.1042 -1.0380
  141DOPC   C3316712   1.934   1.678   9.984 -0.1490  0.7472  0.4730
  141DOPC   H3X16713   1.835   1.728   9.975 -1.5063 -1.2001  3.2085
  141DOPC   H3Y16714   1.905   1.594  10.050 -0.7295  1.6083  1.3415
  141DOPC   C3416715   1.966   1.637   9.838  0.2612  0.5000 -0.1946
  141DOPC   H4X16716   1.933   1.535   9.810  1.6274 -0.3689  1.1747
  141DOPC   H4Y16717   2.076   1.629   9.821  0.7612  1.7757  2.0369
  141DOPC   C3516718   1.897   1.729   9.735 -0.2111 -0.6653  0.0236
  141DOPC   H5X16719   1.921   1.836   9.750  1.7327 -0.9832 -0.5148
  141DOPC   H5Y16720   1.786   1.719   9.737 -0.4971  1.9249  1.4080
  141DOPC   C3616721   1.959   1.694   9.599  0.5676 -0.1589 -0.1873
  141DOPC   H6X16722   2.058   1.744   9.608  1.5087 -2.2695  2.0167
  141DOPC   H6Y16723   1.980   1.587   9.581 -1.1645 -0.3963 -0.9728
  141DOPC   C3716724   1.874   1.743   9.480 -0.0060 -0.9495  0.3129
  141DOPC   H7X16725   1.769   1.708   9.477 -0.7956  0.9939  2.2336
  141DOPC   H7Y16726   1.852   1.849   9.505 -1.7788 -0.4663 -2.7553
  141DOPC   C3816727   1.962   1.742   9.350  0.4718 -0.1825  0.3383
  141DOPC   H8X16728   2.006   1.642   9.332  1.1351  0.1707 -0.0351
  141DOPC   H8Y16729   2.059   1.787   9.380  0.1641  0.6551  0.1010
  141DOPC   C3916730   1.906   1.784   9.215 -0.1308  0.3563 -0.2481
  141DOPC   H9X16731   1.811   1.732   9.197 -1.6984  2.5801  1.1468
  141DOPC  C31016732   1.974   1.851   9.120  0.3315 -0.7346  0.8607
  141DOPC  H10X16733   1.921   1.879   9.027 -0.6945  0.3368  1.7394
  141DOPC  C31116734   2.109   1.909   9.142  0.0075 -0.3644  0.9383
  141DOPC  H11X16735   2.193   1.843   9.111  1.0811  0.4932  1.9630
  141DOPC  H11Y16736   2.127   1.938   9.247 -1.1393  3.5993  0.1858
  141DOPC  C31216737   2.126   2.043   9.066 -0.5845 -0.7635  1.1592
  141DOPC  H12X16738   2.214   2.099   9.103 -0.8005  2.1307 -2.2114
  141DOPC  H12Y16739   2.039   2.110   9.084 -1.6683 -2.0067  0.7137
  141DOPC  C31316740   2.143   2.020   8.918 -0.1472 -0.0476  0.6835
  141DOPC  H13X16741   2.217   1.939   8.897  2.0726  1.7480  1.1755
  141DOPC  H13Y16742   2.042   1.996   8.878  0.2995  0.3066 -0.6943
  141DOPC  C31416743   2.183   2.148   8.842  0.4724 -0.1815  0.1025
  141DOPC  H14X16744   2.268   2.204   8.886 -1.0320  1.0500  1.5800
  141DOPC  H14Y16745   2.199   2.127   8.735  1.3162  2.7627 -0.4293
  141DOPC  C31516746   2.061   2.249   8.825  0.3633  0.3316 -0.2600
  141DOPC  H15X16747   2.022   2.270   8.927 -0.0898  0.2343 -0.4100
  141DOPC  H15Y16748   1.976   2.207   8.766  1.9837  0.4939 -2.8772
  141DOPC  C31616749   2.112   2.388   8.769 -0.0594  0.0538  0.0280
  141DOPC  H16X16750   2.178   2.364   8.684 -0.2307  0.9244 -0.3589
  141DOPC  H16Y16751   2.032   2.456   8.732 -0.3873 -0.3183  0.0387
  141DOPC  C31716752   2.181   2.467   8.873 -0.0830  0.5267  0.6400
  141DOPC  H17X16753   2.115   2.502   8.955 -0.5383 -1.3072  1.0925
  141DOPC  H17Y16754   2.263   2.408   8.918 -2.3660 -2.3882  1.2993
  141DOPC  C31816755   2.248   2.595   8.811  0.5146  0.3023 -0.0207
  141DOPC  H18X16756   2.175   2.676   8.831 -0.3623 -0.5018  0.0861
  141DOPC  H18Y16757   2.345   2.617   8.860  0.1851  0.1547  0.6985
  141DOPC  H18Z16758   2.254   2.597   8.700 -3.1108  2.4165 -0.3523
  142DOPC     N16759   2.951   2.860  10.542  0.1751 -0.5115  0.1934
  142DOPC   C1216760   3.032   2.853  10.412 -0.6966 -0.2800  0.8446
  142DOPC  H12A16761   3.077   2.756  10.399  2.8022  1.2703  0.0909
  142DOPC  H12B16762   3.121   2.915  10.410 -0.8793 -0.0071 -1.2567
  142DOPC   C1316763   3.031   2.873  10.665  0.3108  0.0093 -0.6832
  142DOPC  H13A16764   3.063   2.976  10.678 -1.6728  0.7907 -1.5747
  142DOPC  H13B16765   2.974   2.844  10.752 -0.9039  1.2670 -1.0226
  142DOPC  H13C16766   3.124   2.819  10.664  1.0366  1.2127 -2.7161
  142DOPC   C1416767   2.864   2.736  10.557 -0.0777 -0.4706  0.3535
  142DOPC  H14A16768   2.922   2.645  10.558 -0.7605 -0.9383 -0.7293
  142DOPC  H14B16769   2.814   2.729  10.653 -1.2914  0.8973 -0.1359
  142DOPC  H14C16770   2.798   2.720  10.473 -0.3412  0.3876  0.3810
  142DOPC   C1516771   2.853   2.972  10.548  0.2979  0.3783 -0.1036
  142DOPC  H15A16772   2.785   2.970  10.464 -1.3270 -0.4112  1.1784
  142DOPC  H15B16773   2.896   3.071  10.553  0.1266  0.3867  1.9394
  142DOPC  H15C16774   2.805   2.956  10.643  0.5517 -1.6619 -0.2753
  142DOPC   C1116775   2.971   2.904  10.275  0.4911  0.0506  0.0010
  142DOPC  H11A16776   3.028   2.870  10.186 -3.0525 -0.9999 -2.0875
  142DOPC  H11B16777   2.880   2.842  10.260  0.2444 -0.5458  3.3437
  142DOPC     P16778   3.051   3.146  10.265  0.2380 -0.3000  0.1904
  142DOPC   O1316779   3.146   3.127  10.372 -0.1969 -0.3756 -0.2824
  142DOPC   O1416780   2.989   3.284  10.248 -0.1338  0.2123 -0.2741
  142DOPC   O1216781   2.934   3.044  10.261 -0.4682  0.1995  0.4587
  142DOPC   O1116782   3.132   3.121  10.125 -0.4864 -0.1996 -0.1810
  142DOPC    C116783   3.057   3.120  10.000  0.2304 -0.2002 -0.4744
  142DOPC    HA16784   2.979   3.197   9.983  0.7123  0.0377 -1.7253
  142DOPC    HB16785   3.007   3.021   9.997 -0.6225  0.1793  0.5217
  142DOPC    C216786   3.142   3.149   9.883 -0.1642  0.1368 -0.1416
  142DOPC    HS16787   3.075   3.161   9.796 -0.5900  0.0301  0.1676
  142DOPC   O2116788   3.245   3.045   9.864  0.2162 -0.3610  0.3308
  142DOPC   C2116789   3.201   2.932   9.834  0.3725  0.1602  0.2355
  142DOPC   O2216790   3.090   2.882   9.827  0.1378  0.1657 -0.0987
  142DOPC   C2216791   3.329   2.867   9.781  0.4184 -0.2580 -0.2519
  142DOPC   H2R16792   3.416   2.880   9.849 -0.3673 -0.8687  0.9073
  142DOPC   H2S16793   3.360   2.925   9.692  1.1426 -0.2762 -0.0205
  142DOPC    C316794   3.218   3.281   9.904 -0.2843  0.6369 -0.0647
  142DOPC    HX16795   3.297   3.264   9.981  0.3148  2.0217 -0.3338
  142DOPC    HY16796   3.154   3.359   9.951  0.8863  0.9821  1.0394
  142DOPC   O3116797   3.283   3.330   9.784 -0.4460  0.5675  0.1079
  142DOPC   C3116798   3.351   3.442   9.793  0.3074  0.2380  0.4779
  142DOPC   O3216799   3.375   3.502   9.897  0.5300 -0.2012 -0.5530
  142DOPC   C3216800   3.394   3.475   9.648  0.1337  0.3393  0.0420
  142DOPC   H2X16801   3.458   3.398   9.601  0.0231  0.4512 -0.2982
  142DOPC   H2Y16802   3.299   3.486   9.591 -0.0857 -2.3188 -0.1989
  142DOPC   C2316803   3.310   2.716   9.740  0.4403  0.8445  0.0886
  142DOPC   H3R16804   3.266   2.669   9.830 -1.4136 -0.4883 -1.4436
  142DOPC   H3S16805   3.407   2.668   9.714  0.5163 -0.3006  2.2549
  142DOPC   C2416806   3.212   2.697   9.622 -0.5484  0.3698  0.1569
  142DOPC   H4R16807   3.152   2.789   9.610  0.4786  1.6176  3.5438
  142DOPC   H4S16808   3.152   2.606   9.642  1.6728 -1.7193 -1.8875
  142DOPC   C2516809   3.279   2.660   9.482 -0.0569 -0.3293 -0.4124
  142DOPC   H5R16810   3.206   2.619   9.409 -0.1147 -1.5426  0.2953
  142DOPC   H5S16811   3.352   2.580   9.504  0.7039  0.5961  0.5312
  142DOPC   C2616812   3.365   2.772   9.426 -0.4318 -0.2581 -0.5208
  142DOPC   H6R16813   3.451   2.806   9.488  0.8403 -1.5047 -1.5262
  142DOPC   H6S16814   3.311   2.863   9.393 -2.4483 -1.6443 -1.2680
  142DOPC   C2716815   3.455   2.722   9.306 -0.8318 -0.7929  0.0429
  142DOPC   H7R16816   3.518   2.634   9.330 -1.1102 -0.9766  0.0956
  142DOPC   H7S16817   3.529   2.804   9.288  1.0107 -2.2318  0.6882
  142DOPC   C2816818   3.375   2.698   9.182  0.2606  0.1740 -0.1442
  142DOPC   H8R16819   3.312   2.788   9.169  1.4710  1.0383 -0.1873
  142DOPC   H8S16820   3.310   2.610   9.199  0.5138  0.0591  0.2471
  142DOPC   C2916821   3.468   2.683   9.059  0.0416  0.4179 -0.7582
  142DOPC   H9R16822   3.545   2.607   9.080 -4.0937 -3.9302  0.7359
  142DOPC  C21016823   3.461   2.753   8.945 -0.8151  0.2239  0.3195
  142DOPC  H10R16824   3.522   2.734   8.856 -0.3392 -0.5077  0.7914
  142DOPC  C21116825   3.352   2.850   8.904 -0.5357  0.3306 -0.8906
  142DOPC  H11R16826   3.403   2.928   8.844  2.6837 -0.8527  0.1039
  142DOPC  H11S16827   3.305   2.897   8.993 -0.5871 -1.5379  0.1267
  142DOPC  C21216828   3.240   2.775   8.828 -0.4189 -0.0472 -0.1875
  142DOPC  H12R16829   3.268   2.668   8.814  2.4157  0.6939 -0.7038
  142DOPC  H12S16830   3.249   2.825   8.730  2.5903  0.7148  0.3848
  142DOPC  C21316831   3.096   2.799   8.872 -0.2121  1.4118  0.0266
  142DOPC  H13R16832   3.038   2.787   8.778  0.9070 -2.6267 -0.3418
  142DOPC  H13S16833   3.075   2.906   8.894 -1.9771  1.1346 -0.1993
  142DOPC  C21416834   3.040   2.708   8.982  0.5786 -0.0739  0.1593
  142DOPC  H14R16835   2.936   2.736   9.004 -0.5432 -2.2987 -1.7851
  142DOPC  H14S16836   3.094   2.731   9.076  0.3757 -0.7567  0.4511
  142DOPC  C21516837   3.035   2.559   8.947  0.6437 -0.3147 -0.2919
  142DOPC  H15R16838   3.127   2.501   8.971  0.7686 -0.8934 -1.9988
  142DOPC  H15S16839   3.022   2.543   8.838  0.5157 -0.5232 -0.2467
  142DOPC  C21616840   2.916   2.483   9.012 -0.5428 -0.1181 -0.6702
  142DOPC  H16R16841   2.941   2.380   8.979  1.4819  1.2500 -4.0692
  142DOPC  H16S16842   2.818   2.499   8.962 -1.1645  1.2649  0.9000
  142DOPC  C21716843   2.896   2.500   9.161  0.5113  0.0469 -0.4914
  142DOPC  H17R16844   2.830   2.418   9.197 -1.1749  1.7942  0.6480
  142DOPC  H17S16845   2.843   2.596   9.182  1.6572  0.4610  0.5895
  142DOPC  C21816846   3.029   2.502   9.242 -0.3893 -0.6495  0.3572
  142DOPC  H18R16847   2.999   2.451   9.336  1.5848 -0.5247  1.1157
  142DOPC  H18S16848   3.061   2.607   9.263  0.6732  0.0121 -3.7157
  142DOPC  H18T16849   3.117   2.451   9.198  0.3832  0.9157  0.0110
  142DOPC   C3316850   3.482   3.602   9.633 -0.5362  0.0576 -0.0529
  142DOPC   H3X16851   3.442   3.688   9.691 -0.9996 -0.2446  0.0827
  142DOPC   H3Y16852   3.481   3.622   9.523 -1.8816 -0.0687 -0.0865
  142DOPC   C3416853   3.622   3.565   9.683 -0.2946 -0.6484 -0.5486
  142DOPC   H4X16854   3.655   3.465   9.646 -3.3244 -2.4399  1.1892
  142DOPC   H4Y16855   3.616   3.561   9.794  2.3075  1.3851 -0.2480
  142DOPC   C3516856   3.731   3.668   9.641 -0.5638  0.3042  0.4180
  142DOPC   H5X16857   3.708   3.757   9.703 -3.0736 -0.1395  0.2291
  142DOPC   H5Y16858   3.742   3.686   9.532  0.0417 -0.2999  0.3706
  142DOPC   C3616859   3.873   3.623   9.687 -0.1905 -0.6101  0.4361
  142DOPC   H6X16860   3.868   3.570   9.785 -2.7790  0.9574  1.2408
  142DOPC   H6Y16861   3.916   3.559   9.607  0.0634  0.8193 -0.6161
  142DOPC   C3716862   3.979   3.728   9.693 -0.3758  0.3356  0.1819
  142DOPC   H7X16863   3.933   3.819   9.737  1.5492  1.0962  0.6959
  142DOPC   H7Y16864   4.057   3.692   9.763  0.2215  0.1745 -0.5631
  142DOPC   C3816865   4.054   3.769   9.561  0.3111 -0.0655  0.3413
  142DOPC   H8X16866   4.086   3.668   9.526  0.6059 -0.2446  1.0984
  142DOPC   H8Y16867   4.147   3.824   9.586 -0.7538  2.2388 -0.5173
  142DOPC   C3916868   3.972   3.830   9.451 -0.3440 -0.0715 -0.5599
  142DOPC   H9X16869   3.863   3.820   9.464 -0.0861 -0.8510  1.4082
  142DOPC  C31016870   4.018   3.881   9.333  0.3555 -0.0737  0.0454
  142DOPC  H10X16871   3.943   3.925   9.266 -1.3955 -0.6933  1.5135
  142DOPC  C31116872   4.165   3.898   9.297  0.4745 -0.0362 -0.0977
  142DOPC  H11X16873   4.222   3.904   9.392 -1.6712 -0.2414  1.2705
  142DOPC  H11Y16874   4.193   3.993   9.246 -0.1883 -0.6671 -1.6754
  142DOPC  C31216875   4.205   3.770   9.216 -0.8468  0.0708 -0.2932
  142DOPC  H12X16876   4.174   3.682   9.277 -0.5384  0.9979  1.2675
  142DOPC  H12Y16877   4.314   3.770   9.195 -1.0489  0.4237 -1.4044
  142DOPC  C31316878   4.151   3.760   9.070 -0.2636  0.2808 -0.7611
  142DOPC  H13X16879   4.167   3.657   9.033 -0.4261  0.5229 -1.5245
  142DOPC  H13Y16880   4.042   3.779   9.067  0.2346  4.2358 -0.2861
  142DOPC  C31416881   4.216   3.852   8.972  0.2068 -0.2887 -0.3321
  142DOPC  H14X16882   4.216   3.950   9.024 -2.2867 -0.9236  1.0021
  142DOPC  H14Y16883   4.312   3.826   8.922 -1.6436 -0.3620 -4.2514
  142DOPC  C31516884   4.129   3.872   8.845 -0.2928  0.5110 -0.4037
  142DOPC  H15X16885   4.159   3.971   8.805  2.4914  0.0346  0.3013
  142DOPC  H15Y16886   4.020   3.880   8.859 -0.3082 -2.0140  1.8268
  142DOPC  C31616887   4.164   3.765   8.740  0.0203  0.0234  1.1279
  142DOPC  H16X16888   4.267   3.782   8.704 -0.1027  0.1488  0.8363
  142DOPC  H16Y16889   4.164   3.665   8.788 -0.8332 -0.2998  0.4685
  142DOPC  C31716890   4.069   3.768   8.620  0.1214  0.3956 -0.1059
  142DOPC  H17X16891   4.086   3.672   8.567 -0.5381 -1.0992  2.2407
  142DOPC  H17Y16892   3.961   3.772   8.647  0.0614  2.2483 -0.4662
  142DOPC  C31816893   4.097   3.896   8.544  0.1860 -0.1730  0.4660
  142DOPC  H18X16894   4.072   3.989   8.598  1.8604  1.2735 -1.1300
  142DOPC  H18Y16895   4.201   3.887   8.506  0.7702  0.2237  1.9155
  142DOPC  H18Z16896   4.042   3.904   8.448  0.1568  1.8382  0.6131
  143DOPC     N16897   0.941   1.959  10.132 -0.0107 -0.5970 -0.0895
  143DOPC   C1216898   0.971   2.105  10.183  0.0967  0.4173 -0.0754
  143DOPC  H12A16899   1.077   2.113  10.164 -0.2298 -0.4280 -2.7759
  143DOPC  H12B16900   0.957   2.117  10.289  0.5101  3.8919 -0.3295
  143DOPC   C1316901   0.799   1.923  10.147  0.1421 -0.3570 -0.6706
  143DOPC  H13A16902   0.766   1.822  10.127 -0.6338 -0.1362 -0.5659
  143DOPC  H13B16903   0.768   1.948  10.247 -1.2347 -0.3093 -1.0774
  143DOPC  H13C16904   0.739   1.986  10.082  1.0004  1.2898  0.0705
  143DOPC   C1416905   1.016   1.858  10.213 -0.0269  0.7991 -0.3589
  143DOPC  H14A16906   1.124   1.863  10.210  0.2700  0.9944  3.9213
  143DOPC  H14B16907   0.987   1.866  10.317  1.3550  0.2878  0.0875
  143DOPC  H14C16908   0.985   1.761  10.178  0.7817  0.2634  0.3792
  143DOPC   C1516909   0.980   1.949   9.989  0.1880  0.5003  0.5020
  143DOPC  H15A16910   0.941   2.031   9.930  0.4635  0.4892  0.3025
  143DOPC  H15B16911   0.958   1.855   9.941  2.1565  1.5455 -2.8163
  143DOPC  H15C16912   1.087   1.954   9.979  0.1340  0.1330 -0.3196
  143DOPC   C1116913   0.899   2.222  10.115 -0.1529 -0.3211 -0.2233
  143DOPC  H11A16914   0.925   2.318  10.164 -2.2678  0.2156 -0.0338
  143DOPC  H11B16915   0.921   2.233  10.007 -1.1060 -0.0194 -0.4011
  143DOPC     P16916   0.653   2.289  10.051  0.0428  0.2281  0.1776
  143DOPC   O1316917   0.682   2.426  10.008 -0.2137  0.1155 -0.3912
  143DOPC   O1416918   0.519   2.273  10.116  0.0774  0.2638  0.1647
  143DOPC   O1216919   0.762   2.220  10.141  0.7095 -0.0722  0.7663
  143DOPC   O1116920   0.651   2.190   9.926 -0.3917 -0.2339 -0.7040
  143DOPC    C116921   0.736   2.205   9.815 -0.2476 -0.2329 -0.0660
  143DOPC    HA16922   0.791   2.113   9.786 -0.1527  0.2088 -1.3338
  143DOPC    HB16923   0.824   2.274   9.818 -0.1914 -0.3398  1.5952
  143DOPC    C216924   0.644   2.254   9.696 -0.1164 -0.1339 -0.4073
  143DOPC    HS16925   0.705   2.246   9.604  1.4016 -0.0848  0.5579
  143DOPC   O2116926   0.605   2.386   9.727  0.0787  0.2901 -0.1949
  143DOPC   C2116927   0.701   2.476   9.714  0.3839  0.3870 -0.2394
  143DOPC   O2216928   0.813   2.457   9.670 -0.2033  0.9738  0.2353
  143DOPC   C2216929   0.653   2.609   9.764  0.1279  0.2607  0.5498
  143DOPC   H2R16930   0.720   2.634   9.848  1.1567  0.0268 -0.1810
  143DOPC   H2S16931   0.546   2.605   9.795 -0.3630  1.7070 -0.8018
  143DOPC    C316932   0.526   2.156   9.670  0.5444 -0.8493  0.6501
  143DOPC    HX16933   0.460   2.193   9.588  0.7074 -0.0785  0.8564
  143DOPC    HY16934   0.464   2.155   9.762 -1.1832 -0.5328 -0.4691
  143DOPC   O3116935   0.571   2.023   9.652  0.0924  0.3407 -0.1627
  143DOPC   C3116936   0.623   2.003   9.529 -0.2687  0.5099 -0.1642
  143DOPC   O3216937   0.631   2.083   9.436 -0.4278  0.6441 -0.0563
  143DOPC   C3216938   0.670   1.857   9.521 -0.5037 -0.7065  0.6316
  143DOPC   H2X16939   0.755   1.829   9.587 -0.7030  0.3846  1.3709
  143DOPC   H2Y16940   0.585   1.797   9.558 -1.3690  0.3224  0.3575
  143DOPC   C2316941   0.684   2.715   9.661 -0.3428  0.1782 -0.2156
  143DOPC   H3R16942   0.788   2.707   9.624 -0.4328 -0.5331 -0.3338
  143DOPC   H3S16943   0.659   2.812   9.709 -0.1550  0.0200  0.2109
  143DOPC   C2416944   0.586   2.708   9.551  0.6633  0.0851 -0.2389
  143DOPC   H4R16945   0.488   2.689   9.600  0.7190  1.2459  0.3611
  143DOPC   H4S16946   0.608   2.620   9.487 -2.3955 -0.1701 -1.0578
  143DOPC   C2516947   0.583   2.833   9.466 -0.4747 -0.3816  0.2286
  143DOPC   H5R16948   0.684   2.847   9.422 -0.6002  2.2822  0.6153
  143DOPC   H5S16949   0.550   2.924   9.522 -0.5854 -0.2770 -0.0021
  143DOPC   C2616950   0.480   2.819   9.353 -0.1060 -0.0660  0.5537
  143DOPC   H6R16951   0.380   2.793   9.394  0.0208 -3.0266 -0.7244
  143DOPC   H6S16952   0.503   2.734   9.285  1.7439  1.3480 -0.6678
  143DOPC   C2716953   0.464   2.942   9.261  0.2566 -0.1069  0.1441
  143DOPC   H7R16954   0.552   2.955   9.195  1.8292 -2.9446  1.5158
  143DOPC   H7S16955   0.463   3.027   9.333 -3.0168 -0.5079  0.7302
  143DOPC   C2816956   0.342   2.933   9.175  0.3341  0.4900 -0.7444
  143DOPC   H8R16957   0.262   2.926   9.251  0.5114  0.0208 -0.5965
  143DOPC   H8S16958   0.338   2.835   9.122 -2.3142  0.6155 -0.9275
  143DOPC   C2916959   0.338   3.063   9.093  0.3465 -0.4044 -0.1264
  143DOPC   H9R16960   0.425   3.131   9.092  0.5589 -0.6833 -0.4874
  143DOPC  C21016961   0.239   3.100   9.010  0.0252  0.1761  0.0851
  143DOPC  H10R16962   0.247   3.187   8.942  0.8605  0.2764  0.3015
  143DOPC  C21116963   0.112   3.024   8.987  0.2746  0.1698 -0.0109
  143DOPC  H11R16964   0.033   3.066   9.054 -0.6526 -1.6561  0.0992
  143DOPC  H11S16965   0.121   2.916   9.014  1.2323  0.5449  1.2715
  143DOPC  C21216966   0.058   3.039   8.846 -0.8663 -0.1773 -0.1138
  143DOPC  H12R16967   0.032   3.136   8.798 -1.1982  0.8980  2.1335
  143DOPC  H12S16968  -0.028   2.969   8.837  0.2023 -1.5340 -0.0881
  143DOPC  C21316969   0.158   2.987   8.740 -1.8416  0.5339 -0.7915
  143DOPC  H13R16970   0.216   2.907   8.791 -0.3864  0.8095 -1.9610
  143DOPC  H13S16971   0.232   3.063   8.708 -1.4868  0.2906 -0.5531
  143DOPC  C21416972   0.102   2.934   8.609 -0.0417  0.0666 -0.2507
  143DOPC  H14R16973   0.002   2.887   8.626 -0.9385  1.9496 -0.0005
  143DOPC  H14S16974   0.164   2.850   8.572 -0.1555 -0.4380  0.6751
  143DOPC  C21516975   0.083   3.037   8.493  0.2336 -0.8724  0.4752
  143DOPC  H15R16976   0.174   3.101   8.483  0.2815 -1.1835 -1.3706
  143DOPC  H15S16977  -0.006   3.104   8.498 -2.5537 -4.1899 -0.8405
  143DOPC  C21616978   0.056   2.958   8.365  0.3969  0.3985 -0.0076
  143DOPC  H16R16979  -0.022   2.884   8.390  0.1267  0.8218  0.4314
  143DOPC  H16S16980   0.149   2.901   8.346 -0.7307 -1.2496 -0.8523
  143DOPC  C21716981   0.006   3.035   8.240 -0.0489 -0.2031  0.6037
  143DOPC  H17R16982   0.092   3.070   8.179 -0.4795  0.1748  0.2128
  143DOPC  H17S16983  -0.054   3.125   8.264  0.4458  0.9731 -2.1688
  143DOPC  C21816984  -0.062   2.943   8.136  0.1624  0.2447  0.1157
  143DOPC  H18R16985  -0.086   3.000   8.043 -1.3901 -2.2292 -1.0881
  143DOPC  H18S16986  -0.160   2.905   8.170 -0.7114  1.1344 -1.2814
  143DOPC  H18T16987   0.005   2.857   8.113  0.2851  0.4152 -0.1770
  143DOPC   C3316988   0.703   1.808   9.385  0.2129 -0.5142  0.6504
  143DOPC   H3X16989   0.779   1.727   9.391  1.9146  0.9156 -0.7018
  143DOPC   H3Y16990   0.746   1.877   9.310  0.2571 -0.0198  1.1264
  143DOPC   C3416991   0.575   1.742   9.319  0.3425 -0.3690 -0.2213
  143DOPC   H4X16992   0.513   1.826   9.281  2.4294  0.7112 -1.3704
  143DOPC   H4Y16993   0.506   1.699   9.395 -0.7643  1.3808 -0.1771
  143DOPC   C3516994   0.599   1.636   9.210 -0.5096  0.3994  0.1631
  143DOPC   H5X16995   0.498   1.611   9.172 -0.8825 -0.1633  1.4469
  143DOPC   H5Y16996   0.648   1.549   9.260  0.3275  1.6364  1.5824
  143DOPC   C3616997   0.669   1.687   9.083 -0.0674 -0.0362 -0.4347
  143DOPC   H6X16998   0.644   1.793   9.064  1.6975  0.5270  0.1391
  143DOPC   H6Y16999   0.778   1.675   9.103  0.1070  3.1105  0.9570
  143DOPC   C3717000   0.623   1.620   8.952 -0.3089 -0.8057 -0.6695
  143DOPC   H7X17001   0.646   1.511   8.949  1.4059 -0.5741  1.2346
  143DOPC   H7Y17002   0.513   1.634   8.948 -0.6140 -1.9440  1.7699
  143DOPC   C3817003   0.685   1.682   8.826 -0.4654  0.2824  0.1975
  143DOPC   H8X17004   0.661   1.615   8.741  0.2804  1.4220 -0.9483
  143DOPC   H8Y17005   0.792   1.676   8.853  0.0281  1.7603 -1.2717
  143DOPC   C3917006   0.643   1.823   8.800  0.5388  0.0796  0.2538
  143DOPC   H9X17007   0.542   1.852   8.831  0.1794 -2.2737  1.5352
  143DOPC  C31017008   0.724   1.912   8.741  0.0415  0.0917  0.4482
  143DOPC  H10X17009   0.691   2.013   8.715 -0.7279 -0.7695 -2.2528
  143DOPC  C31117010   0.860   1.885   8.683  0.4624 -0.8715  0.8085
  143DOPC  H11X17011   0.867   1.944   8.589 -0.6536 -1.9608  0.0022
  143DOPC  H11Y17012   0.862   1.780   8.647 -1.2799 -0.5984 -0.1916
  143DOPC  C31217013   0.978   1.902   8.777  0.6651  0.4306  0.5879
  143DOPC  H12X17014   1.064   1.849   8.730  0.7369  1.9225 -1.0320
  143DOPC  H12Y17015   0.948   1.841   8.865  1.3575 -0.4270  0.2587
  143DOPC  C31317016   1.021   2.040   8.827  0.5214 -0.3757  0.0982
  143DOPC  H13X17017   0.945   2.084   8.895 -0.0817 -1.4782  0.1561
  143DOPC  H13Y17018   1.111   2.043   8.892  1.4051 -0.9198 -1.0483
  143DOPC  C31417019   1.045   2.144   8.715  0.3213  0.3508 -0.2245
  143DOPC  H14X17020   0.954   2.147   8.651 -1.2456 -0.0048  1.8319
  143DOPC  H14Y17021   1.059   2.240   8.768  0.0553  0.5894 -0.5836
  143DOPC  C31517022   1.171   2.127   8.627  0.6624 -0.3368  0.2917
  143DOPC  H15X17023   1.187   2.026   8.582  0.8762 -0.2843  0.2464
  143DOPC  H15Y17024   1.261   2.150   8.688  0.2461 -0.2187  0.8568
  143DOPC  C31617025   1.167   2.241   8.515 -0.5726 -0.1181  0.0180
  143DOPC  H16X17026   1.151   2.344   8.552 -0.1724 -0.1370  0.2567
  143DOPC  H16Y17027   1.267   2.242   8.467 -1.3032  1.5216 -1.5555
  143DOPC  C31717028   1.051   2.214   8.417  0.0140  0.3917  0.1731
  143DOPC  H17X17029   1.050   2.103   8.419 -1.9131  0.3741  0.5479
  143DOPC  H17Y17030   0.955   2.257   8.453  0.2650  1.0842  0.0148
  143DOPC  C31817031   1.075   2.257   8.277 -0.4062  0.0150  0.5883
  143DOPC  H18X17032   1.167   2.210   8.234  0.5128  1.3831  1.0109
  143DOPC  H18Y17033   0.995   2.236   8.203  0.2837 -1.3958  0.2041
  143DOPC  H18Z17034   1.109   2.363   8.281  3.6127 -1.0541 -0.2187
  144DOPC     N17035   1.147   1.183  10.541 -0.0078  0.5719  0.5648
  144DOPC   C1217036   1.255   1.280  10.490 -0.0177  0.0179  0.7539
  144DOPC  H12A17037   1.220   1.379  10.519  1.6029  0.6598  0.6212
  144DOPC  H12B17038   1.262   1.282  10.382 -1.7109 -0.1036  0.6210
  144DOPC   C1317039   1.004   1.233  10.509  0.1829 -0.0549 -0.3698
  144DOPC  H13A17040   0.926   1.167  10.545  1.6308 -1.9829 -0.5706
  144DOPC  H13B17041   0.987   1.333  10.545 -2.6057  0.6594 -3.2535
  144DOPC  H13C17042   0.982   1.249  10.405  0.1253 -0.3949 -0.4126
  144DOPC   C1417043   1.165   1.166  10.686  0.3277 -1.0369 -0.0975
  144DOPC  H14A17044   1.166   1.261  10.737  0.0137 -1.0138 -0.1290
  144DOPC  H14B17045   1.081   1.110  10.726 -0.5996  0.0737 -0.4283
  144DOPC  H14C17046   1.248   1.101  10.707 -0.1942 -0.9472  2.5893
  144DOPC   C1517047   1.168   1.050  10.470 -0.0341 -0.2690 -0.2479
  144DOPC  H15A17048   1.110   0.971  10.514 -0.9956  1.1205  1.1021
  144DOPC  H15B17049   1.273   1.029  10.485  0.5836  2.4471 -0.2158
  144DOPC  H15C17050   1.133   1.052  10.368  0.1146  2.0645 -0.3063
  144DOPC   C1117051   1.400   1.259  10.545  0.0122  0.1473 -0.2493
  144DOPC  H11A17052   1.467   1.344  10.520 -0.5521  1.3033  1.9128
  144DOPC  H11B17053   1.399   1.262  10.656 -2.3478 -0.7377 -0.1922
  144DOPC     P17054   1.559   1.109  10.402 -0.0109 -0.1475  0.3221
  144DOPC   O1317055   1.603   0.971  10.418  0.2995  0.6431 -0.4828
  144DOPC   O1417056   1.662   1.211  10.414  0.1137  0.1845 -0.0557
  144DOPC   O1217057   1.445   1.126  10.511 -0.5862 -0.7130 -0.4718
  144DOPC   O1117058   1.490   1.133  10.266  0.0495  0.0006 -0.4827
  144DOPC    C117059   1.424   1.027  10.191 -0.0729 -0.1321 -0.3606
  144DOPC    HA17060   1.351   1.068  10.118 -0.7158  0.4738  0.5931
  144DOPC    HB17061   1.371   0.961  10.263 -0.6316  2.0356  1.3469
  144DOPC    C217062   1.521   0.937  10.114  0.4191 -0.0071 -0.1707
  144DOPC    HS17063   1.587   0.882  10.184  0.7671 -1.9414 -1.9471
  144DOPC   O2117064   1.607   1.013  10.024 -0.7150 -0.0797 -0.2723
  144DOPC   C2117065   1.721   0.956   9.987  1.3007 -0.2122 -0.0894
  144DOPC   O2217066   1.759   0.850  10.033 -0.3270  0.0751  0.2345
  144DOPC   C2217067   1.793   1.045   9.890 -0.0174 -0.1429 -0.0883
  144DOPC   H2R17068   1.898   1.010   9.882  1.2930  3.0414  1.2601
  144DOPC   H2S17069   1.803   1.143   9.942 -1.3759 -0.0261  0.0001
  144DOPC    C317070   1.451   0.820  10.037 -0.5649 -0.3133  0.3629
  144DOPC    HX17071   1.390   0.763  10.111  1.5865 -1.0750  1.6540
  144DOPC    HY17072   1.527   0.747  10.001  0.4914  1.8071 -1.9072
  144DOPC   O3117073   1.369   0.864   9.931 -0.1053 -0.1661  0.6847
  144DOPC   C3117074   1.284   0.780   9.876  0.0994 -0.1951  0.0914
  144DOPC   O3217075   1.263   0.663   9.906  0.0393  0.1491  0.5317
  144DOPC   C3217076   1.215   0.846   9.754  0.1914 -0.2865 -0.6211
  144DOPC   H2X17077   1.145   0.925   9.788 -0.7483 -2.3078  2.5199
  144DOPC   H2Y17078   1.294   0.890   9.689  1.4557  2.4517  2.4632
  144DOPC   C2317079   1.718   1.050   9.752 -0.2885  0.3138 -0.6508
  144DOPC   H3R17080   1.773   1.132   9.701  0.8822 -0.5586 -0.8526
  144DOPC   H3S17081   1.613   1.077   9.773  0.0342  1.2396 -0.1863
  144DOPC   C2417082   1.723   0.925   9.666 -0.8862 -0.5161 -0.2265
  144DOPC   H4R17083   1.667   0.836   9.702 -0.4492 -0.4376  0.6895
  144DOPC   H4S17084   1.829   0.892   9.659 -0.8962 -0.3858 -1.0721
  144DOPC   C2517085   1.684   0.954   9.519 -0.2412  0.0369  0.0321
  144DOPC   H5R17086   1.735   0.875   9.459 -0.3094 -0.6475  0.8618
  144DOPC   H5S17087   1.738   1.049   9.496  0.4528 -0.0503  1.2026
  144DOPC   C2617088   1.532   0.961   9.488 -0.0741  0.2302 -0.0773
  144DOPC   H6R17089   1.502   1.066   9.507  0.5797  0.2817  0.7154
  144DOPC   H6S17090   1.467   0.884   9.535 -0.9451 -1.2113 -3.3337
  144DOPC   C2717091   1.513   0.942   9.340 -0.6385 -0.1328  0.7196
  144DOPC   H7R17092   1.565   0.851   9.303  1.3536  1.4489 -0.5903
  144DOPC   H7S17093   1.568   1.020   9.284 -0.2114 -0.9798 -0.0681
  144DOPC   C2817094   1.363   0.949   9.289 -0.3726 -0.2570  0.0688
  144DOPC   H8R17095   1.311   0.870   9.348  0.6750 -2.6190 -1.9701
  144DOPC   H8S17096   1.364   0.913   9.184  0.7296 -0.0754  0.0027
  144DOPC   C2917097   1.302   1.088   9.301 -0.1485 -0.0115  0.4818
  144DOPC   H9R17098   1.293   1.136   9.400  0.2825 -0.9344  0.9830
  144DOPC  C21017099   1.270   1.164   9.202  0.7231 -0.5870  0.6140
  144DOPC  H10R17100   1.223   1.258   9.234  1.5151  0.1197 -0.2582
  144DOPC  C21117101   1.299   1.142   9.053  0.7664 -0.4557 -1.0324
  144DOPC  H11R17102   1.237   1.216   8.998 -0.2524 -0.8162 -0.3864
  144DOPC  H11S17103   1.269   1.041   9.018  1.0055 -0.8278 -0.1810
  144DOPC  C21217104   1.448   1.174   9.024  0.2854 -0.5158  0.1623
  144DOPC  H12R17105   1.461   1.154   8.916 -0.3293 -0.4947  0.0808
  144DOPC  H12S17106   1.500   1.105   9.093 -1.5923 -1.9967  0.1745
  144DOPC  C21317107   1.487   1.324   9.044 -0.4740 -0.0112 -0.0132
  144DOPC  H13R17108   1.479   1.352   9.151  0.7645  0.7295 -0.1019
  144DOPC  H13S17109   1.409   1.376   8.985  2.0681  2.3671 -1.5133
  144DOPC  C21417110   1.626   1.364   8.988  0.2808 -0.1366  0.3397
  144DOPC  H14R17111   1.647   1.473   8.989  2.8417 -0.5285 -0.7558
  144DOPC  H14S17112   1.627   1.331   8.882 -2.2071  1.1312 -0.1560
  144DOPC  C21517113   1.739   1.291   9.061 -0.0763 -0.9163  0.5058
  144DOPC  H15R17114   1.829   1.276   8.997 -1.8067 -1.1458 -2.0461
  144DOPC  H15S17115   1.718   1.184   9.082  0.1085 -0.5624  2.6621
  144DOPC  C21617116   1.768   1.363   9.184 -0.0822  0.2188 -0.4330
  144DOPC  H16R17117   1.676   1.405   9.230  0.5265  0.8527  0.2515
  144DOPC  H16S17118   1.825   1.457   9.165  0.9276  0.1484  1.8501
  144DOPC  C21717119   1.841   1.268   9.287  0.3342 -0.3459  0.3472
  144DOPC  H17R17120   1.945   1.245   9.255  0.5391  2.2588 -1.1268
  144DOPC  H17S17121   1.782   1.175   9.292 -0.7346  0.2602 -0.5466
  144DOPC  C21817122   1.841   1.332   9.432  0.0907  0.5114  0.3270
  144DOPC  H18R17123   1.911   1.418   9.444 -0.2892  1.1041 -1.3903
  144DOPC  H18S17124   1.864   1.253   9.506  2.3976  0.7542 -0.0575
  144DOPC  H18T17125   1.741   1.375   9.455 -0.2116  0.2191 -0.4083
  144DOPC   C3317126   1.151   0.736   9.660  0.1556  0.6437  0.0809
  144DOPC   H3X17127   1.095   0.790   9.580  0.6035 -0.2608 -0.8654
  144DOPC   H3Y17128   1.078   0.667   9.706  0.3288 -0.3901 -1.1441
  144DOPC   C3417129   1.259   0.660   9.587  0.0312  0.3770  0.3676
  144DOPC   H4X17130   1.330   0.615   9.659  0.6053  1.7746  0.7053
  144DOPC   H4Y17131   1.320   0.740   9.539  0.2794  0.9874  1.6586
  144DOPC   C3517132   1.198   0.557   9.492  0.4536  0.0505  0.2625
  144DOPC   H5X17133   1.130   0.486   9.545 -0.8118  0.3530 -0.9021
  144DOPC   H5Y17134   1.277   0.490   9.454  1.3322  0.6841  0.9423
  144DOPC   C3617135   1.123   0.623   9.375  0.1126 -0.3214  1.1160
  144DOPC   H6X17136   1.046   0.695   9.411  1.3831  1.7707 -0.1443
  144DOPC   H6Y17137   1.202   0.686   9.329  0.4854  0.1023  2.3086
  144DOPC   C3717138   1.069   0.523   9.279 -0.5200  0.5499  0.6280
  144DOPC   H7X17139   1.148   0.445   9.267 -0.7694  0.4490 -0.4661
  144DOPC   H7Y17140   0.988   0.466   9.329 -0.1367 -0.0134  0.6163
  144DOPC   C3817141   1.028   0.569   9.132  0.4970  0.2253 -0.4074
  144DOPC   H8X17142   1.002   0.471   9.085  0.1320 -0.1356  0.5218
  144DOPC   H8Y17143   1.122   0.609   9.088  0.6283  1.6382  1.0502
  144DOPC   C3917144   0.906   0.657   9.128  0.0280 -0.4705  0.4707
  144DOPC   H9X17145   0.813   0.613   9.167 -0.7359 -0.9601 -1.7879
  144DOPC  C31017146   0.908   0.784   9.074 -0.1078 -0.4194  0.4407
  144DOPC  H10X17147   0.809   0.832   9.072  0.3970  0.8988  2.6389
  144DOPC  C31117148   1.024   0.865   9.012  0.3666  0.0952  0.0825
  144DOPC  H11X17149   1.085   0.789   8.958 -1.3332 -1.2541 -0.0447
  144DOPC  H11Y17150   1.095   0.907   9.086 -0.9524  1.3207  0.6970
  144DOPC  C31217151   0.962   0.971   8.913 -0.6098  0.3023 -0.0138
  144DOPC  H12X17152   1.045   1.035   8.876  2.4775 -2.7225  1.1709
  144DOPC  H12Y17153   0.897   1.049   8.960 -2.1809 -0.3579 -0.9955
  144DOPC  C31317154   0.895   0.906   8.793  0.2534 -0.7186  0.3601
  144DOPC  H13X17155   0.968   0.857   8.725 -0.6728 -1.6465  0.0002
  144DOPC  H13Y17156   0.832   0.820   8.825  3.4707 -3.3798  0.1246
  144DOPC  C31417157   0.809   1.011   8.723 -0.1904  0.3732  0.0151
  144DOPC  H14X17158   0.764   0.969   8.631  0.4828  2.4354 -1.3407
  144DOPC  H14Y17159   0.741   1.051   8.803  1.8268  1.6781  1.1654
  144DOPC  C31517160   0.888   1.135   8.670 -0.0185 -0.1266  0.0320
  144DOPC  H15X17161   0.967   1.101   8.600  0.2070 -3.0227  1.5436
  144DOPC  H15Y17162   0.940   1.180   8.758  1.0140 -2.2382  0.5796
  144DOPC  C31617163   0.796   1.240   8.608 -0.5122  0.4790 -0.8073
  144DOPC  H16X17164   0.722   1.192   8.541 -1.4676 -0.6633  0.9859
  144DOPC  H16Y17165   0.727   1.289   8.680  1.5793 -0.2195  1.8247
  144DOPC  C31717166   0.875   1.363   8.558 -0.3877 -0.3554  0.0706
  144DOPC  H17X17167   0.897   1.429   8.645  2.1116  0.3382 -0.9948
  144DOPC  H17Y17168   0.970   1.321   8.519  0.4553 -0.7845  2.4344
  144DOPC  C31817169   0.796   1.444   8.459 -0.0488 -0.5254  0.7635
  144DOPC  H18X17170   0.797   1.389   8.362  2.2859 -0.4464  0.6719
  144DOPC  H18Y17171   0.693   1.473   8.487 -0.7790 -1.4418 -0.8136
  144DOPC  H18Z17172   0.860   1.532   8.438 -0.5931  0.1274  1.7784
  145DOPC     N17173   2.579   4.450  10.331  0.1488  0.7469 -0.1561
  145DOPC   C1217174   2.487   4.345  10.270 -0.6210 -0.8418 -0.0888
  145DOPC  H12A17175   2.409   4.402  10.220 -2.9551 -2.5684  1.3584
  145DOPC  H12B17176   2.431   4.299  10.350  0.2187  1.8727  2.2270
  145DOPC   C1317177   2.683   4.369  10.402 -0.3002  0.2076  0.5898
  145DOPC  H13A17178   2.763   4.431  10.441 -0.9774  1.8765 -0.5671
  145DOPC  H13B17179   2.638   4.315  10.484 -0.3129  1.3787  1.3860
  145DOPC  H13C17180   2.714   4.284  10.343 -1.5678  0.1465 -0.0171
  145DOPC   C1417181   2.518   4.535  10.432 -0.9316 -0.1490  0.4750
  145DOPC  H14A17182   2.468   4.621  10.389  0.0824  0.6908  0.9528
  145DOPC  H14B17183   2.443   4.483  10.491 -1.4694  1.2230  1.0460
  145DOPC  H14C17184   2.592   4.581  10.495 -0.3716 -0.4013  0.0148
  145DOPC   C1517185   2.641   4.527  10.222 -0.6103 -0.2642  0.3566
  145DOPC  H15A17186   2.568   4.572  10.157 -0.2248 -0.6961 -0.3957
  145DOPC  H15B17187   2.709   4.467  10.163 -0.7611 -0.4347  0.3541
  145DOPC  H15C17188   2.710   4.602  10.260  1.2699 -1.6986 -0.0360
  145DOPC   C1117189   2.547   4.227  10.187 -0.5530  0.4387  0.8676
  145DOPC  H11A17190   2.467   4.174  10.131  0.1488 -1.4132  1.5271
  145DOPC  H11B17191   2.609   4.264  10.103 -0.6868 -0.7830  0.2018
  145DOPC     P17192   2.602   3.983  10.265 -0.0657 -0.6337 -0.1239
  145DOPC   O1317193   2.489   3.957  10.348  0.5276  0.0835 -0.1186
  145DOPC   O1417194   2.729   3.916  10.296  0.2063 -0.0409 -0.1300
  145DOPC   O1217195   2.630   4.139  10.257 -0.3179 -1.0826  0.5908
  145DOPC   O1117196   2.564   3.956  10.120 -0.4533 -0.3356  0.2689
  145DOPC    C117197   2.654   3.925  10.014 -0.3673  0.1881  0.2088
  145DOPC    HA17198   2.635   3.819   9.984 -0.2688 -0.6071  2.7157
  145DOPC    HB17199   2.759   3.919  10.051 -0.3848 -1.6932  0.0691
  145DOPC    C217200   2.631   4.023   9.896 -0.2308  0.2147 -0.2124
  145DOPC    HS17201   2.623   4.125   9.939  0.6248  0.3734 -0.4214
  145DOPC   O2117202   2.503   3.984   9.834 -0.3593 -0.2647  0.1586
  145DOPC   C2117203   2.420   4.088   9.810 -0.6682 -0.3281 -0.1597
  145DOPC   O2217204   2.435   4.205   9.842 -0.7115 -0.0348  0.7929
  145DOPC   C2217205   2.293   4.023   9.747 -0.4480  0.0039  0.1921
  145DOPC   H2R17206   2.257   3.963   9.834  0.2746  0.8086  1.0650
  145DOPC   H2S17207   2.331   3.959   9.665  0.7218  0.7117  0.1717
  145DOPC    C317208   2.744   4.025   9.791 -0.6365  0.8089 -0.1095
  145DOPC    HX17209   2.767   3.918   9.770 -0.8365  0.8107 -0.3389
  145DOPC    HY17210   2.834   4.065   9.844  0.2227 -0.1745 -0.7897
  145DOPC   O3117211   2.718   4.089   9.663  0.2735  0.6373 -0.2174
  145DOPC   C3117212   2.766   4.213   9.650 -0.2010  0.2400  0.0737
  145DOPC   O3217213   2.832   4.274   9.738  0.3006 -0.2487  0.4805
  145DOPC   C3217214   2.745   4.262   9.506  0.5950  0.1266 -0.9538
  145DOPC   H2X17215   2.762   4.372   9.500 -2.1584  0.5706 -2.3979
  145DOPC   H2Y17216   2.822   4.223   9.437 -0.1940 -1.5522 -0.9446
  145DOPC   C2317217   2.174   4.111   9.690 -0.0722 -0.0480  0.1663
  145DOPC   H3R17218   2.148   4.177   9.775 -0.3200 -1.1879  0.9909
  145DOPC   H3S17219   2.090   4.041   9.673  0.5748 -0.4243 -1.8338
  145DOPC   C2417220   2.204   4.177   9.554  0.2286 -0.6631  0.3652
  145DOPC   H4R17221   2.306   4.221   9.553 -1.0866  2.7028 -0.2569
  145DOPC   H4S17222   2.148   4.273   9.543  1.2149 -0.0922  0.1726
  145DOPC   C2517223   2.200   4.071   9.437 -0.9079 -0.7817 -0.0868
  145DOPC   H5R17224   2.104   4.018   9.456 -0.5770 -1.5416 -0.4880
  145DOPC   H5S17225   2.286   4.000   9.443 -0.1702  0.0401 -0.6612
  145DOPC   C2617226   2.209   4.154   9.308  0.6285  0.3198  0.3416
  145DOPC   H6R17227   2.288   4.232   9.300 -1.1042  2.0325 -1.0113
  145DOPC   H6S17228   2.111   4.207   9.302 -0.4946 -1.7206 -0.1777
  145DOPC   C2717229   2.205   4.068   9.188 -0.1251 -0.2193  0.5244
  145DOPC   H7R17230   2.121   3.997   9.197  0.3424 -0.5731  2.6000
  145DOPC   H7S17231   2.294   4.002   9.196 -1.2351 -1.5804  2.7347
  145DOPC   C2817232   2.210   4.155   9.068  0.1425  0.6445 -0.2395
  145DOPC   H8R17233   2.289   4.229   9.092  0.2589 -0.2836  2.5097
  145DOPC   H8S17234   2.118   4.214   9.050  0.2780  1.6270  2.0936
  145DOPC   C2917235   2.232   4.068   8.948 -0.5136 -0.5264  0.1242
  145DOPC   H9R17236   2.209   3.961   8.958  0.1981 -0.6299  0.7894
  145DOPC  C21017237   2.302   4.114   8.840 -0.1131  0.2342  0.5262
  145DOPC  H10R17238   2.312   4.052   8.750 -3.8567 -0.9539  0.7745
  145DOPC  C21117239   2.340   4.253   8.819 -0.8246  0.1305  0.2727
  145DOPC  H11R17240   2.442   4.251   8.775 -1.6855  1.4213 -1.9605
  145DOPC  H11S17241   2.371   4.313   8.907  1.9504 -0.2549 -0.3309
  145DOPC  C21217242   2.254   4.330   8.708  0.2529  0.5350 -0.2898
  145DOPC  H12R17243   2.207   4.420   8.753  4.0523  2.4644  0.2408
  145DOPC  H12S17244   2.181   4.259   8.662 -0.6160  0.5061  1.0945
  145DOPC  C21317245   2.344   4.390   8.602 -0.0569 -0.3484  0.1477
  145DOPC  H13R17246   2.412   4.314   8.558  0.2184  0.1914 -0.3712
  145DOPC  H13S17247   2.407   4.472   8.644 -0.0244 -0.4457  0.2897
  145DOPC  C21417248   2.255   4.445   8.482 -0.4521 -0.3620  0.3129
  145DOPC  H14R17249   2.184   4.518   8.528  0.4705  0.4216  0.5206
  145DOPC  H14S17250   2.192   4.362   8.443 -0.3359 -1.1745  1.7617
  145DOPC  C21517251   2.339   4.523   8.382 -0.7932  0.6191 -0.1602
  145DOPC  H15R17252   2.424   4.464   8.342 -0.9814  0.5067 -0.3932
  145DOPC  H15S17253   2.377   4.613   8.434 -2.7182  1.2854  0.1871
  145DOPC  C21617254   2.249   4.562   8.260 -0.1851 -0.2741  0.0657
  145DOPC  H16R17255   2.175   4.480   8.247 -0.1541 -0.4750  1.0567
  145DOPC  H16S17256   2.322   4.557   8.177 -0.6226 -1.0982 -0.2825
  145DOPC  C21717257   2.192   4.707   8.279 -0.7916 -0.0143  0.0012
  145DOPC  H17R17258   2.104   4.717   8.211 -1.0296 -0.9420  0.1665
  145DOPC  H17S17259   2.266   4.785   8.252  0.9688 -1.2395  1.1299
  145DOPC  C21817260   2.136   4.748   8.420 -0.0665 -0.2951 -0.2093
  145DOPC  H18R17261   2.042   4.696   8.450  0.2924 -0.8823 -0.0833
  145DOPC  H18S17262   2.117   4.857   8.421 -0.6875 -0.3955 -0.2397
  145DOPC  H18T17263   2.216   4.733   8.496  0.8942 -0.3677 -1.2238
  145DOPC   C3317264   2.609   4.220   9.438  0.0764 -0.6859 -0.8944
  145DOPC   H3X17265   2.583   4.290   9.356 -0.3773 -1.9639 -1.8844
  145DOPC   H3Y17266   2.532   4.226   9.518 -0.3578  0.0517 -1.3451
  145DOPC   C3417267   2.607   4.078   9.377  0.5843 -0.2507 -0.2598
  145DOPC   H4X17268   2.502   4.049   9.356  0.2457  1.2042 -0.6752
  145DOPC   H4Y17269   2.654   4.012   9.453  0.0271  1.4485  1.6294
  145DOPC   C3517270   2.677   4.077   9.238  0.2102  0.0412 -0.7745
  145DOPC   H5X17271   2.784   4.100   9.262  0.3559  1.5277 -2.6168
  145DOPC   H5Y17272   2.639   4.161   9.176 -0.3560  0.6413  0.3368
  145DOPC   C3617273   2.645   3.950   9.171  0.4442  0.1726 -0.0494
  145DOPC   H6X17274   2.673   3.863   9.235 -0.2309 -2.3690 -2.9644
  145DOPC   H6Y17275   2.536   3.951   9.151  0.8216  0.8950 -2.5093
  145DOPC   C3717276   2.707   3.940   9.030  0.2378  0.2264  0.5692
  145DOPC   H7X17277   2.664   4.021   8.967  0.0057  0.1334  0.6052
  145DOPC   H7Y17278   2.818   3.947   9.031  0.2113  0.6452  0.6348
  145DOPC   C3817279   2.661   3.810   8.966  0.0455 -0.0038  0.5907
  145DOPC   H8X17280   2.552   3.823   8.945  0.2774 -2.6562 -3.1918
  145DOPC   H8Y17281   2.682   3.727   9.038  0.3422 -2.2363 -1.9281
  145DOPC   C3917282   2.717   3.780   8.829  0.2859 -0.0909 -0.1958
  145DOPC   H9X17283   2.721   3.870   8.767 -0.8269  0.2791  0.2454
  145DOPC  C31017284   2.775   3.667   8.791  0.4282  0.8783 -0.4864
  145DOPC  H10X17285   2.831   3.676   8.697  2.0233  1.2700  0.4692
  145DOPC  C31117286   2.796   3.545   8.869 -0.5085  0.0758  0.2602
  145DOPC  H11X17287   2.794   3.557   8.980 -0.3831 -1.5218  0.4639
  145DOPC  H11Y17288   2.902   3.513   8.857 -0.7234 -0.9824  1.0180
  145DOPC  C31217289   2.715   3.419   8.847 -0.6549  0.5794 -0.0942
  145DOPC  H12X17290   2.704   3.389   8.741 -2.3690  1.2048 -0.1231
  145DOPC  H12Y17291   2.613   3.448   8.882  0.1532 -0.0768  3.1486
  145DOPC  C31317292   2.766   3.299   8.922  0.2175  0.1690  0.3006
  145DOPC  H13X17293   2.870   3.267   8.903  1.0005  2.0713  1.0883
  145DOPC  H13Y17294   2.765   3.322   9.030  0.4818 -1.3217  0.6446
  145DOPC  C31417295   2.675   3.172   8.912 -1.0475 -0.5401  0.4841
  145DOPC  H14X17296   2.743   3.097   8.957 -1.0417 -0.1613  1.1153
  145DOPC  H14Y17297   2.583   3.190   8.973 -0.4374  4.9117  0.3040
  145DOPC  C31517298   2.631   3.122   8.775  0.4706  0.5421  0.4915
  145DOPC  H15X17299   2.709   3.147   8.699  0.2643 -0.6599 -0.1365
  145DOPC  H15Y17300   2.544   3.187   8.748  0.3053  0.5031  0.9314
  145DOPC  C31617301   2.611   2.969   8.771 -0.1730 -0.3435 -0.3052
  145DOPC  H16X17302   2.630   2.935   8.666  0.2942  0.7459 -0.5786
  145DOPC  H16Y17303   2.687   2.919   8.834 -1.1544 -1.7419 -0.1643
  145DOPC  C31717304   2.476   2.924   8.807  0.7667 -0.2195  0.6107
  145DOPC  H17X17305   2.483   2.814   8.796  0.9340 -0.0528 -1.3487
  145DOPC  H17Y17306   2.445   2.943   8.912  2.3309  0.1838  1.0223
  145DOPC  C31817307   2.369   2.967   8.699 -0.1540 -0.4364 -0.3422
  145DOPC  H18X17308   2.371   3.077   8.690  3.0413 -0.4431 -1.1291
  145DOPC  H18Y17309   2.383   2.913   8.603  0.1909 -2.5350  0.8189
  145DOPC  H18Z17310   2.271   2.938   8.743  0.2086  0.0224  0.8003
  146DOPC     N17311   2.812   2.227  10.686 -0.4457 -0.0856  0.1193
  146DOPC   C1217312   2.704   2.180  10.598 -0.0362  0.4073  0.7960
  146DOPC  H12A17313   2.632   2.259  10.584 -0.0717  0.2226 -0.1174
  146DOPC  H12B17314   2.651   2.091  10.629 -0.8894 -0.0765 -1.7745
  146DOPC   C1317315   2.852   2.361  10.626 -0.0662  0.0664 -0.7715
  146DOPC  H13A17316   2.876   2.353  10.521  1.3888  1.6994 -0.5954
  146DOPC  H13B17317   2.775   2.435  10.639  0.5528  0.5511  0.2677
  146DOPC  H13C17318   2.931   2.413  10.677  0.4925 -0.4377 -1.1069
  146DOPC   C1417319   2.929   2.134  10.699 -0.7010 -0.7329 -0.2182
  146DOPC  H14A17320   2.949   2.099  10.599  1.5071 -2.1077  0.6469
  146DOPC  H14B17321   3.015   2.175  10.749 -0.8834  0.3535 -0.7409
  146DOPC  H14C17322   2.892   2.051  10.756  0.0505 -0.7585  0.2402
  146DOPC   C1517323   2.750   2.255  10.818  0.2655  0.0544 -0.7253
  146DOPC  H15A17324   2.678   2.332  10.794 -1.3040 -1.6271 -1.6501
  146DOPC  H15B17325   2.825   2.281  10.891 -1.4114  0.0120  1.0685
  146DOPC  H15C17326   2.697   2.170  10.858 -0.4286  1.4725  1.5258
  146DOPC   C1117327   2.750   2.136  10.450 -0.1396 -0.4329 -0.1016
  146DOPC  H11A17328   2.662   2.106  10.390  1.4987 -0.8556 -2.4077
  146DOPC  H11B17329   2.790   2.228  10.403  3.9675 -1.4858  0.8878
  146DOPC     P17330   2.817   1.888  10.497 -0.4328  0.1124 -0.0421
  146DOPC   O1317331   2.685   1.890  10.574  0.3241 -0.2735 -0.0525
  146DOPC   O1417332   2.946   1.855  10.565 -0.0508  0.4440 -0.1081
  146DOPC   O1217333   2.848   2.031  10.433  0.2870 -0.1423 -0.0853
  146DOPC   O1117334   2.795   1.800  10.375  0.3464 -0.3548  0.0067
  146DOPC    C117335   2.686   1.814  10.283  0.8042  0.2932 -0.8215
  146DOPC    HA17336   2.596   1.856  10.334  0.0691 -2.2585  0.1440
  146DOPC    HB17337   2.652   1.712  10.258  1.5202 -0.6976  1.9232
  146DOPC    C217338   2.726   1.884  10.160 -0.2422  0.7086  0.2631
  146DOPC    HS17339   2.788   1.973  10.187  1.1254  0.2034 -1.0294
  146DOPC   O2117340   2.603   1.910  10.090 -0.1295 -0.2594  0.2204
  146DOPC   C2117341   2.592   2.023  10.018  0.7597 -0.2521  0.0723
  146DOPC   O2217342   2.677   2.104   9.998  0.5288 -0.3375  0.2572
  146DOPC   C2217343   2.447   2.049   9.993  0.1357 -0.1938 -0.6953
  146DOPC   H2R17344   2.399   2.110  10.073 -3.2938 -1.2559 -1.7490
  146DOPC   H2S17345   2.396   1.950   9.992 -1.4163  0.5306  0.8892
  146DOPC    C317346   2.826   1.798  10.078  0.0058  0.1394 -0.3648
  146DOPC    HX17347   2.780   1.697  10.069  1.1457 -0.4430  0.1086
  146DOPC    HY17348   2.913   1.781  10.144  1.6337  4.0421 -1.2350
  146DOPC   O3117349   2.858   1.849   9.946 -0.0860 -0.7415 -0.2440
  146DOPC   C3117350   2.976   1.914   9.941  0.1467 -0.5298 -0.3377
  146DOPC   O3217351   3.063   1.916  10.027  0.2705 -0.4799 -0.0518
  146DOPC   C3217352   2.991   1.978   9.804  0.4209  0.3132  0.1702
  146DOPC   H2X17353   2.901   2.041   9.785  0.0311 -0.3652 -0.3039
  146DOPC   H2Y17354   3.082   2.041   9.802 -0.2519  1.3039 -0.2453
  146DOPC   C2317355   2.424   2.115   9.850 -0.2671 -0.6724  0.7710
  146DOPC   H3R17356   2.460   2.044   9.773  1.4086  1.2630 -0.3419
  146DOPC   H3S17357   2.477   2.212   9.834 -2.0970  0.2985  0.1789
  146DOPC   C2417358   2.275   2.138   9.822 -0.4260 -0.0822  0.1244
  146DOPC   H4R17359   2.232   2.206   9.898  0.2903  1.6154 -0.9229
  146DOPC   H4S17360   2.225   2.039   9.823  1.9993 -1.4449 -1.9077
  146DOPC   C2517361   2.241   2.226   9.698  0.3639 -0.3839  0.5408
  146DOPC   H5R17362   2.290   2.167   9.617  0.4890 -2.0724  1.7720
  146DOPC   H5S17363   2.285   2.327   9.689 -0.6570 -0.0810 -1.7733
  146DOPC   C2617364   2.088   2.232   9.668  0.5197 -0.6484 -0.0630
  146DOPC   H6R17365   2.040   2.264   9.764 -1.4324 -1.3254 -0.7680
  146DOPC   H6S17366   2.061   2.127   9.645  0.3547 -1.4565  3.3162
  146DOPC   C2717367   2.056   2.335   9.552  0.2801  0.3645 -0.9884
  146DOPC   H7R17368   2.123   2.423   9.564 -1.2034  1.4579 -0.4160
  146DOPC   H7S17369   1.950   2.365   9.567  0.8368  0.9940  2.4681
  146DOPC   C2817370   2.096   2.275   9.414  0.4366  0.0311 -0.8419
  146DOPC   H8R17371   2.024   2.196   9.384  0.0170  0.3129 -0.5743
  146DOPC   H8S17372   2.199   2.234   9.411  0.9647  0.4597  3.8870
  146DOPC   C2917373   2.079   2.374   9.298 -0.2118 -1.1595 -0.1001
  146DOPC   H9R17374   1.992   2.380   9.231 -3.0205  1.4980  3.3685
  146DOPC  C21017375   2.171   2.462   9.267 -0.4739 -0.4562  0.4109
  146DOPC  H10R17376   2.142   2.530   9.186 -0.4213 -1.3580 -0.3875
  146DOPC  C21117377   2.306   2.492   9.323  0.5796 -0.3808  0.3262
  146DOPC  H11R17378   2.311   2.450   9.426 -0.8206  1.5719  1.2530
  146DOPC  H11S17379   2.330   2.600   9.333  2.4086 -0.6227 -0.9381
  146DOPC  C21217380   2.413   2.423   9.235  0.3192 -0.0364  0.1235
  146DOPC  H12R17381   2.410   2.478   9.139 -1.6707  0.5944  0.5029
  146DOPC  H12S17382   2.377   2.318   9.230  0.8282 -0.2290  0.3830
  146DOPC  C21317383   2.554   2.418   9.298 -0.3270 -0.0648  0.5497
  146DOPC  H13R17384   2.567   2.519   9.342  1.5612 -0.5419  1.2006
  146DOPC  H13S17385   2.620   2.400   9.210 -0.9564 -0.6776  0.1909
  146DOPC  C21417386   2.575   2.309   9.410  0.0103  0.1603 -0.3390
  146DOPC  H14R17387   2.568   2.215   9.352  0.1280  0.0733 -0.2126
  146DOPC  H14S17388   2.490   2.312   9.480  0.6756  0.2756  0.4798
  146DOPC  C21517389   2.722   2.317   9.472  0.9740  0.1126 -0.6229
  146DOPC  H15R17390   2.801   2.348   9.401  1.7408 -1.3460 -0.4436
  146DOPC  H15S17391   2.752   2.216   9.506  0.1431  0.6369  1.8972
  146DOPC  C21617392   2.728   2.399   9.597  0.0843  0.7816 -0.1914
  146DOPC  H16R17393   2.674   2.345   9.678  1.2102 -0.1156 -0.0140
  146DOPC  H16S17394   2.678   2.497   9.583 -2.7643 -0.6990 -1.2063
  146DOPC  C21717395   2.869   2.408   9.648 -0.2058 -0.2221 -0.3381
  146DOPC  H17R17396   2.942   2.432   9.569 -0.1482  1.7532  0.2601
  146DOPC  H17S17397   2.887   2.302   9.675  0.9589  0.1440  0.3750
  146DOPC  C21817398   2.893   2.488   9.773 -0.2710  0.4265  0.1060
  146DOPC  H18R17399   2.984   2.465   9.833 -1.5741 -1.0066  1.6419
  146DOPC  H18S17400   2.814   2.481   9.850 -0.4663 -1.5596 -0.2221
  146DOPC  H18T17401   2.888   2.591   9.733  0.3737  0.6428  0.5524
  146DOPC   C3317402   3.002   1.863   9.694  0.7412 -0.6091 -0.5160
  146DOPC   H3X17403   2.924   1.788   9.720  0.7851 -0.5863 -0.3161
  146DOPC   H3Y17404   3.107   1.825   9.698  0.5105 -1.2096  0.1851
  146DOPC   C3417405   2.975   1.931   9.563 -0.7157 -0.0611 -0.0433
  146DOPC   H4X17406   3.069   1.986   9.545 -0.1359 -0.6311  1.1519
  146DOPC   H4Y17407   2.895   2.008   9.566 -1.9069 -1.2986  2.0405
  146DOPC   C3517408   2.952   1.822   9.459 -0.8754  0.2540  0.2373
  146DOPC   H5X17409   2.849   1.781   9.464 -1.0118  0.1520 -2.1051
  146DOPC   H5Y17410   3.023   1.736   9.469  1.7999  2.3965  0.9876
  146DOPC   C3617411   2.978   1.856   9.311 -0.0786  0.6724 -0.2239
  146DOPC   H6X17412   2.894   1.915   9.267 -0.7600 -0.5606 -0.6506
  146DOPC   H6Y17413   3.065   1.924   9.301 -1.3090  2.6901  1.7230
  146DOPC   C3717414   3.009   1.737   9.221 -0.1101  0.1454  0.7902
  146DOPC   H7X17415   3.058   1.758   9.124 -2.7913 -1.8817 -1.1624
  146DOPC   H7Y17416   3.080   1.669   9.273  1.0081  1.0509  0.4821
  146DOPC   C3817417   2.884   1.649   9.199 -0.3372 -0.1620 -0.9488
  146DOPC   H8X17418   2.812   1.730   9.174 -3.2069 -1.6797  1.6677
  146DOPC   H8Y17419   2.859   1.598   9.294 -1.0537  3.5297  1.0678
  146DOPC   C3917420   2.906   1.545   9.097 -0.8419 -0.1312  0.1111
  146DOPC   H9X17421   2.993   1.478   9.102 -0.9302 -0.3440 -1.0281
  146DOPC  C31017422   2.837   1.537   8.988 -0.1353 -0.4854 -0.7971
  146DOPC  H10X17423   2.858   1.454   8.919  0.0469  1.0010 -2.6040
  146DOPC  C31117424   2.724   1.609   8.929  0.4490 -0.3793 -0.0137
  146DOPC  H11X17425   2.678   1.684   8.996  0.5855 -0.5686  0.2911
  146DOPC  H11Y17426   2.644   1.536   8.903  0.6752 -1.1836  1.4442
  146DOPC  C31217427   2.758   1.674   8.799 -0.2607 -0.5768 -0.1730
  146DOPC  H12X17428   2.854   1.728   8.811 -0.7123  0.1142  0.4126
  146DOPC  H12Y17429   2.680   1.751   8.780  2.8644  2.7805 -0.4632
  146DOPC  C31317430   2.745   1.591   8.670  0.2513 -0.6463  0.4030
  146DOPC  H13X17431   2.806   1.499   8.677 -1.8913 -2.3404 -1.4139
  146DOPC  H13Y17432   2.636   1.569   8.674  0.5671 -2.5075 -0.0701
  146DOPC  C31417433   2.756   1.671   8.534 -0.3762  0.2118  0.0801
  146DOPC  H14X17434   2.691   1.760   8.546  1.2846  1.7231 -1.4500
  146DOPC  H14Y17435   2.858   1.716   8.529  0.3354 -1.0518  2.0665
  146DOPC  C31517436   2.738   1.589   8.407  0.0467  0.0510 -0.2194
  146DOPC  H15X17437   2.634   1.550   8.409  0.5726 -1.3910 -0.0492
  146DOPC  H15Y17438   2.803   1.500   8.412 -1.2438 -0.9703 -0.8340
  146DOPC  C31617439   2.781   1.666   8.280  0.1592  0.0167  0.5667
  146DOPC  H16X17440   2.688   1.695   8.227  0.8968 -0.9748 -1.3741
  146DOPC  H16Y17441   2.843   1.755   8.305  1.4858 -0.6181 -0.3248
  146DOPC  C31717442   2.869   1.574   8.185 -0.5783  0.8579 -0.1448
  146DOPC  H17X17443   2.960   1.546   8.242 -0.5212  0.1697 -0.5549
  146DOPC  H17Y17444   2.823   1.478   8.155  0.2474  0.2237  0.6010
  146DOPC  C31817445   2.913   1.641   8.051 -0.3493  0.5684 -0.0829
  146DOPC  H18X17446   2.964   1.557   7.999  1.3588 -0.0883  2.4139
  146DOPC  H18Y17447   2.822   1.677   8.000  0.4424  1.3725 -0.9558
  146DOPC  H18Z17448   2.988   1.722   8.065  0.6617 -0.0913 -1.3986
  147DOPC     N17449   7.286   1.595  10.301 -0.6115 -0.1735 -0.0284
  147DOPC   C1217450   7.220   1.536  10.169 -0.7112  0.4481  0.0000
  147DOPC  H12A17451   7.144   1.470  10.208  0.5596  0.0319  1.8940
  147DOPC  H12B17452   7.292   1.471  10.124 -1.3227  0.8004 -1.5581
  147DOPC   C1317453   7.331   1.469  10.375 -0.7011 -0.6300 -0.0978
  147DOPC  H13A17454   7.376   1.494  10.470  0.5240  1.9722 -1.2562
  147DOPC  H13B17455   7.251   1.397  10.380 -0.2160 -1.1535  0.1619
  147DOPC  H13C17456   7.398   1.410  10.315  0.0819  0.2217 -0.0898
  147DOPC   C1417457   7.196   1.671  10.384  0.5583 -0.0046 -0.6537
  147DOPC  H14A17458   7.121   1.610  10.432  2.3180 -1.0552  0.8950
  147DOPC  H14B17459   7.250   1.729  10.458  1.3548 -0.5171 -0.8159
  147DOPC  H14C17460   7.140   1.733  10.316 -1.8396  0.8640  1.9208
  147DOPC   C1517461   7.407   1.679  10.265 -0.4254 -0.5470  0.5128
  147DOPC  H15A17462   7.449   1.721  10.355  0.1175 -0.3600  0.1744
  147DOPC  H15B17463   7.378   1.768  10.211  0.4855  0.8616  2.2553
  147DOPC  H15C17464   7.485   1.632  10.206  0.9515 -0.0459  1.8870
  147DOPC   C1117465   7.156   1.631  10.069 -0.4875 -0.2981  0.1488
  147DOPC  H11A17466   7.234   1.709  10.051 -0.4802 -0.6913 -1.7411
  147DOPC  H11B17467   7.154   1.576   9.972  5.3635 -0.0781 -0.4654
  147DOPC     P17468   6.904   1.614  10.126  0.3904 -0.3069  0.3941
  147DOPC   O1317469   6.800   1.692  10.184  0.1991 -0.2752 -0.0831
  147DOPC   O1417470   6.934   1.482  10.185 -0.8954 -0.2463 -0.1676
  147DOPC   O1217471   7.042   1.690  10.123  0.4735  0.7497  0.6060
  147DOPC   O1117472   6.879   1.588   9.971  0.1082  0.4535  0.2142
  147DOPC    C117473   6.891   1.695   9.878  0.3721  0.1208 -0.3206
  147DOPC    HA17474   6.991   1.742   9.881  0.1775  0.5159  0.3526
  147DOPC    HB17475   6.817   1.778   9.894  0.9128  0.9807 -2.0545
  147DOPC    C217476   6.853   1.651   9.731 -0.0084  0.4579 -0.1861
  147DOPC    HS17477   6.842   1.734   9.657  1.8366  2.0851  1.2714
  147DOPC   O2117478   6.742   1.565   9.730 -0.2742  0.3042 -0.8330
  147DOPC   C2117479   6.621   1.616   9.762 -0.8789  0.0511  0.0930
  147DOPC   O2217480   6.595   1.734   9.749  0.2739 -0.8389  0.3404
  147DOPC   C2217481   6.543   1.503   9.823  0.1406  0.4776  0.3955
  147DOPC   H2R17482   6.565   1.518   9.931  0.1396 -0.9543  0.6097
  147DOPC   H2S17483   6.579   1.402   9.792 -0.7664  0.1421  0.3986
  147DOPC    C317484   6.964   1.566   9.682  0.1933  0.7890 -0.2025
  147DOPC    HX17485   6.946   1.537   9.576 -0.6237  3.4916 -0.8786
  147DOPC    HY17486   6.971   1.468   9.734  0.6172  1.4711  1.0714
  147DOPC   O3117487   7.088   1.641   9.681 -0.0782 -0.3445 -0.5512
  147DOPC   C3117488   7.198   1.574   9.630  0.4054 -0.9888 -0.5251
  147DOPC   O3217489   7.202   1.462   9.591  0.0446 -0.4750  0.1863
  147DOPC   C3217490   7.324   1.671   9.636 -0.1292 -0.0021 -0.1135
  147DOPC   H2X17491   7.292   1.772   9.601 -0.0487 -0.1196 -0.5355
  147DOPC   H2Y17492   7.353   1.688   9.741 -0.2758 -0.7443  0.0494
  147DOPC   C2317493   6.393   1.508   9.790  0.4728 -0.0515  0.1057
  147DOPC   H3R17494   6.361   1.613   9.810  2.3835  0.0323  3.5472
  147DOPC   H3S17495   6.340   1.436   9.857  0.2504 -0.8551 -0.9018
  147DOPC   C2417496   6.357   1.474   9.651  0.5817  0.2427 -0.3773
  147DOPC   H4R17497   6.390   1.370   9.632  0.1555  0.2041 -0.9049
  147DOPC   H4S17498   6.409   1.539   9.577 -1.4814  2.7556  0.1953
  147DOPC   C2517499   6.206   1.479   9.615 -0.1447  0.3705  0.5805
  147DOPC   H5R17500   6.176   1.586   9.607 -1.2424  0.0230 -0.2989
  147DOPC   H5S17501   6.145   1.434   9.696 -0.7525 -0.4415 -0.3054
  147DOPC   C2617502   6.181   1.426   9.475  0.6140 -0.0056  0.5290
  147DOPC   H6R17503   6.192   1.315   9.475 -0.0784 -0.0886 -0.2265
  147DOPC   H6S17504   6.257   1.461   9.402 -0.8796  0.2574 -0.9870
  147DOPC   C2717505   6.047   1.469   9.424  0.5469 -0.6229  0.4360
  147DOPC   H7R17506   6.050   1.573   9.385 -0.9521 -1.8879 -3.4875
  147DOPC   H7S17507   5.977   1.476   9.510  3.7023 -0.2937  3.2224
  147DOPC   C2817508   5.979   1.363   9.326  0.6631 -0.1228 -0.2128
  147DOPC   H8R17509   6.011   1.264   9.365  1.1058 -0.1133 -0.5396
  147DOPC   H8S17510   6.018   1.386   9.224 -2.1460 -0.9148 -1.5631
  147DOPC   C2917511   5.829   1.363   9.303  0.2746  0.1106  0.5325
  147DOPC   H9R17512   5.786   1.454   9.258  0.2637 -0.1602 -0.0121
  147DOPC  C21017513   5.739   1.277   9.351  0.0383 -0.4282  0.0237
  147DOPC  H10R17514   5.634   1.302   9.334 -0.0935 -1.5155 -0.8756
  147DOPC  C21117515   5.771   1.151   9.438 -0.2474  0.3865  0.4314
  147DOPC  H11R17516   5.750   1.163   9.546 -0.3377  0.4525  0.4068
  147DOPC  H11S17517   5.876   1.116   9.440 -0.0571  0.7346 -1.2861
  147DOPC  C21217518   5.692   1.033   9.370  1.0103  0.7964 -0.1841
  147DOPC  H12R17519   5.588   1.072   9.372 -0.2537 -2.1771 -1.6899
  147DOPC  H12S17520   5.698   0.946   9.438  1.2334  1.3834  0.5545
  147DOPC  C21317521   5.749   0.988   9.240 -0.2497 -0.3760 -0.1058
  147DOPC  H13R17522   5.859   0.986   9.229 -0.4263 -0.7925 -2.3798
  147DOPC  H13S17523   5.728   1.068   9.165 -1.1486 -0.3608  0.1496
  147DOPC  C21417524   5.704   0.852   9.196 -0.1594 -0.2516  0.1826
  147DOPC  H14R17525   5.600   0.852   9.159  0.2824 -0.7751 -1.0906
  147DOPC  H14S17526   5.704   0.783   9.283  1.8856 -0.4025  0.1122
  147DOPC  C21517527   5.794   0.785   9.092  0.2059 -0.5987  0.0351
  147DOPC  H15R17528   5.746   0.692   9.053  0.3204 -1.2480  1.4042
  147DOPC  H15S17529   5.886   0.757   9.147  0.3762 -0.8604 -0.3773
  147DOPC  C21617530   5.834   0.887   8.984  0.0389 -0.1234  0.2952
  147DOPC  H16R17531   5.928   0.841   8.945 -0.2528 -0.1585 -0.3822
  147DOPC  H16S17532   5.870   0.981   9.030 -0.7182 -0.3649  1.4130
  147DOPC  C21717533   5.723   0.912   8.882 -0.8486  0.1636  0.1591
  147DOPC  H17R17534   5.633   0.936   8.943 -1.5886  2.1949 -1.5922
  147DOPC  H17S17535   5.703   0.830   8.809 -0.8659  0.1551  0.1737
  147DOPC  C21817536   5.738   1.041   8.797  0.0067 -0.2921 -0.3630
  147DOPC  H18R17537   5.728   1.131   8.861  0.6305 -0.4320 -0.0530
  147DOPC  H18S17538   5.664   1.051   8.715 -0.3078  0.0987 -0.0338
  147DOPC  H18T17539   5.842   1.044   8.758  1.1293 -1.4829  2.2334
  147DOPC   C3317540   7.432   1.632   9.533 -1.1295 -0.6267  0.3087
  147DOPC   H3X17541   7.397   1.606   9.431 -0.0303  1.7482 -0.7281
  147DOPC   H3Y17542   7.494   1.548   9.571 -0.8466 -0.1505  0.9238
  147DOPC   C3417543   7.527   1.757   9.519 -0.0541  0.7756 -0.0393
  147DOPC   H4X17544   7.626   1.732   9.474  0.1336 -2.1566  1.7185
  147DOPC   H4Y17545   7.547   1.797   9.621 -1.0783 -0.1706  0.5456
  147DOPC   C3517546   7.477   1.884   9.438  0.3189 -0.1527 -0.3318
  147DOPC   H5X17547   7.549   1.965   9.463  1.3874 -1.2410  0.2141
  147DOPC   H5Y17548   7.377   1.909   9.480  0.4146  0.1017 -0.2541
  147DOPC   C3617549   7.486   1.882   9.288  0.0781  0.2691  0.4824
  147DOPC   H6X17550   7.576   1.828   9.251 -2.6396 -2.6141 -2.6507
  147DOPC   H6Y17551   7.400   1.817   9.260  2.5074 -3.0044 -0.0695
  147DOPC   C3717552   7.486   2.016   9.219 -0.4239  1.6356  0.4039
  147DOPC   H7X17553   7.410   2.082   9.265  0.9206  3.5340  0.0503
  147DOPC   H7Y17554   7.581   2.074   9.217  0.7810 -0.2294 -1.1229
  147DOPC   C3817555   7.448   1.991   9.069  0.7489 -0.8687 -0.1434
  147DOPC   H8X17556   7.416   2.091   9.034  0.3493  0.1495  2.8255
  147DOPC   H8Y17557   7.351   1.936   9.066 -0.0509  0.5453 -1.2673
  147DOPC   C3917558   7.538   1.926   8.977 -0.6269 -0.2219 -0.2483
  147DOPC   H9X17559   7.621   1.876   9.028 -0.8810  0.2618  0.6693
  147DOPC  C31017560   7.548   1.934   8.838  0.1617  0.2218 -0.0593
  147DOPC  H10X17561   7.625   1.869   8.794 -0.1901 -1.0045  1.0734
  147DOPC  C31117562   7.449   1.994   8.742 -0.2237 -0.2390  0.0422
  147DOPC  H11X17563   7.384   2.062   8.801 -0.0200 -0.2759  0.3098
  147DOPC  H11Y17564   7.378   1.922   8.695 -1.1286  0.6289  0.0446
  147DOPC  C31217565   7.526   2.076   8.636  0.2616  0.1242 -0.8022
  147DOPC  H12X17566   7.619   2.124   8.674  0.3371 -1.0768  0.6352
  147DOPC  H12Y17567   7.460   2.158   8.600 -0.2603 -0.8060 -2.0438
  147DOPC  C31317568   7.572   1.985   8.521 -0.0433 -0.6596 -0.1032
  147DOPC  H13X17569   7.682   1.976   8.511 -0.1536 -1.1231 -1.0361
  147DOPC  H13Y17570   7.540   1.882   8.548 -0.5667 -0.5474 -0.2801
  147DOPC  C31417571   7.513   2.031   8.387 -0.6411 -0.6026  0.2312
  147DOPC  H14X17572   7.403   2.044   8.382 -0.7451 -1.4134  0.2575
  147DOPC  H14Y17573   7.567   2.127   8.369 -0.6353 -0.9138 -1.6656
  147DOPC  C31517574   7.560   1.939   8.271  0.1897 -0.0156 -0.4228
  147DOPC  H15X17575   7.500   1.846   8.267  1.2459 -0.9105  2.2559
  147DOPC  H15Y17576   7.659   1.896   8.295 -0.4047 -1.0727  0.2042
  147DOPC  C31617577   7.541   2.003   8.132 -0.3091  0.2545 -0.7804
  147DOPC  H16X17578   7.575   2.108   8.144  0.2299  0.0634 -0.6030
  147DOPC  H16Y17579   7.613   1.950   8.066 -1.0071 -1.0214 -0.5526
  147DOPC  C31717580   7.398   2.005   8.076 -0.7545 -0.1176 -0.6801
  147DOPC  H17X17581   7.356   1.902   8.083  0.2714 -0.5038  0.1249
  147DOPC  H17Y17582   7.343   2.055   8.158  1.7738  0.0904  0.9983
  147DOPC  C31817583   7.377   2.051   7.933 -0.3908 -0.3769  0.8673
  147DOPC  H18X17584   7.269   2.034   7.912  0.1009 -2.1764 -0.4704
  147DOPC  H18Y17585   7.413   2.156   7.929  0.4191 -0.6952 -2.2942
  147DOPC  H18Z17586   7.436   1.998   7.856  1.8682 -0.6519  2.6651
  148DOPC     N17587   1.481   3.529  10.539 -0.1759  0.2706  0.1351
  148DOPC   C1217588   1.390   3.520  10.420 -0.5046 -0.2520 -0.0935
  148DOPC  H12A17589   1.301   3.579  10.440  0.4365  1.3264 -0.3995
  148DOPC  H12B17590   1.358   3.420  10.398 -1.2403 -0.0888  0.1949
  148DOPC   C1317591   1.527   3.666  10.561 -0.0510 -0.5596  0.0252
  148DOPC  H13A17592   1.445   3.726  10.598 -0.0972 -1.8000  2.0827
  148DOPC  H13B17593   1.610   3.672  10.630  0.1346 -0.0235 -0.2381
  148DOPC  H13C17594   1.566   3.704  10.468  0.0739  0.8052  0.6079
  148DOPC   C1417595   1.592   3.431  10.534 -0.1050 -0.0982  0.3505
  148DOPC  H14A17596   1.659   3.449  10.451 -0.5331 -0.7677 -0.1527
  148DOPC  H14B17597   1.650   3.445  10.624 -0.2469 -0.2881  0.4696
  148DOPC  H14C17598   1.562   3.327  10.540  1.2579 -0.4345  2.8238
  148DOPC   C1517599   1.394   3.503  10.655 -0.1044  0.2644  0.0887
  148DOPC  H15A17600   1.348   3.407  10.640 -2.2300  0.6987  3.0040
  148DOPC  H15B17601   1.313   3.574  10.667 -0.4043 -0.4175  2.7765
  148DOPC  H15C17602   1.452   3.495  10.746  0.8244 -0.7559 -0.5822
  148DOPC   C1117603   1.449   3.572  10.284 -0.5433  0.6962  0.6341
  148DOPC  H11A17604   1.376   3.562  10.201 -0.4942  0.0936  0.6596
  148DOPC  H11B17605   1.441   3.681  10.303 -2.4733  0.3806  1.9569
  148DOPC     P17606   1.609   3.409  10.155 -0.0319  0.1850 -0.5141
  148DOPC   O1317607   1.526   3.292  10.203 -0.1280  0.0509 -0.7024
  148DOPC   O1417608   1.752   3.383  10.142 -0.2290  0.0614 -0.3537
  148DOPC   O1217609   1.589   3.531  10.254 -0.0243 -0.1659 -0.3204
  148DOPC   O1117610   1.541   3.457  10.017 -0.3157  0.7288  1.0317
  148DOPC    C117611   1.639   3.514   9.922 -0.1194 -0.0449 -0.3732
  148DOPC    HA17612   1.586   3.531   9.826 -1.5391  1.0918  0.5669
  148DOPC    HB17613   1.717   3.439   9.899 -1.1909 -1.8271  1.4976
  148DOPC    C217614   1.682   3.657   9.966  0.4008  0.2302 -0.6760
  148DOPC    HS17615   1.742   3.631  10.056 -0.4970 -0.3596 -0.2403
  148DOPC   O2117616   1.565   3.747   9.991  0.0266  0.2652 -0.5580
  148DOPC   C2117617   1.587   3.869  10.039  0.0201  0.5497  0.4743
  148DOPC   O2217618   1.694   3.911  10.079 -0.0898  0.2323  0.7028
  148DOPC   C2217619   1.448   3.942  10.046 -0.4036  0.4211  0.1910
  148DOPC   H2R17620   1.408   3.937  10.150  0.7760 -1.2780  0.6113
  148DOPC   H2S17621   1.380   3.881   9.981 -0.6056  0.9738 -0.1222
  148DOPC    C317622   1.794   3.715   9.877 -0.6486  0.0079  0.7024
  148DOPC    HX17623   1.873   3.637   9.875 -0.7387 -0.1918  2.5154
  148DOPC    HY17624   1.850   3.800   9.923  0.1659  0.0675 -0.3516
  148DOPC   O3117625   1.750   3.741   9.745  0.5246 -0.2049 -0.5945
  148DOPC   C3117626   1.792   3.855   9.686 -1.0362  0.8780 -0.6565
  148DOPC   O3217627   1.879   3.929   9.731  0.0104  0.6480  0.1002
  148DOPC   C3217628   1.724   3.879   9.549 -0.8573 -0.0558  0.8896
  148DOPC   H2X17629   1.763   3.799   9.483 -1.6915  0.1962  0.0534
  148DOPC   H2Y17630   1.614   3.863   9.560 -0.8094 -0.8153  0.3756
  148DOPC   C2317631   1.448   4.084   9.979 -0.1260 -0.3538 -0.4860
  148DOPC   H3R17632   1.532   4.140  10.025  0.3733 -2.2321  1.0263
  148DOPC   H3S17633   1.363   4.148  10.009 -1.2097 -1.0961 -1.8369
  148DOPC   C2417634   1.449   4.094   9.829  0.0105  0.0789  0.3862
  148DOPC   H4R17635   1.540   4.054   9.779 -0.3946 -0.7369  0.2742
  148DOPC   H4S17636   1.461   4.201   9.804  0.5576  0.0063  0.3193
  148DOPC   C2517637   1.321   4.040   9.753 -0.5988 -0.3365 -0.0935
  148DOPC   H5R17638   1.318   3.929   9.755  3.2023 -0.5916 -1.0097
  148DOPC   H5S17639   1.339   4.053   9.644 -1.4932  0.3335 -0.1754
  148DOPC   C2617640   1.197   4.119   9.807 -0.0910 -0.0316  0.4632
  148DOPC   H6R17641   1.211   4.226   9.781 -0.2937 -0.6850 -2.8765
  148DOPC   H6S17642   1.195   4.100   9.916 -1.3071  0.6944  0.5889
  148DOPC   C2717643   1.063   4.070   9.747 -0.2221 -0.2214  0.3387
  148DOPC   H7R17644   1.054   3.959   9.748 -0.9332 -0.1971 -0.9753
  148DOPC   H7S17645   1.066   4.075   9.636 -0.4340  3.2322  0.3937
  148DOPC   C2817646   0.939   4.140   9.808 -0.7101  0.6471  1.1845
  148DOPC   H8R17647   0.930   4.112   9.915  2.5865  0.0815  1.4104
  148DOPC   H8S17648   0.855   4.096   9.750  0.7792  1.2544 -1.5912
  148DOPC   C2917649   0.942   4.291   9.784 -0.8633 -0.4250 -0.8047
  148DOPC   H9R17650   0.945   4.350   9.876 -0.0947 -0.9287 -0.4957
  148DOPC  C21017651   0.930   4.360   9.664 -0.3640  0.7006  0.1749
  148DOPC  H10R17652   0.949   4.468   9.661  1.2397  0.4185 -1.3938
  148DOPC  C21117653   0.904   4.298   9.528  0.0573 -0.3302 -0.8032
  148DOPC  H11R17654   0.796   4.314   9.507 -0.1066 -1.9589 -1.3653
  148DOPC  H11S17655   0.916   4.188   9.541  0.5566 -0.0515  1.4343
  148DOPC  C21217656   0.991   4.345   9.412 -0.0936  0.2556 -0.0138
  148DOPC  H12R17657   0.991   4.455   9.406 -0.1165  0.2194 -0.7618
  148DOPC  H12S17658   0.933   4.298   9.329  0.3075  0.0834 -0.2002
  148DOPC  C21317659   1.134   4.303   9.410  0.1726  0.8666  0.6618
  148DOPC  H13R17660   1.144   4.199   9.449  0.2341 -0.1840 -1.9924
  148DOPC  H13S17661   1.198   4.365   9.476  1.1912 -0.0867  0.6080
  148DOPC  C21417662   1.198   4.302   9.268  0.3008  0.1169 -0.1195
  148DOPC  H14R17663   1.242   4.403   9.253 -2.0089  1.5435  1.9102
  148DOPC  H14S17664   1.126   4.267   9.191 -0.3583 -0.6056  0.8065
  148DOPC  C21517665   1.320   4.205   9.257  0.1499 -0.3323 -0.4170
  148DOPC  H15R17666   1.276   4.110   9.221 -0.2704  0.5394 -2.3543
  148DOPC  H15S17667   1.377   4.196   9.352 -0.4554  1.2999  0.1362
  148DOPC  C21617668   1.425   4.251   9.145 -0.0782 -0.6811  0.4214
  148DOPC  H16R17669   1.517   4.187   9.145  1.1599  0.9838 -1.1658
  148DOPC  H16S17670   1.453   4.355   9.171 -0.4732 -0.5833  0.4580
  148DOPC  C21717671   1.353   4.244   9.006 -0.2156  0.3611 -1.0155
  148DOPC  H17R17672   1.251   4.287   9.005 -0.9634 -1.3634 -1.3026
  148DOPC  H17S17673   1.344   4.135   8.988  1.4959  0.1990 -1.0606
  148DOPC  C21817674   1.428   4.310   8.885 -0.5066  0.5702 -0.0055
  148DOPC  H18R17675   1.414   4.420   8.892 -0.8909  0.5192  0.0632
  148DOPC  H18S17676   1.405   4.279   8.781  3.7206  0.0304 -0.9654
  148DOPC  H18T17677   1.537   4.296   8.900 -0.8724 -0.7508  1.7287
  148DOPC   C3317678   1.754   4.022   9.494  0.3232  0.6685 -0.0186
  148DOPC   H3X17679   1.864   4.039   9.503  0.4787 -0.9239  1.6837
  148DOPC   H3Y17680   1.704   4.101   9.553 -0.3608  0.3284 -0.1267
  148DOPC   C3417681   1.710   4.043   9.352 -0.7284 -0.2054 -0.0231
  148DOPC   H4X17682   1.727   4.150   9.327  1.7259 -0.5001  0.0754
  148DOPC   H4Y17683   1.606   4.028   9.318 -0.8998  2.3735 -0.8497
  148DOPC   C3517684   1.779   3.961   9.247 -0.0891 -0.8900  0.2121
  148DOPC   H5X17685   1.759   3.852   9.254 -0.2377 -0.8096  1.0852
  148DOPC   H5Y17686   1.889   3.974   9.261  0.1965 -2.9510  0.1766
  148DOPC   C3617687   1.750   4.023   9.110 -0.2908 -0.1818  0.0900
  148DOPC   H6X17688   1.640   4.012   9.094 -0.1714  0.0168 -0.8959
  148DOPC   H6Y17689   1.774   4.131   9.109 -1.1262  0.0153 -0.3295
  148DOPC   C3717690   1.834   3.957   9.001  1.0627  0.5508 -0.9237
  148DOPC   H7X17691   1.919   3.920   9.062 -0.8294 -0.8453  1.0160
  148DOPC   H7Y17692   1.788   3.862   8.966  2.0594 -0.9499  1.5927
  148DOPC   C3817693   1.883   4.047   8.892 -0.0187 -0.0684  0.4413
  148DOPC   H8X17694   1.960   3.991   8.835  0.9078  0.7724  0.8344
  148DOPC   H8Y17695   1.941   4.129   8.941 -1.2111  1.4311 -0.5595
  148DOPC   C3917696   1.764   4.100   8.815 -0.0678 -0.1971 -0.2849
  148DOPC   H9X17697   1.692   4.161   8.871  0.3826  2.2123 -2.1774
  148DOPC  C31017698   1.742   4.069   8.683  0.9036  0.0813  0.3252
  148DOPC  H10X17699   1.644   4.086   8.636 -0.3754 -2.1006  2.0012
  148DOPC  C31117700   1.820   3.978   8.591  0.3390  0.3943 -0.0666
  148DOPC  H11X17701   1.917   3.945   8.634  0.2070  0.2434  0.1191
  148DOPC  H11Y17702   1.833   4.037   8.498 -2.8564  1.6183  0.1531
  148DOPC  C31217703   1.730   3.860   8.551 -1.2036  0.0647 -0.3875
  148DOPC  H12X17704   1.644   3.904   8.496  0.8945  2.9873 -1.6138
  148DOPC  H12Y17705   1.702   3.822   8.652 -1.3426 -0.7880 -0.7396
  148DOPC  C31317706   1.794   3.756   8.461 -0.3948  0.2313 -0.0574
  148DOPC  H13X17707   1.712   3.693   8.420 -1.2990  0.0930  1.8315
  148DOPC  H13Y17708   1.855   3.806   8.383  2.4578 -1.9741  0.6088
  148DOPC  C31417709   1.883   3.660   8.547  0.7918 -0.4063  0.5261
  148DOPC  H14X17710   1.967   3.720   8.590 -1.3526  1.8201  1.8642
  148DOPC  H14Y17711   1.824   3.625   8.634 -0.8666 -0.7745 -0.7127
  148DOPC  C31517712   1.931   3.540   8.458  0.7905 -0.3038  0.1556
  148DOPC  H15X17713   1.840   3.498   8.410  1.2407 -1.5684  0.3933
  148DOPC  H15Y17714   1.957   3.458   8.529 -2.4778 -1.0587  0.6527
  148DOPC  C31617715   2.034   3.573   8.356  0.9654 -0.1615 -0.2976
  148DOPC  H16X17716   1.989   3.665   8.312  1.0301  0.1981  0.3839
  148DOPC  H16Y17717   2.133   3.598   8.400 -0.3713  0.6350  2.4671
  148DOPC  C31717718   2.060   3.466   8.254 -0.3388  0.4930  0.0483
  148DOPC  H17X17719   1.967   3.430   8.205 -0.6413  0.4472  0.6443
  148DOPC  H17Y17720   2.124   3.507   8.173 -1.2930 -1.9296 -2.0610
  148DOPC  C31817721   2.153   3.347   8.290 -0.0555  0.6191 -0.2393
  148DOPC  H18X17722   2.120   3.313   8.391 -0.2971  1.4745 -0.0244
  148DOPC  H18Y17723   2.147   3.257   8.225  1.8006 -0.3086  0.8101
  148DOPC  H18Z17724   2.258   3.383   8.285  0.3628 -0.4812  0.2383
  149DOPC     N17725   0.922   0.068  10.221 -0.9985  0.3796 -0.3285
  149DOPC   C1217726   1.051   0.026  10.151 -0.4374 -0.1944 -0.2598
  149DOPC  H12A17727   1.053   0.073  10.054  0.4089  1.3625  0.4742
  149DOPC  H12B17728   1.040  -0.078  10.125  1.9433 -0.8771  1.2160
  149DOPC   C1317729   0.915  -0.002  10.350  0.4156  0.2767  0.1367
  149DOPC  H13A17730   1.004   0.028  10.403 -0.3821 -1.2555  2.5027
  149DOPC  H13B17731   0.822   0.017  10.402 -0.6638 -4.0003  0.1372
  149DOPC  H13C17732   0.929  -0.108  10.341  0.6463  0.1079  2.0545
  149DOPC   C1417733   0.811   0.014  10.136  0.0425 -0.4885 -0.4562
  149DOPC  H14A17734   0.713   0.047  10.168  1.0845  0.7366  1.6577
  149DOPC  H14B17735   0.823   0.026  10.030  1.3872 -0.6526 -0.3369
  149DOPC  H14C17736   0.798  -0.090  10.162  0.0156  0.1508  2.4007
  149DOPC   C1517737   0.913   0.212  10.242 -0.4497 -0.4394  0.7629
  149DOPC  H15A17738   0.930   0.267  10.151  1.3035 -2.2333 -0.0873
  149DOPC  H15B17739   0.988   0.245  10.313  1.3480  0.9553 -1.6602
  149DOPC  H15C17740   0.813   0.239  10.273 -0.7591  0.5678 -0.9833
  149DOPC   C1117741   1.181   0.065  10.227 -0.4260 -0.5495  0.5404
  149DOPC  H11A17742   1.265   0.062  10.156 -1.7232  0.4899 -1.1189
  149DOPC  H11B17743   1.176   0.168  10.269  0.7464 -0.9809  1.8066
  149DOPC     P17744   1.208  -0.182  10.327 -0.0402  0.3329 -0.2754
  149DOPC   O1317745   1.080  -0.238  10.290  0.1715 -0.5128 -0.3858
  149DOPC   O1417746   1.262  -0.240  10.454  0.4374  0.0292 -0.0288
  149DOPC   O1217747   1.216  -0.029  10.335 -0.0412 -0.5460 -0.0999
  149DOPC   O1117748   1.312  -0.207  10.209  0.6432 -0.1443 -0.1271
  149DOPC    C117749   1.451  -0.176  10.221 -0.6857  0.7625 -0.4188
  149DOPC    HA17750   1.497  -0.215  10.314 -3.2181  1.8316  1.4008
  149DOPC    HB17751   1.460  -0.066  10.223 -1.3841  0.8166 -0.1235
  149DOPC    C217752   1.545  -0.236  10.110  0.4754 -0.7824 -0.4307
  149DOPC    HS17753   1.646  -0.191  10.115  0.0577  0.1436 -0.0263
  149DOPC   O2117754   1.483  -0.207   9.987 -0.2835 -0.5147  0.3753
  149DOPC   C2117755   1.495  -0.083   9.942  0.0020 -0.4436  0.6260
  149DOPC   O2217756   1.571   0.001   9.988 -0.2756 -0.2484 -0.5854
  149DOPC   C2217757   1.413  -0.074   9.815  0.4552 -0.0342  0.3296
  149DOPC   H2R17758   1.311  -0.107   9.843  0.8588 -0.8942  0.8196
  149DOPC   H2S17759   1.441  -0.155   9.745  0.4003  0.0671  0.1906
  149DOPC    C317760   1.561  -0.389  10.124 -0.4842 -0.0452  0.9632
  149DOPC    HX17761   1.460  -0.436  10.131 -0.1578 -0.7317  1.1356
  149DOPC    HY17762   1.616  -0.403  10.219 -1.4075 -0.3241  1.4699
  149DOPC   O3117763   1.647  -0.439  10.015 -0.4062 -0.0854 -0.7201
  149DOPC   C3117764   1.594  -0.491   9.913  1.2608 -0.3824  0.6512
  149DOPC   O3217765   1.473  -0.512   9.887 -0.2879 -0.0084 -0.3248
  149DOPC   C3217766   1.704  -0.527   9.813 -0.6109  0.1219  0.7932
  149DOPC   H2X17767   1.788  -0.458   9.835 -2.0394  1.8047  1.2578
  149DOPC   H2Y17768   1.727  -0.633   9.834 -0.4825 -0.4538 -1.9520
  149DOPC   C2317769   1.411   0.064   9.749 -0.4288  0.9496 -0.2231
  149DOPC   H3R17770   1.512   0.108   9.762 -1.0139  2.2806 -0.0420
  149DOPC   H3S17771   1.353   0.145   9.799 -1.9769 -0.8197  0.9780
  149DOPC   C2417772   1.371   0.057   9.601 -0.6328 -0.2511 -1.0897
  149DOPC   H4R17773   1.281  -0.008   9.591 -2.2693  2.0637 -2.0681
  149DOPC   H4S17774   1.457   0.022   9.540 -0.4236 -0.8320 -0.4730
  149DOPC   C2517775   1.322   0.193   9.555 -0.0346 -0.2624  0.3571
  149DOPC   H5R17776   1.403   0.268   9.542 -0.4283 -0.1503 -1.9224
  149DOPC   H5S17777   1.255   0.225   9.637  1.2762  1.0295  0.9740
  149DOPC   C2617778   1.257   0.174   9.420  0.3892  0.8393  0.4371
  149DOPC   H6R17779   1.314   0.103   9.357 -0.9170  1.6570 -1.8029
  149DOPC   H6S17780   1.264   0.271   9.366  0.8528 -0.7502 -2.5801
  149DOPC   C2717781   1.114   0.136   9.433 -1.0765 -0.2627  0.3210
  149DOPC   H7R17782   1.063   0.210   9.497  0.2496  0.3018  0.7722
  149DOPC   H7S17783   1.112   0.034   9.479 -0.6767  0.8007  2.8873
  149DOPC   C2817784   1.041   0.118   9.301 -0.1304  0.1426  0.2857
  149DOPC   H8R17785   1.115   0.077   9.229  0.0747  0.8318  0.0978
  149DOPC   H8S17786   1.022   0.223   9.273  3.4178  1.0082  0.7081
  149DOPC   C2917787   0.916   0.030   9.291  0.0717  0.3234  1.1567
  149DOPC   H9R17788   0.875  -0.027   9.376  0.3264 -2.1584 -0.2872
  149DOPC  C21017789   0.841   0.015   9.184  0.3242  0.3637  0.6872
  149DOPC  H10R17790   0.764  -0.064   9.177  0.8072  0.0290 -2.1887
  149DOPC  C21117791   0.869   0.083   9.053 -0.0284  0.7699 -0.1236
  149DOPC  H11R17792   0.829   0.025   8.967  1.4064 -0.1582 -0.2012
  149DOPC  H11S17793   0.975   0.114   9.038  0.2687 -0.8216 -1.5826
  149DOPC  C21217794   0.787   0.211   9.052 -0.8137  0.3185  0.0659
  149DOPC  H12R17795   0.816   0.279   8.969  0.1332  0.4816  0.5246
  149DOPC  H12S17796   0.808   0.262   9.149  0.3072  0.1258 -0.0631
  149DOPC  C21317797   0.635   0.197   9.051  0.1528  1.0493  0.4104
  149DOPC  H13R17798   0.598   0.150   9.145  0.1096  1.1766  0.4574
  149DOPC  H13S17799   0.601   0.127   8.972 -0.7958  1.1694  0.7027
  149DOPC  C21417800   0.556   0.318   9.027  0.0308  0.5314 -0.5317
  149DOPC  H14R17801   0.571   0.343   8.920 -1.2500 -0.8616 -1.0733
  149DOPC  H14S17802   0.601   0.396   9.091 -0.1250  1.2774 -1.3067
  149DOPC  C21517803   0.399   0.322   9.042 -0.2862  0.4453  0.7032
  149DOPC  H15R17804   0.355   0.278   8.951 -0.9178 -0.8824  1.6209
  149DOPC  H15S17805   0.368   0.428   9.047  0.6410  0.8320 -0.9497
  149DOPC  C21617806   0.338   0.232   9.149 -0.7878 -0.1354 -0.4139
  149DOPC  H16R17807   0.393   0.241   9.245 -1.9680 -0.4873  0.3164
  149DOPC  H16S17808   0.354   0.127   9.114  1.0486  0.3911 -1.2804
  149DOPC  C21717809   0.187   0.246   9.185 -0.0851  0.1858 -0.0755
  149DOPC  H17R17810   0.164   0.354   9.198  2.2520  0.5478  1.8173
  149DOPC  H17S17811   0.171   0.198   9.284  1.0025  0.3182  0.1865
  149DOPC  C21817812   0.090   0.188   9.081  0.1505 -0.1205 -0.0580
  149DOPC  H18R17813  -0.014   0.220   9.104  0.4952  0.2116  1.0507
  149DOPC  H18S17814   0.097   0.077   9.093 -0.9323  0.0244  2.5032
  149DOPC  H18T17815   0.116   0.229   8.981 -0.8048 -0.6501 -0.5440
  149DOPC   C3317816   1.656  -0.521   9.662 -0.1253  0.7049 -0.0856
  149DOPC   H3X17817   1.575  -0.596   9.647  0.3803  0.6029 -2.9325
  149DOPC   H3Y17818   1.742  -0.556   9.601  0.5382  2.0475  0.0502
  149DOPC   C3417819   1.610  -0.383   9.612  0.4052  0.5305 -0.0327
  149DOPC   H4X17820   1.658  -0.304   9.673  0.7075  1.6761 -1.6881
  149DOPC   H4Y17821   1.500  -0.380   9.627  0.3615  0.7025 -0.3898
  149DOPC   C3517822   1.646  -0.364   9.470  0.2906  0.2633  0.4136
  149DOPC   H5X17823   1.601  -0.431   9.392 -0.1610  1.7924 -0.6885
  149DOPC   H5Y17824   1.756  -0.363   9.463  0.2149  1.1187 -1.4217
  149DOPC   C3617825   1.594  -0.223   9.435 -0.3138 -0.5372 -0.8196
  149DOPC   H6X17826   1.485  -0.201   9.436 -0.0389  1.0360 -1.5036
  149DOPC   H6Y17827   1.636  -0.158   9.515  0.6473 -2.4028  0.2467
  149DOPC   C3717828   1.633  -0.184   9.293 -0.2618 -0.2071 -0.2969
  149DOPC   H7X17829   1.742  -0.193   9.275 -0.5808 -2.9304 -1.4283
  149DOPC   H7Y17830   1.570  -0.259   9.240 -1.2005 -1.3805  2.2947
  149DOPC   C3817831   1.593  -0.035   9.253 -0.4294  0.8248 -0.4225
  149DOPC   H8X17832   1.644   0.030   9.328 -2.8384  0.9158  1.2434
  149DOPC   H8Y17833   1.484  -0.018   9.268 -0.5544  0.2359 -0.6190
  149DOPC   C3917834   1.633  -0.014   9.108 -0.0185 -0.2850  0.1262
  149DOPC   H9X17835   1.742  -0.004   9.094  0.0642 -1.0911  0.1864
  149DOPC  C31017836   1.545  -0.018   9.006  0.8421  0.4471  0.0693
  149DOPC  H10X17837   1.582   0.007   8.905  1.3549  0.8701  0.3549
  149DOPC  C31117838   1.398  -0.046   9.001  0.1516 -0.2155 -0.2098
  149DOPC  H11X17839   1.355  -0.095   9.091 -1.7260  2.4722  0.4697
  149DOPC  H11Y17840   1.397  -0.103   8.905  1.8587  1.4783 -1.3103
  149DOPC  C31217841   1.310   0.078   8.995  0.7255 -0.4890 -0.8439
  149DOPC  H12X17842   1.335   0.136   9.086 -0.1362 -3.8751  1.7512
  149DOPC  H12Y17843   1.206   0.043   9.006  1.0923 -1.2119  0.5701
  149DOPC  C31317844   1.322   0.163   8.874 -0.0974  0.2815 -0.3989
  149DOPC  H13X17845   1.424   0.208   8.868  0.6044 -1.2480 -0.4439
  149DOPC  H13Y17846   1.315   0.095   8.787  1.4964  0.5590 -0.7803
  149DOPC  C31417847   1.212   0.273   8.866  0.5072 -0.3798 -0.4797
  149DOPC  H14X17848   1.111   0.229   8.882 -0.0797 -0.0295 -2.8962
  149DOPC  H14Y17849   1.245   0.340   8.948  0.3790  0.4670 -1.1012
  149DOPC  C31517850   1.197   0.337   8.730  0.6723  0.3297  0.2866
  149DOPC  H15X17851   1.151   0.269   8.656 -1.7320  1.4197  0.6840
  149DOPC  H15Y17852   1.297   0.356   8.686 -0.1651  2.9742 -0.7155
  149DOPC  C31617853   1.126   0.471   8.744 -0.0199  0.7658  0.5623
  149DOPC  H16X17854   1.188   0.539   8.805  0.1031  0.5618  0.6636
  149DOPC  H16Y17855   1.125   0.524   8.646  1.8147  1.1375  0.7101
  149DOPC  C31717856   0.975   0.464   8.780 -0.7745  0.2257 -0.3884
  149DOPC  H17X17857   0.951   0.386   8.855 -0.4678  0.8691  0.3939
  149DOPC  H17Y17858   0.960   0.565   8.825 -0.9139 -0.9301  2.3776
  149DOPC  C31817859   0.874   0.449   8.670 -0.2332  0.2232 -0.1606
  149DOPC  H18X17860   0.771   0.452   8.711 -0.0593 -2.7258  0.7542
  149DOPC  H18Y17861   0.869   0.542   8.609  1.4053  1.4774  1.5400
  149DOPC  H18Z17862   0.878   0.355   8.610  0.8179  0.7005 -0.8692
  150DOPC     N17863   4.975   3.441  10.734  0.6530  0.4567 -0.7120
  150DOPC   C1217864   4.910   3.395  10.600 -0.2198 -1.0293 -0.4539
  150DOPC  H12A17865   4.991   3.370  10.533 -0.0867  0.2096 -0.7850
  150DOPC  H12B17866   4.853   3.476  10.556  0.0349  0.1235  1.2369
  150DOPC   C1317867   5.065   3.561  10.712  0.3177  0.1651  0.6256
  150DOPC  H13A17868   5.008   3.637  10.660  2.4574  0.1219 -1.9871
  150DOPC  H13B17869   5.106   3.593  10.807 -0.2303  0.0996  0.8850
  150DOPC  H13C17870   5.146   3.537  10.644  0.3082  0.6024  0.4560
  150DOPC   C1417871   5.054   3.337  10.809 -0.3764  0.0469  0.2786
  150DOPC  H14A17872   5.128   3.289  10.748 -1.2722  0.8517 -1.5043
  150DOPC  H14B17873   5.110   3.386  10.888  1.0092  0.9837 -1.2213
  150DOPC  H14C17874   5.004   3.253  10.854  0.5550  0.3847  2.0531
  150DOPC   C1517875   4.870   3.481  10.834  0.3868 -0.7500  0.7135
  150DOPC  H15A17876   4.804   3.403  10.868 -0.7585  0.1004  0.5036
  150DOPC  H15B17877   4.807   3.559  10.794  1.8177  0.4207  0.6950
  150DOPC  H15C17878   4.916   3.529  10.919  1.3923 -0.1673 -0.1353
  150DOPC   C1117879   4.830   3.266  10.602 -0.2801 -0.5065 -0.4835
  150DOPC  H11A17880   4.754   3.280  10.682 -0.8225 -0.6818 -0.9556
  150DOPC  H11B17881   4.789   3.235  10.503  0.1293 -1.2389 -0.4343
  150DOPC     P17882   5.002   3.082  10.552 -0.0352  0.6148 -0.0707
  150DOPC   O1317883   4.930   2.980  10.471 -0.0898 -0.3389  0.0033
  150DOPC   O1417884   5.107   3.018  10.632 -0.2292 -0.9415 -0.2338
  150DOPC   O1217885   4.910   3.148  10.653  0.2884 -0.6155 -0.5234
  150DOPC   O1117886   5.060   3.197  10.457  0.5436  0.0205  0.0789
  150DOPC    C117887   5.048   3.202  10.312 -0.4507 -0.3491  0.3698
  150DOPC    HA17888   4.939   3.205  10.290 -0.5706  1.0846  1.0480
  150DOPC    HB17889   5.094   3.117  10.256 -1.0695 -0.1511 -0.4631
  150DOPC    C217890   5.107   3.334  10.264  0.6740  0.3084  0.1119
  150DOPC    HS17891   5.074   3.416  10.331 -0.1324 -1.2461  1.6999
  150DOPC   O2117892   5.051   3.355  10.134  0.1729  0.0254  0.4471
  150DOPC   C2117893   5.069   3.474  10.083  0.3982 -0.2031  0.4114
  150DOPC   O2217894   5.128   3.566  10.136  0.1549  0.2888 -0.2752
  150DOPC   C2217895   4.990   3.496   9.959  0.1651 -0.0938  0.4047
  150DOPC   H2R17896   4.983   3.604   9.935 -1.2423 -0.6280 -1.8549
  150DOPC   H2S17897   4.887   3.458   9.980  0.5391 -0.3795  1.8691
  150DOPC    C317898   5.260   3.315  10.250 -0.2760  0.4223 -0.7796
  150DOPC    HX17899   5.295   3.291  10.353  2.4359  1.4677 -1.3814
  150DOPC    HY17900   5.314   3.407  10.221  0.5138 -0.0583 -0.8783
  150DOPC   O3117901   5.297   3.208  10.157  0.0774 -0.1548  0.0481
  150DOPC   C3117902   5.335   3.255  10.037 -0.1870 -1.1173  0.9047
  150DOPC   O3217903   5.345   3.368   9.993  0.2720 -0.1128 -0.4940
  150DOPC   C3217904   5.344   3.132   9.952 -0.4010 -0.4113 -0.0199
  150DOPC   H2X17905   5.393   3.163   9.857  0.4394 -0.5042  0.3777
  150DOPC   H2Y17906   5.426   3.070   9.995 -2.7439 -2.3609  1.9195
  150DOPC   C2317907   5.036   3.431   9.829 -1.1753  0.1061 -0.5903
  150DOPC   H3R17908   5.047   3.321   9.837  1.1079  0.3821  0.9717
  150DOPC   H3S17909   5.134   3.475   9.802 -0.7223  0.3302  1.2546
  150DOPC   C2417910   4.946   3.460   9.712  0.2078 -0.3877 -0.4022
  150DOPC   H4R17911   4.842   3.428   9.737  0.0160 -1.6481 -2.5776
  150DOPC   H4S17912   4.982   3.408   9.621 -1.1353  1.2448 -1.9305
  150DOPC   C2517913   4.936   3.607   9.672  0.1618  0.3161 -0.5831
  150DOPC   H5R17914   5.043   3.636   9.665  0.6820 -1.3735 -0.0565
  150DOPC   H5S17915   4.886   3.670   9.750  0.6504  0.8876 -0.7179
  150DOPC   C2617916   4.871   3.640   9.541 -0.9426  1.0249  0.6964
  150DOPC   H6R17917   4.867   3.748   9.514  1.6210  0.9050 -0.4498
  150DOPC   H6S17918   4.771   3.591   9.538  1.0860 -3.5940  0.4437
  150DOPC   C2717919   4.950   3.582   9.420 -0.2680  0.1199  0.3429
  150DOPC   H7R17920   4.958   3.472   9.433 -0.1952  0.2031  1.0011
  150DOPC   H7S17921   5.045   3.639   9.419 -2.1629  3.5429 -1.0286
  150DOPC   C2817922   4.888   3.597   9.279  0.7963  0.0848  0.1126
  150DOPC   H8R17923   4.785   3.555   9.289  1.0979 -0.9667 -1.0522
  150DOPC   H8S17924   4.949   3.534   9.212 -0.4382 -0.0878 -0.8981
  150DOPC   C2917925   4.868   3.739   9.219  0.4800  0.5044 -0.3121
  150DOPC   H9R17926   4.810   3.806   9.284  0.8229  1.4947 -0.9919
  150DOPC  C21017927   4.911   3.779   9.097 -0.0971  1.0106  0.1046
  150DOPC  H10R17928   4.885   3.881   9.066 -1.9235  0.1424 -1.3703
  150DOPC  C21117929   4.990   3.694   8.989  0.0677  1.0637  0.0057
  150DOPC  H11R17930   4.924   3.680   8.901  0.1569 -0.3783  0.1378
  150DOPC  H11S17931   5.007   3.589   9.023 -0.3159  1.0380  0.1231
  150DOPC  C21217932   5.118   3.772   8.949  0.0458  0.1446 -0.2991
  150DOPC  H12R17933   5.183   3.786   9.038 -2.2475  0.8880  1.3492
  150DOPC  H12S17934   5.085   3.873   8.915  3.1179  0.7267 -1.9614
  150DOPC  C21317935   5.198   3.706   8.842 -0.8346 -0.7542 -0.5021
  150DOPC  H13R17936   5.197   3.596   8.855  2.2376 -1.1358 -2.3884
  150DOPC  H13S17937   5.307   3.726   8.830 -0.2499 -4.3682 -2.7072
  150DOPC  C21417938   5.139   3.725   8.700  0.3314 -0.3754  0.3667
  150DOPC  H14R17939   5.140   3.834   8.677 -0.3947 -0.4895 -0.2299
  150DOPC  H14S17940   5.037   3.682   8.702  0.9972 -2.0670 -0.3268
  150DOPC  C21517941   5.209   3.631   8.592  0.0513 -0.1773 -0.6184
  150DOPC  H15R17942   5.201   3.530   8.636  1.6568 -1.0776 -2.2764
  150DOPC  H15S17943   5.317   3.656   8.583 -0.1366  0.1084 -2.6536
  150DOPC  C21617944   5.143   3.630   8.456  0.6056 -0.1621 -0.3669
  150DOPC  H16R17945   5.033   3.614   8.455  0.4575  0.7179 -1.9565
  150DOPC  H16S17946   5.176   3.548   8.388  1.6229  0.8755 -1.1686
  150DOPC  C21717947   5.168   3.765   8.381  0.8287  0.0585  0.6236
  150DOPC  H17R17948   5.277   3.785   8.388  1.0886 -1.1009  0.1626
  150DOPC  H17S17949   5.118   3.838   8.447 -1.5343 -2.0311  1.3070
  150DOPC  C21817950   5.120   3.766   8.235 -0.3369  1.1279 -0.0759
  150DOPC  H18R17951   5.014   3.734   8.223  0.2750 -1.3104  0.4100
  150DOPC  H18S17952   5.183   3.692   8.181  0.3756  0.6224  1.3841
  150DOPC  H18T17953   5.125   3.864   8.183 -0.9778 -0.2998 -3.0381
  150DOPC   C3317954   5.211   3.053   9.952  0.3322  0.8712 -0.1761
  150DOPC   H3X17955   5.130   3.122   9.917 -0.9046  0.8915  2.4900
  150DOPC   H3Y17956   5.186   3.023  10.055 -0.0995 -0.1577 -0.5690
  150DOPC   C3417957   5.205   2.925   9.871 -0.3960  0.6240 -0.3850
  150DOPC   H4X17958   5.101   2.886   9.881 -0.8322  1.9638  0.4598
  150DOPC   H4Y17959   5.281   2.851   9.905 -0.3676  0.1616 -1.4089
  150DOPC   C3517960   5.227   2.947   9.720  0.4700 -0.0241 -0.0887
  150DOPC   H5X17961   5.239   2.852   9.664 -1.0521  0.5254 -1.4228
  150DOPC   H5Y17962   5.323   2.997   9.694  0.6227 -0.2399  0.0632
  150DOPC   C3617963   5.112   3.013   9.645  0.2951 -0.1800 -0.2419
  150DOPC   H6X17964   5.024   2.946   9.629 -0.5475  0.7952  0.1806
  150DOPC   H6Y17965   5.067   3.095   9.705 -3.4398 -1.0490 -1.5581
  150DOPC   C3717966   5.154   3.088   9.516 -0.0535 -0.3354 -0.1266
  150DOPC   H7X17967   5.097   3.183   9.500 -1.0024 -0.9247 -0.3097
  150DOPC   H7Y17968   5.261   3.117   9.525 -0.8172  2.6794  0.6460
  150DOPC   C3817969   5.151   2.989   9.401  0.1059 -0.3691 -0.2741
  150DOPC   H8X17970   5.054   2.937   9.386 -0.3569  0.4279 -0.1271
  150DOPC   H8Y17971   5.208   2.901   9.437 -0.1242 -1.0025 -1.4140
  150DOPC   C3917972   5.202   3.065   9.284  1.0165  0.4457 -0.4846
  150DOPC   H9X17973   5.312   3.057   9.274  1.3243  1.7496  1.3360
  150DOPC  C31017974   5.136   3.157   9.205 -0.2717  0.1130 -0.4296
  150DOPC  H10X17975   5.190   3.220   9.133  2.1534 -1.1809  0.1495
  150DOPC  C31117976   4.991   3.179   9.221  0.2688  0.1251  0.0403
  150DOPC  H11X17977   4.965   3.286   9.211 -0.9289  0.0381  1.6953
  150DOPC  H11Y17978   4.963   3.153   9.325 -0.3091 -1.7743 -0.5582
  150DOPC  C31217979   4.904   3.089   9.127 -0.0084 -0.3126 -0.0589
  150DOPC  H12X17980   4.796   3.100   9.150 -0.0072  1.6799 -0.8081
  150DOPC  H12Y17981   4.923   2.982   9.153 -0.1011 -0.5323 -0.8603
  150DOPC  C31317982   4.930   3.119   8.980 -0.1393 -0.3276  0.7471
  150DOPC  H13X17983   4.891   3.220   8.957  0.7576 -0.5161 -1.9692
  150DOPC  H13Y17984   5.039   3.131   8.964 -0.2570 -0.9118 -0.7060
  150DOPC  C31417985   4.888   3.014   8.878  0.7061 -0.0739 -0.0291
  150DOPC  H14X17986   4.893   2.917   8.931  2.6795  0.7347  1.4005
  150DOPC  H14Y17987   4.785   3.037   8.843  0.8388  2.7166  1.0870
  150DOPC  C31517988   4.988   3.011   8.762  1.1078  0.5644 -0.8301
  150DOPC  H15X17989   5.087   2.981   8.802  0.8939 -0.1851 -0.8480
  150DOPC  H15Y17990   4.993   3.114   8.720  1.8997  0.9571  0.1799
  150DOPC  C31617991   4.958   2.918   8.644  0.2109  0.5389  0.2448
  150DOPC  H16X17992   4.857   2.938   8.602  0.9633 -0.2027 -2.0669
  150DOPC  H16Y17993   5.020   2.938   8.554 -0.0199 -0.0379 -0.0525
  150DOPC  C31717994   4.976   2.764   8.678 -0.4823  0.1459  0.3928
  150DOPC  H17X17995   5.084   2.745   8.695 -0.3700  1.0902  0.7776
  150DOPC  H17Y17996   4.917   2.745   8.770 -1.2703 -1.9507 -0.4956
  150DOPC  C31817997   4.934   2.678   8.560 -0.3363 -0.2621 -0.3494
  150DOPC  H18X17998   4.948   2.582   8.613  1.1469 -0.1759 -0.5535
  150DOPC  H18Y17999   4.837   2.701   8.510 -0.0623  0.1392 -0.7078
  150DOPC  H18Z18000   5.011   2.689   8.481 -0.9336 -2.0552 -1.2387
  151DOPC     N18001   0.464   2.612  10.288 -0.6161 -0.6754 -0.0303
  151DOPC   C1218002   0.369   2.713  10.349 -0.0497 -0.1697  0.5484
  151DOPC  H12A18003   0.421   2.808  10.349 -1.6823  0.8011 -1.3425
  151DOPC  H12B18004   0.348   2.682  10.450 -0.3622 -0.8893  0.2731
  151DOPC   C1318005   0.414   2.468  10.283  0.5756  0.9130  0.0996
  151DOPC  H13A18006   0.416   2.417  10.378  1.2324 -1.5457 -1.1590
  151DOPC  H13B18007   0.310   2.482  10.257  1.1999  1.2640 -2.4448
  151DOPC  H13C18008   0.456   2.407  10.205 -0.1239  0.2082  0.2650
  151DOPC   C1418009   0.601   2.613  10.340  0.7367 -0.2031  0.5379
  151DOPC  H14A18010   0.675   2.581  10.268  1.6484  3.2684 -0.2221
  151DOPC  H14B18011   0.626   2.716  10.361  0.7898 -0.0404 -0.2832
  151DOPC  H14C18012   0.607   2.558  10.433  1.6292 -0.0537  0.5717
  151DOPC   C1518013   0.496   2.639  10.138  0.1134 -0.1748 -0.0242
  151DOPC  H15A18014   0.408   2.659  10.079 -0.3736 -0.3660  0.6360
  151DOPC  H15B18015   0.548   2.558  10.089 -0.8456 -0.1388 -1.1385
  151DOPC  H15C18016   0.563   2.725  10.133  1.0614 -0.6802  2.5945
  151DOPC   C1118017   0.238   2.748  10.273 -0.3879 -0.5602 -0.1057
  151DOPC  H11A18018   0.188   2.817  10.343  1.0775  0.2729  0.1567
  151DOPC  H11B18019   0.276   2.797  10.181 -0.6764  1.9107  1.0193
  151DOPC     P18020   0.025   2.646  10.169 -0.2813  0.5507 -0.0027
  151DOPC   O1318021  -0.064   2.726  10.255  0.3000  0.1868  0.4203
  151DOPC   O1418022  -0.012   2.507  10.118 -0.0075  0.2229 -0.6664
  151DOPC   O1218023   0.163   2.633  10.246  0.5561  0.0891  0.5327
  151DOPC   O1118024   0.067   2.736  10.045 -0.1459 -0.2085 -0.0993
  151DOPC    C118025   0.178   2.696   9.966  0.6488 -0.8831 -0.4029
  151DOPC    HA18026   0.229   2.603   9.998 -1.9138 -2.1780  0.1999
  151DOPC    HB18027   0.254   2.777   9.976 -0.5865  0.3419 -0.6620
  151DOPC    C218028   0.142   2.693   9.817  0.4451  0.3993 -0.1975
  151DOPC    HS18029   0.235   2.664   9.764  0.4697  0.4936 -0.2063
  151DOPC   O2118030   0.095   2.829   9.781 -0.4584  0.5498  0.9935
  151DOPC   C2118031   0.134   2.861   9.658  0.6172 -0.2159 -0.5505
  151DOPC   O2218032   0.195   2.795   9.578 -0.0096 -0.2029  0.1213
  151DOPC   C2218033   0.088   3.010   9.632  0.4923  0.1200  0.0901
  151DOPC   H2R18034   0.146   3.067   9.707  0.5078  0.9125 -0.5114
  151DOPC   H2S18035  -0.020   3.019   9.653  0.6609  1.8432  0.3266
  151DOPC    C318036   0.037   2.580   9.781  0.0457 -0.0948 -1.0088
  151DOPC    HX18037  -0.065   2.609   9.814 -0.0518 -3.0791  1.8438
  151DOPC    HY18038   0.071   2.492   9.839  0.7642  1.2037  0.6378
  151DOPC   O3118039   0.017   2.559   9.638 -0.1476 -0.2601  0.1459
  151DOPC   C3118040   0.116   2.502   9.575 -0.1494  0.5676  0.3800
  151DOPC   O3218041   0.211   2.446   9.630  0.2217 -0.2958  0.1185
  151DOPC   C3218042   0.094   2.505   9.421  0.3188  0.0417  0.8059
  151DOPC   H2X18043   0.052   2.410   9.381 -0.9115 -0.1236  2.4148
  151DOPC   H2Y18044   0.028   2.587   9.387  2.1992  1.3445  0.1375
  151DOPC   C2318045   0.116   3.060   9.488 -0.3553  0.1502 -0.5485
  151DOPC   H3R18046   0.222   3.037   9.465 -0.2486  1.2481 -1.2085
  151DOPC   H3S18047   0.108   3.171   9.500 -1.0000  0.1473 -0.9617
  151DOPC   C2418048   0.018   3.008   9.397  0.0248 -0.1292  0.2767
  151DOPC   H4R18049   0.023   2.897   9.391  1.8101 -0.0021 -3.3414
  151DOPC   H4S18050   0.028   3.039   9.291 -2.2922  3.2811  0.9060
  151DOPC   C2518051  -0.133   3.042   9.415  0.7090  0.0234 -0.0787
  151DOPC   H5R18052  -0.141   3.144   9.458  0.9025  0.1955 -0.4411
  151DOPC   H5S18053  -0.173   2.983   9.500  0.8388 -1.7912 -1.2131
  151DOPC   C2618054  -0.211   3.010   9.290 -0.2142  0.0792 -0.4841
  151DOPC   H6R18055  -0.165   3.074   9.211  1.2412  1.2296  1.2059
  151DOPC   H6S18056  -0.316   3.038   9.310 -0.6886  0.5737 -3.2593
  151DOPC   C2718057  -0.202   2.869   9.235  0.2533  0.6705 -0.1624
  151DOPC   H7R18058  -0.255   2.799   9.303  1.0427 -1.2320 -1.3928
  151DOPC   H7S18059  -0.098   2.834   9.219 -0.1304 -1.1165  0.9956
  151DOPC   C2818060  -0.256   2.862   9.090  0.2183 -0.0268 -0.2846
  151DOPC   H8R18061  -0.259   2.754   9.064 -0.5196  0.4882 -2.5482
  151DOPC   H8S18062  -0.187   2.907   9.015 -0.8795  1.6724 -0.3267
  151DOPC   C2918063  -0.392   2.918   9.078  0.3587 -0.2126  0.3643
  151DOPC   H9R18064  -0.460   2.887   9.159  0.0728 -2.5268 -0.7069
  151DOPC  C21018065  -0.438   2.983   8.970  0.2367 -0.2274  0.0585
  151DOPC  H10R18066  -0.545   3.007   8.960  0.7759  2.3134 -0.2215
  151DOPC  C21118067  -0.361   3.014   8.848 -1.0920  0.0264  0.3755
  151DOPC  H11R18068  -0.257   3.046   8.871 -0.9850  1.6416 -2.0315
  151DOPC  H11S18069  -0.409   3.100   8.797 -0.1196  1.2869  1.5176
  151DOPC  C21218070  -0.365   2.898   8.746 -0.2592 -0.1985 -0.5160
  151DOPC  H12R18071  -0.457   2.835   8.749  0.8514 -1.8577 -0.1071
  151DOPC  H12S18072  -0.290   2.824   8.782  0.0894  0.0643 -0.6962
  151DOPC  C21318073  -0.332   2.929   8.605 -0.8717  0.1028  0.2522
  151DOPC  H13R18074  -0.318   2.839   8.543 -0.6285 -0.6618  1.3750
  151DOPC  H13S18075  -0.231   2.976   8.601 -1.7748  2.0419 -2.0287
  151DOPC  C21418076  -0.434   3.017   8.538  0.5821 -0.2747  0.2744
  151DOPC  H14R18077  -0.424   3.119   8.581 -4.2000  0.0576  1.0757
  151DOPC  H14S18078  -0.537   2.982   8.560  0.5200 -1.3983 -1.5680
  151DOPC  C21518079  -0.406   3.044   8.387 -0.2221 -0.9516  0.7863
  151DOPC  H15R18080  -0.304   3.084   8.366 -1.2437  0.7923 -1.1489
  151DOPC  H15S18081  -0.481   3.121   8.360 -0.8067 -1.4810  0.8753
  151DOPC  C21618082  -0.433   2.920   8.310 -0.4240 -0.0672  0.2431
  151DOPC  H16R18083  -0.513   2.862   8.361 -0.9981  1.9862  1.8193
  151DOPC  H16S18084  -0.339   2.862   8.322 -0.8720 -0.3640  3.0813
  151DOPC  C21718085  -0.478   2.936   8.167  0.0936 -0.3238 -0.3456
  151DOPC  H17R18086  -0.402   3.004   8.122 -0.4762  0.2833 -0.4097
  151DOPC  H17S18087  -0.575   2.990   8.162  0.5673  0.5430 -0.2477
  151DOPC  C21818088  -0.495   2.814   8.079  0.6513  0.8600 -0.3365
  151DOPC  H18R18089  -0.406   2.754   8.053 -1.6401 -2.4149 -1.2733
  151DOPC  H18S18090  -0.546   2.848   7.987 -0.7381  1.3454  0.5759
  151DOPC  H18T18091  -0.563   2.741   8.128  1.2588  0.6511  0.2151
  151DOPC   C3318092   0.228   2.520   9.347 -0.1722 -0.1299 -0.0320
  151DOPC   H3X18093   0.286   2.426   9.342  1.4587  0.8931 -3.4976
  151DOPC   H3Y18094   0.302   2.580   9.405  0.0875  1.7021 -2.1197
  151DOPC   C3418095   0.229   2.583   9.209 -0.1309  0.1426  0.3040
  151DOPC   H4X18096   0.335   2.595   9.178  0.5445 -2.0847  1.5025
  151DOPC   H4Y18097   0.190   2.685   9.226 -0.5055 -0.0979  0.8830
  151DOPC   C3518098   0.160   2.499   9.107  0.2600  0.0241 -0.3961
  151DOPC   H5X18099   0.078   2.441   9.152  1.0646  1.6591  3.5417
  151DOPC   H5Y18100   0.233   2.419   9.081 -1.2260 -2.0244  1.4638
  151DOPC   C3618101   0.119   2.584   8.988 -0.0508 -0.1074 -0.2524
  151DOPC   H6X18102   0.046   2.651   9.038  0.8699 -0.0109  0.9899
  151DOPC   H6Y18103   0.210   2.640   8.958  0.4999 -1.0846 -0.4413
  151DOPC   C3718104   0.061   2.507   8.863  0.6088 -0.4976 -0.1722
  151DOPC   H7X18105   0.145   2.443   8.829  0.2275 -0.3840 -1.3749
  151DOPC   H7Y18106  -0.020   2.440   8.900  0.3460  0.0994  0.3488
  151DOPC   C3818107   0.019   2.607   8.755 -0.7581  0.5488  0.4129
  151DOPC   H8X18108   0.087   2.695   8.763  0.7203 -0.5026 -0.2464
  151DOPC   H8Y18109  -0.080   2.647   8.786 -0.0903  1.1977  1.7985
  151DOPC   C3918110   0.027   2.566   8.612  0.5771  0.2995  0.2429
  151DOPC   H9X18111   0.121   2.592   8.562 -1.3813  2.9786 -2.4097
  151DOPC  C31018112  -0.073   2.513   8.538  0.0542  0.4776 -0.6146
  151DOPC  H10X18113  -0.047   2.465   8.443 -1.2333  1.4857 -1.5072
  151DOPC  C31118114  -0.218   2.514   8.576 -0.4310  0.4428 -0.1636
  151DOPC  H11X18115  -0.240   2.607   8.632  0.1627  0.8324 -0.5662
  151DOPC  H11Y18116  -0.246   2.437   8.652  1.7089  1.0163  1.3273
  151DOPC  C31218117  -0.309   2.507   8.451 -0.2822  0.3170 -1.0472
  151DOPC  H12X18118  -0.275   2.589   8.383 -0.1464  1.3340  0.2121
  151DOPC  H12Y18119  -0.412   2.532   8.482 -1.0049 -1.7687 -1.6364
  151DOPC  C31318120  -0.305   2.380   8.380 -0.2766 -0.0267 -0.4900
  151DOPC  H13X18121  -0.212   2.348   8.328  0.0615  0.1830 -0.0207
  151DOPC  H13Y18122  -0.323   2.300   8.455  0.7831  0.0380 -0.1565
  151DOPC  C31418123  -0.428   2.362   8.284 -0.2037  0.6332 -0.2730
  151DOPC  H14X18124  -0.439   2.254   8.261 -0.2534 -0.3034  3.4962
  151DOPC  H14Y18125  -0.513   2.401   8.345  1.1507  0.6230  1.7168
  151DOPC  C31518126  -0.425   2.452   8.159 -0.4100 -0.6602  0.0454
  151DOPC  H15X18127  -0.334   2.420   8.104 -0.5358  1.0854 -1.2652
  151DOPC  H15Y18128  -0.431   2.558   8.189 -1.5186 -0.4376 -0.8751
  151DOPC  C31618129  -0.550   2.430   8.071 -0.5025 -0.0298 -0.3827
  151DOPC  H16X18130  -0.636   2.484   8.117 -0.7167 -1.8852  1.5475
  151DOPC  H16Y18131  -0.537   2.471   7.968  2.0167 -2.0159 -0.9426
  151DOPC  C31718132  -0.573   2.282   8.038  0.1022  0.4600  0.7706
  151DOPC  H17X18133  -0.472   2.257   8.000  0.0257  1.4226 -0.1026
  151DOPC  H17Y18134  -0.598   2.227   8.131 -0.8907  0.7600  0.6949
  151DOPC  C31818135  -0.692   2.254   7.940  0.3350 -0.1196 -0.7559
  151DOPC  H18X18136  -0.694   2.145   7.918  2.1709 -0.4014  0.3029
  151DOPC  H18Y18137  -0.788   2.274   7.992  0.7430  1.0831 -0.4415
  151DOPC  H18Z18138  -0.688   2.307   7.842 -0.3420 -0.4780 -0.9877
  152DOPC     N18139   2.677   5.897  10.705  0.0131 -0.1103  0.3227
  152DOPC   C1218140   2.810   5.826  10.669 -0.1151 -0.8054  0.5816
  152DOPC  H12A18141   2.800   5.780  10.572  0.9686  0.6326 -0.2426
  152DOPC  H12B18142   2.833   5.744  10.736  1.4378 -1.4217 -0.6478
  152DOPC   C1318143   2.641   5.999  10.604  0.3103 -0.4406 -0.0097
  152DOPC  H13A18144   2.564   6.064  10.643 -0.4395 -0.7187 -0.9991
  152DOPC  H13B18145   2.729   6.051  10.568  0.3180 -0.9170 -0.6969
  152DOPC  H13C18146   2.597   5.951  10.519 -1.0282  0.5118  0.1180
  152DOPC   C1418147   2.689   5.956  10.843 -0.5116 -0.9153 -0.0642
  152DOPC  H14A18148   2.723   5.890  10.922  2.5219  0.3647 -0.1502
  152DOPC  H14B18149   2.771   6.026  10.845 -1.7454  0.5550  1.1516
  152DOPC  H14C18150   2.599   6.009  10.869 -1.5675 -1.9087 -1.5718
  152DOPC   C1518151   2.560   5.795  10.715  0.6496 -0.2054 -0.4855
  152DOPC  H15A18152   2.515   5.770  10.620 -3.0024  1.2883  0.6636
  152DOPC  H15B18153   2.491   5.845  10.781  2.8537  3.2608 -0.5428
  152DOPC  H15C18154   2.583   5.700  10.760 -1.2644  0.2038  1.5066
  152DOPC   C1118155   2.935   5.914  10.668 -0.6172 -0.0063 -0.2328
  152DOPC  H11A18156   2.939   5.982  10.755  1.5606 -0.8537  0.3956
  152DOPC  H11B18157   3.025   5.849  10.678 -0.8127 -0.2583 -0.0862
  152DOPC     P18158   3.048   5.994  10.444  0.1106 -0.3460  0.2114
  152DOPC   O1318159   3.132   5.873  10.477 -0.3550  1.0956 -0.5397
  152DOPC   O1418160   3.122   6.123  10.446  0.1780  0.1910  0.3177
  152DOPC   O1218161   2.938   6.005  10.547  0.5986 -1.0065 -0.1489
  152DOPC   O1118162   2.996   5.983  10.299 -0.5346 -0.0437 -0.2372
  152DOPC    C118163   2.862   5.996  10.269  0.1046 -0.4092  0.5855
  152DOPC    HA18164   2.856   6.073  10.189  0.1769  0.9147  1.8178
  152DOPC    HB18165   2.792   6.027  10.350 -0.4074 -0.8624  0.3290
  152DOPC    C218166   2.800   5.871  10.198  0.1843  0.1347  0.2596
  152DOPC    HS18167   2.785   5.789  10.272 -3.2938 -0.2604 -0.6980
  152DOPC   O2118168   2.890   5.835  10.092 -0.2700  0.1249  0.1298
  152DOPC   C2118169   2.968   5.733  10.114  0.1105 -0.6392 -0.1028
  152DOPC   O2218170   2.967   5.664  10.216 -0.4014  1.1329  0.3511
  152DOPC   C2218171   3.051   5.720   9.983  0.2252  0.3117 -0.3102
  152DOPC   H2R18172   3.129   5.799   9.977 -1.9016  2.6850  1.3179
  152DOPC   H2S18173   2.983   5.756   9.902  0.0617  1.6358  0.3812
  152DOPC    C318174   2.660   5.903  10.137  0.0343 -0.5503  0.3926
  152DOPC    HX18175   2.676   5.990  10.071 -0.1125 -0.4945  0.4313
  152DOPC    HY18176   2.593   5.936  10.220 -0.5798  0.4489 -0.4725
  152DOPC   O3118177   2.590   5.792  10.079  0.1226  0.3309 -0.3267
  152DOPC   C3118178   2.611   5.778   9.946  0.0691  0.2327 -0.0886
  152DOPC   O3218179   2.658   5.864   9.877  0.4435 -0.3641 -0.2034
  152DOPC   C3218180   2.559   5.646   9.892 -0.2701  0.0473 -0.7037
  152DOPC   H2X18181   2.564   5.576   9.978 -0.9902 -0.6037 -1.1815
  152DOPC   H2Y18182   2.452   5.663   9.865 -0.0347 -0.1937 -1.8410
  152DOPC   C2318183   3.111   5.578   9.977  0.1709 -0.2654 -0.0329
  152DOPC   H3R18184   3.026   5.507   9.982 -0.6213  0.5399 -1.3863
  152DOPC   H3S18185   3.160   5.572  10.077 -1.7115 -0.3647  0.9194
  152DOPC   C2418186   3.202   5.548   9.851  0.5871  0.5415 -0.3248
  152DOPC   H4R18187   3.142   5.568   9.760  0.9719  1.3675 -0.4109
  152DOPC   H4S18188   3.228   5.440   9.858 -1.3654 -0.1956 -2.8013
  152DOPC   C2518189   3.336   5.620   9.840 -0.5932 -0.0452  0.5507
  152DOPC   H5R18190   3.401   5.576   9.919  0.4889 -0.5063 -0.5650
  152DOPC   H5S18191   3.321   5.729   9.856  2.6121  0.7485 -0.9383
  152DOPC   C2618192   3.409   5.598   9.706 -0.1593 -0.2058  0.3131
  152DOPC   H6R18193   3.426   5.494   9.670  1.1248  0.2727 -0.5368
  152DOPC   H6S18194   3.512   5.633   9.728  0.2158  0.3013 -1.9500
  152DOPC   C2718195   3.348   5.682   9.588 -0.4959 -0.2767  0.0789
  152DOPC   H7R18196   3.345   5.787   9.624 -1.0602 -0.6515  1.1509
  152DOPC   H7S18197   3.243   5.648   9.579 -1.0872 -0.1765  4.4982
  152DOPC   C2818198   3.435   5.687   9.461 -0.3108  0.2519  0.7271
  152DOPC   H8R18199   3.463   5.585   9.430 -0.3025  0.6972 -0.8140
  152DOPC   H8S18200   3.535   5.730   9.483  0.7988 -2.4486  1.2840
  152DOPC   C2918201   3.362   5.768   9.349 -0.0189  0.2596  0.3989
  152DOPC   H9R18202   3.363   5.877   9.364 -1.0960  0.1382  1.5398
  152DOPC  C21018203   3.300   5.717   9.242 -0.3589  0.6272 -0.2617
  152DOPC  H10R18204   3.242   5.779   9.172  0.3872  0.6929 -0.8357
  152DOPC  C21118205   3.289   5.571   9.214 -0.1531  0.1392  0.1384
  152DOPC  H11R18206   3.182   5.546   9.200 -0.2995  1.8330 -2.1830
  152DOPC  H11S18207   3.324   5.507   9.299  0.0927 -0.2723 -0.2633
  152DOPC  C21218208   3.357   5.514   9.092 -0.6278 -0.0272  0.3319
  152DOPC  H12R18209   3.462   5.549   9.096 -0.9473  1.1123 -0.6261
  152DOPC  H12S18210   3.310   5.555   9.000  0.3627 -0.2637 -0.3028
  152DOPC  C21318211   3.361   5.359   9.082  0.1239 -0.4596 -0.8091
  152DOPC  H13R18212   3.257   5.319   9.080  0.1087 -0.4222 -0.7460
  152DOPC  H13S18213   3.404   5.321   9.177 -0.2542 -0.1511 -0.5142
  152DOPC  C21418214   3.451   5.312   8.970  0.3363 -0.5443 -0.1012
  152DOPC  H14R18215   3.552   5.338   9.010 -0.0164  0.7588 -0.0093
  152DOPC  H14S18216   3.421   5.376   8.884 -0.2898 -0.1341  0.4152
  152DOPC  C21518217   3.441   5.170   8.922  0.1851 -0.1630  0.8179
  152DOPC  H15R18218   3.336   5.155   8.888  0.1171  1.3206  0.3106
  152DOPC  H15S18219   3.475   5.102   9.004 -0.3576  2.2489  3.1979
  152DOPC  C21618220   3.526   5.142   8.798  0.8951 -0.7105 -0.1185
  152DOPC  H16R18221   3.631   5.174   8.812  0.9611  0.4207 -2.6913
  152DOPC  H16S18222   3.489   5.209   8.717 -1.0985 -0.1312  1.1898
  152DOPC  C21718223   3.526   4.994   8.746  0.3773  0.6857 -0.2653
  152DOPC  H17R18224   3.508   4.928   8.833 -4.0210 -0.6689 -1.9080
  152DOPC  H17S18225   3.620   4.971   8.692  0.4578 -0.0663  0.1772
  152DOPC  C21818226   3.407   4.965   8.655  0.0242 -0.3427  0.0248
  152DOPC  H18R18227   3.309   4.995   8.695  0.2991 -0.0400  0.4748
  152DOPC  H18S18228   3.411   4.854   8.643 -0.8146 -0.3997  0.2610
  152DOPC  H18T18229   3.412   5.011   8.554  0.1695  0.9281  0.5896
  152DOPC   C3318230   2.642   5.591   9.776  0.4182  0.5223  0.1574
  152DOPC   H3X18231   2.678   5.672   9.710  2.2940  1.1663  1.8727
  152DOPC   H3Y18232   2.575   5.522   9.719  1.4443 -0.3409 -0.0316
  152DOPC   C3418233   2.761   5.504   9.827 -0.4501 -0.2955 -0.0732
  152DOPC   H4X18234   2.724   5.427   9.898  0.0012  1.0348  1.6706
  152DOPC   H4Y18235   2.822   5.581   9.878 -0.2254  0.9026 -2.0310
  152DOPC   C3518236   2.828   5.425   9.723 -0.4477 -0.4296 -0.0823
  152DOPC   H5X18237   2.815   5.319   9.753 -1.2996 -0.4321 -0.4299
  152DOPC   H5Y18238   2.937   5.445   9.713 -0.5386 -0.8099 -2.2769
  152DOPC   C3618239   2.771   5.423   9.581  0.1424  0.2184  0.3812
  152DOPC   H6X18240   2.663   5.397   9.582 -0.5594  2.9171  0.3554
  152DOPC   H6Y18241   2.771   5.524   9.535 -0.7762  1.0207  2.0370
  152DOPC   C3718242   2.850   5.319   9.490  0.1739  0.0964  0.6368
  152DOPC   H7X18243   2.859   5.226   9.551 -1.0628  1.0875  2.4418
  152DOPC   H7Y18244   2.786   5.298   9.402  0.2088 -0.5352  0.7528
  152DOPC   C3818245   2.990   5.366   9.458  0.2726  0.1633  0.4658
  152DOPC   H8X18246   3.051   5.341   9.547  0.4659 -1.0173  0.0091
  152DOPC   H8Y18247   2.990   5.477   9.453  2.4652  0.2190  0.7673
  152DOPC   C3918248   3.045   5.307   9.334 -0.3779  0.1775  0.1462
  152DOPC   H9X18249   3.027   5.367   9.243  1.6233  1.6796  0.6841
  152DOPC  C31018250   3.109   5.196   9.320 -0.1261  0.0290 -0.1832
  152DOPC  H10X18251   3.150   5.169   9.221  0.6266  1.4802 -0.2981
  152DOPC  C31118252   3.155   5.106   9.436 -0.3429  0.3357  1.0194
  152DOPC  H11X18253   3.072   5.041   9.472  1.8786 -2.1566  2.0244
  152DOPC  H11Y18254   3.186   5.172   9.521 -1.1351  2.4861 -0.2872
  152DOPC  C31218255   3.275   5.016   9.388  0.2853  0.0280 -0.5829
  152DOPC  H12X18256   3.336   4.983   9.475 -0.9570  1.5175  0.9284
  152DOPC  H12Y18257   3.350   5.077   9.334  2.1469  0.6331  2.4647
  152DOPC  C31318258   3.225   4.892   9.306 -0.1201 -0.0515  0.8635
  152DOPC  H13X18259   3.275   4.798   9.337 -1.3567 -0.8021  0.6444
  152DOPC  H13Y18260   3.116   4.883   9.324 -0.3187  2.0132  0.8782
  152DOPC  C31418261   3.249   4.917   9.152 -0.0950  0.4108  0.1212
  152DOPC  H14X18262   3.171   4.991   9.125  0.3788  0.1796 -2.0600
  152DOPC  H14Y18263   3.347   4.965   9.132  0.6663 -0.7054  1.0149
  152DOPC  C31518264   3.221   4.797   9.061 -0.4993 -0.5643 -1.1166
  152DOPC  H15X18265   3.262   4.699   9.093 -1.2921 -0.7314 -0.5678
  152DOPC  H15Y18266   3.275   4.819   8.966  1.1571 -0.6411 -0.2269
  152DOPC  C31618267   3.076   4.772   9.046  0.4013 -0.3920 -0.6660
  152DOPC  H16X18268   3.023   4.770   9.143  0.3943 -0.0083 -0.6609
  152DOPC  H16Y18269   3.024   4.854   8.992  1.1611 -0.8799 -2.2076
  152DOPC  C31718270   3.033   4.645   8.978 -0.4621 -0.7287 -0.4481
  152DOPC  H17X18271   3.032   4.569   9.059  1.7123 -1.1212 -0.7232
  152DOPC  H17Y18272   2.926   4.663   8.954 -1.3527 -2.3526  1.8738
  152DOPC  C31818273   3.124   4.596   8.868  0.6389  0.3532  0.4337
  152DOPC  H18X18274   3.076   4.505   8.825 -2.6743  2.1093  0.0199
  152DOPC  H18Y18275   3.149   4.670   8.789  2.7467 -0.3216  0.4077
  152DOPC  H18Z18276   3.223   4.574   8.913  1.3177  1.9315 -0.2338
  153DOPC     N18277   4.513   5.382  10.322 -0.2797  0.1659 -0.5063
  153DOPC   C1218278   4.418   5.330  10.216  0.1171 -0.0296 -0.1359
  153DOPC  H12A18279   4.329   5.315  10.275  0.0038  0.9687 -0.0404
  153DOPC  H12B18280   4.452   5.238  10.170 -1.0090  0.5705 -2.2818
  153DOPC   C1318281   4.511   5.292  10.442 -0.7516  0.3347  0.1206
  153DOPC  H13A18282   4.417   5.286  10.495 -0.3769 -3.3076  0.5949
  153DOPC  H13B18283   4.549   5.194  10.419  0.3091  0.3963  1.4227
  153DOPC  H13C18284   4.582   5.328  10.515 -1.5507  0.0531  1.0580
  153DOPC   C1418285   4.485   5.524  10.358 -0.1429 -0.2133 -0.0644
  153DOPC  H14A18286   4.381   5.514  10.385  0.1695 -2.4323  0.4606
  153DOPC  H14B18287   4.545   5.563  10.440  0.4388  2.1253 -1.4929
  153DOPC  H14C18288   4.515   5.587  10.275 -0.1391  0.1676  0.2186
  153DOPC   C1518289   4.655   5.366  10.269  0.0997 -0.0495 -0.5239
  153DOPC  H15A18290   4.716   5.440  10.318 -0.0401  0.1148 -0.5987
  153DOPC  H15B18291   4.658   5.382  10.163  2.6826 -0.1634 -0.5342
  153DOPC  H15C18292   4.691   5.265  10.286 -0.1736 -0.1430 -0.4972
  153DOPC   C1118293   4.376   5.423  10.096  0.5068  0.4684  0.1419
  153DOPC  H11A18294   4.469   5.463  10.051  0.1424  0.5634 -0.5516
  153DOPC  H11B18295   4.332   5.347  10.026 -0.5319 -0.0348  1.2898
  153DOPC     P18296   4.131   5.479  10.152 -0.1538 -0.1905  0.2963
  153DOPC   O1318297   4.069   5.571  10.246 -0.0073  0.3455  0.0764
  153DOPC   O1418298   4.124   5.330  10.175 -0.5418 -0.4139  0.2341
  153DOPC   O1218299   4.286   5.519  10.130 -0.0541 -0.1259  0.0443
  153DOPC   O1118300   4.074   5.511  10.009  0.0644  0.2652  0.2965
  153DOPC    C118301   4.073   5.653   9.965  0.4096  0.5057 -0.4174
  153DOPC    HA18302   4.134   5.721  10.028  1.2189  0.7986 -1.4749
  153DOPC    HB18303   3.970   5.694   9.975 -1.5436 -3.1320 -3.1037
  153DOPC    C218304   4.102   5.678   9.812  0.1018  1.2099 -0.1781
  153DOPC    HS18305   4.085   5.779   9.770  1.5696  0.9239 -1.5805
  153DOPC   O2118306   4.019   5.586   9.736 -0.0951  0.2326 -0.3290
  153DOPC   C2118307   3.896   5.613   9.727 -0.3015  0.3713  0.0275
  153DOPC   O2218308   3.832   5.700   9.776  0.5829 -0.1277  0.1634
  153DOPC   C2218309   3.839   5.499   9.638 -0.5910 -0.0243 -0.5474
  153DOPC   H2R18310   3.752   5.448   9.686 -1.6915  1.5414 -0.7938
  153DOPC   H2S18311   3.913   5.417   9.626  0.6306  0.7582  1.2943
  153DOPC    C318312   4.248   5.641   9.796  0.0661  0.4733  0.0766
  153DOPC    HX18313   4.265   5.589   9.699 -2.1197 -1.0310  0.4355
  153DOPC    HY18314   4.275   5.566   9.873  0.3796  1.7553  1.2445
  153DOPC   O3118315   4.330   5.758   9.812 -0.2212  0.1810 -0.8550
  153DOPC   C3118316   4.464   5.731   9.807 -0.0851 -0.1544  0.0360
  153DOPC   O3218317   4.511   5.617   9.794  0.3719  0.1037  0.0179
  153DOPC   C3218318   4.538   5.862   9.804  0.3991  0.0315 -0.1436
  153DOPC   H2X18319   4.466   5.928   9.751  0.7295  1.0759  0.6587
  153DOPC   H2Y18320   4.543   5.900   9.908 -2.0796 -2.4853  1.0126
  153DOPC   C2318321   3.785   5.559   9.508  0.5707 -0.0772  0.1568
  153DOPC   H3R18322   3.726   5.653   9.519  1.2321  0.7248 -2.3442
  153DOPC   H3S18323   3.719   5.485   9.458 -0.6843  1.1037  0.0081
  153DOPC   C2418324   3.906   5.603   9.422 -0.3844  0.5399  0.2772
  153DOPC   H4R18325   3.952   5.509   9.384  0.7243  0.6820  1.2048
  153DOPC   H4S18326   3.970   5.661   9.492 -0.2137 -0.7839  1.2715
  153DOPC   C2518327   3.868   5.682   9.289 -0.1638 -0.0988 -0.7696
  153DOPC   H5R18328   3.967   5.714   9.250  1.3602 -1.4232  1.7451
  153DOPC   H5S18329   3.832   5.784   9.313  1.0626  0.2580 -0.3523
  153DOPC   C2618330   3.786   5.604   9.187 -0.0092 -0.3587 -0.2746
  153DOPC   H6R18331   3.692   5.562   9.228 -0.7135  0.1757 -1.2914
  153DOPC   H6S18332   3.846   5.526   9.136 -0.6004 -0.7912 -0.3239
  153DOPC   C2718333   3.721   5.694   9.075 -0.2167 -0.6945 -0.2152
  153DOPC   H7R18334   3.655   5.769   9.124  1.5017  0.1710  0.8798
  153DOPC   H7S18335   3.650   5.635   9.014 -0.6546 -0.0789 -0.3067
  153DOPC   C2818336   3.822   5.755   8.971  0.2909 -0.1088 -0.3932
  153DOPC   H8R18337   3.911   5.805   9.015 -0.7775  2.2243 -0.7016
  153DOPC   H8S18338   3.775   5.839   8.915 -1.6401  1.1078  2.7843
  153DOPC   C2918339   3.874   5.657   8.871  0.3273  0.1185 -0.1370
  153DOPC   H9R18340   3.825   5.559   8.867 -2.0053  1.2116 -0.2942
  153DOPC  C21018341   3.981   5.680   8.796 -0.0121  0.0288 -0.4903
  153DOPC  H10R18342   4.026   5.600   8.736  0.4839 -0.3960  0.4203
  153DOPC  C21118343   4.055   5.809   8.790  0.3236 -0.5965  0.0358
  153DOPC  H11R18344   4.164   5.785   8.793  0.0527 -1.8038  1.0030
  153DOPC  H11S18345   4.033   5.876   8.876  0.0719  2.1309 -2.0085
  153DOPC  C21218346   4.030   5.906   8.668  0.3224  0.3540 -0.3629
  153DOPC  H12R18347   3.923   5.937   8.660  0.2545 -0.2119 -2.1027
  153DOPC  H12S18348   4.066   5.856   8.576 -0.2544  0.0811 -0.4432
  153DOPC  C21318349   4.112   6.036   8.678 -0.0271  0.7374  0.5321
  153DOPC  H13R18350   4.212   6.008   8.716  0.7514  1.7203 -0.6997
  153DOPC  H13S18351   4.062   6.103   8.750  0.3695 -1.3966  2.9398
  153DOPC  C21418352   4.109   6.087   8.526 -0.3197  0.2897  0.2172
  153DOPC  H14R18353   4.004   6.088   8.489 -0.4970 -0.0093  0.7134
  153DOPC  H14S18354   4.157   6.013   8.458 -0.1902  0.0799  0.5345
  153DOPC  C21518355   4.166   6.225   8.517  0.2592 -0.4489 -0.5581
  153DOPC  H15R18356   4.109   6.282   8.593  0.6740  0.5954 -1.0132
  153DOPC  H15S18357   4.132   6.278   8.425 -0.4425 -0.8815 -0.5475
  153DOPC  C21618358   4.319   6.239   8.527  0.4667  0.3075 -0.1995
  153DOPC  H16R18359   4.353   6.203   8.427  0.9160 -1.8913  0.6955
  153DOPC  H16S18360   4.353   6.163   8.600 -1.0328 -1.0972 -0.8984
  153DOPC  C21718361   4.370   6.387   8.546  0.0635  0.3942 -0.6096
  153DOPC  H17R18362   4.480   6.387   8.530 -0.1051  0.3716 -1.8851
  153DOPC  H17S18363   4.357   6.418   8.652  0.4606  0.0025 -0.4421
  153DOPC  C21818364   4.319   6.492   8.453 -0.1519  0.0207 -0.0411
  153DOPC  H18R18365   4.209   6.496   8.450 -0.1027  2.7112 -0.0835
  153DOPC  H18S18366   4.355   6.471   8.350  0.4687  0.0971  0.1554
  153DOPC  H18T18367   4.365   6.586   8.489  0.6949 -1.0153  1.7307
  153DOPC   C3318368   4.676   5.865   9.732 -0.3667 -0.5338 -0.4644
  153DOPC   H3X18369   4.751   5.797   9.777  0.5927 -0.3600 -1.7566
  153DOPC   H3Y18370   4.721   5.965   9.747  2.1732 -1.3248 -2.2338
  153DOPC   C3418371   4.675   5.842   9.582  0.0420 -0.5740  0.0145
  153DOPC   H4X18372   4.597   5.908   9.537  0.0174 -0.3641  0.3614
  153DOPC   H4Y18373   4.672   5.736   9.548  1.0741 -0.2012 -1.3315
  153DOPC   C3518374   4.805   5.887   9.514 -0.1037  0.0946  0.4084
  153DOPC   H5X18375   4.879   5.806   9.535  1.4801  1.5148  0.4685
  153DOPC   H5Y18376   4.843   5.984   9.552  0.7024  0.7803 -1.9935
  153DOPC   C3618377   4.790   5.906   9.360  0.2821  0.4445  0.0483
  153DOPC   H6X18378   4.757   5.805   9.325  2.0180  0.7393 -2.6905
  153DOPC   H6Y18379   4.702   5.969   9.338  0.3386 -0.2044 -2.2520
  153DOPC   C3718380   4.909   5.973   9.279  0.1201 -0.0855 -0.4455
  153DOPC   H7X18381   4.919   6.078   9.314 -0.2023 -0.4641  0.8583
  153DOPC   H7Y18382   4.997   5.910   9.302  1.9326  1.4328 -2.8118
  153DOPC   C3818383   4.888   5.972   9.129  0.3280 -0.1804 -0.1704
  153DOPC   H8X18384   4.795   6.022   9.095 -0.0444 -1.4222 -1.0690
  153DOPC   H8Y18385   4.880   5.867   9.092 -1.6107  0.0280 -0.4886
  153DOPC   C3918386   4.998   6.052   9.071  0.1139  0.2779  0.8886
  153DOPC   H9X18387   5.024   6.147   9.121  1.9514 -0.4315  1.3768
  153DOPC  C31018388   5.077   6.014   8.969  0.1994  0.1169  0.3319
  153DOPC  H10X18389   5.139   6.097   8.932 -1.1257  0.8024 -0.4332
  153DOPC  C31118390   5.069   5.882   8.886 -0.0529 -0.1030  0.4151
  153DOPC  H11X18391   4.977   5.826   8.911 -0.5093  0.4960  0.0939
  153DOPC  H11Y18392   5.153   5.816   8.918 -1.7275 -2.6272 -0.1569
  153DOPC  C31218393   5.081   5.912   8.734 -0.5717  0.7712 -0.2365
  153DOPC  H12X18394   5.007   5.993   8.720 -0.0800  2.1800  3.9664
  153DOPC  H12Y18395   5.054   5.821   8.676  1.2345  0.2180 -0.2814
  153DOPC  C31318396   5.219   5.962   8.684  0.5525 -0.3518 -0.1854
  153DOPC  H13X18397   5.199   5.968   8.575 -0.2084 -0.2528 -0.0458
  153DOPC  H13Y18398   5.233   6.067   8.715 -0.9564  0.1262 -1.0121
  153DOPC  C31418399   5.329   5.869   8.724 -0.5206 -1.0072 -0.0914
  153DOPC  H14X18400   5.350   5.876   8.832  0.0758 -2.7450 -0.0759
  153DOPC  H14Y18401   5.293   5.769   8.692 -1.3068 -0.3248 -1.4652
  153DOPC  C31518402   5.449   5.929   8.647  0.4365 -0.4713  0.4605
  153DOPC  H15X18403   5.464   6.039   8.647 -1.1429 -0.2325  1.3546
  153DOPC  H15Y18404   5.429   5.907   8.540 -0.5331 -0.0836  0.5495
  153DOPC  C31618405   5.573   5.865   8.702  0.4538 -0.6117  0.7952
  153DOPC  H16X18406   5.569   5.899   8.808 -2.0575  3.6768 -0.4320
  153DOPC  H16Y18407   5.556   5.756   8.694  1.2434 -0.7445  0.7782
  153DOPC  C31718408   5.700   5.918   8.636 -0.5946 -0.0886 -0.2051
  153DOPC  H17X18409   5.685   5.915   8.526  0.1139 -0.7544 -0.2926
  153DOPC  H17Y18410   5.720   6.022   8.668  1.2035 -0.0470 -1.3212
  153DOPC  C31818411   5.826   5.833   8.665 -0.0038  0.4992  0.2757
  153DOPC  H18X18412   5.907   5.857   8.592  0.4806  2.0646  1.2681
  153DOPC  H18Y18413   5.861   5.858   8.768 -0.1614  1.2907  0.1483
  153DOPC  H18Z18414   5.796   5.728   8.648 -1.1840  0.6377  1.4026
  154DOPC     N18415   4.860   2.597  10.698 -0.3267  0.3974 -0.5202
  154DOPC   C1218416   4.799   2.654  10.570 -0.4126 -0.4384 -0.1346
  154DOPC  H12A18417   4.859   2.610  10.493  1.1179 -1.2985  1.4748
  154DOPC  H12B18418   4.817   2.760  10.580  3.0136 -0.9556  0.4585
  154DOPC   C1318419   4.848   2.453  10.710  0.2558  0.5119 -0.1136
  154DOPC  H13A18420   4.877   2.414  10.807 -1.4022 -0.9250 -0.1454
  154DOPC  H13B18421   4.744   2.430  10.695  0.5397  0.1937 -1.7775
  154DOPC  H13C18422   4.908   2.406  10.633 -1.1377  0.3527 -1.1219
  154DOPC   C1418423   4.795   2.653  10.825  0.2017 -0.0112  0.6070
  154DOPC  H14A18424   4.815   2.759  10.835  0.2529  0.2388 -1.6402
  154DOPC  H14B18425   4.688   2.641  10.822  0.3262 -1.7788  1.6623
  154DOPC  H14C18426   4.831   2.605  10.914  0.8822 -0.1734  0.2520
  154DOPC   C1518427   5.001   2.631  10.702 -1.2244 -0.0246  0.9664
  154DOPC  H15A18428   5.063   2.564  10.759  0.9040  1.7561  0.8575
  154DOPC  H15B18429   5.005   2.735  10.732 -1.6763 -0.2462  1.8505
  154DOPC  H15C18430   5.046   2.631  10.604 -0.3251  1.6917  1.3303
  154DOPC   C1118431   4.652   2.626  10.531  0.0323  0.0291  0.2069
  154DOPC  H11A18432   4.577   2.663  10.604  0.9379  1.4429  0.4528
  154DOPC  H11B18433   4.630   2.675  10.433 -0.7645 -1.8665 -0.6214
  154DOPC     P18434   4.687   2.406  10.382  0.2779 -0.4262 -0.5249
  154DOPC   O1318435   4.675   2.260  10.393 -0.3298  0.1252 -0.4775
  154DOPC   O1418436   4.819   2.458  10.342  0.2114 -0.5673 -0.1422
  154DOPC   O1218437   4.640   2.484  10.508  0.3774 -0.3692  0.3680
  154DOPC   O1118438   4.577   2.455  10.281  0.6074 -0.0771  0.0616
  154DOPC    C118439   4.439   2.451  10.330 -0.3522  0.4585  0.5049
  154DOPC    HA18440   4.388   2.546  10.358 -1.0395 -0.2754  1.8100
  154DOPC    HB18441   4.425   2.378  10.412  0.9780 -0.4111 -0.0204
  154DOPC    C218442   4.352   2.383  10.220  0.2733 -0.3515  0.4314
  154DOPC    HS18443   4.247   2.404  10.249  0.3217 -0.1813  0.4832
  154DOPC   O2118444   4.378   2.242  10.214  0.8543 -0.2830 -0.3757
  154DOPC   C2118445   4.297   2.165  10.289  0.1120 -0.2786 -0.7244
  154DOPC   O2218446   4.196   2.202  10.346 -0.7251 -0.3017 -0.7458
  154DOPC   C2218447   4.346   2.020  10.282 -0.3106  0.0021  0.0120
  154DOPC   H2R18448   4.403   2.016  10.378 -0.7103  0.8349  0.2985
  154DOPC   H2S18449   4.419   2.009  10.198 -2.2082 -1.6633 -1.5034
  154DOPC    C318450   4.377   2.453  10.086  0.2957 -0.1712 -0.2218
  154DOPC    HX18451   4.484   2.451  10.058  0.3186  0.4808 -0.1818
  154DOPC    HY18452   4.336   2.556  10.084  0.7633  0.0328  0.4608
  154DOPC   O3118453   4.310   2.380   9.981  0.1942  0.5603  0.5740
  154DOPC   C3118454   4.183   2.402   9.967  0.3418 -0.3443  0.2642
  154DOPC   O3218455   4.104   2.440  10.051  0.2763 -0.5319  0.1677
  154DOPC   C3218456   4.141   2.350   9.833 -0.3450  0.4581  0.7368
  154DOPC   H2X18457   4.153   2.240   9.840 -0.9126  0.4153  1.0642
  154DOPC   H2Y18458   4.033   2.368   9.816 -0.1180 -0.3201 -1.9565
  154DOPC   C2318459   4.243   1.916  10.266  0.0053 -0.6978  0.4472
  154DOPC   H3R18460   4.151   1.939  10.323  0.2761  0.2366  0.5141
  154DOPC   H3S18461   4.288   1.825  10.310  0.5735 -0.4151  0.4538
  154DOPC   C2418462   4.215   1.882  10.115 -0.1502 -0.4672  0.1533
  154DOPC   H4R18463   4.134   1.807  10.103  0.0037 -0.3206 -2.0796
  154DOPC   H4S18464   4.303   1.832  10.070 -0.1788 -0.9522  0.6255
  154DOPC   C2518465   4.156   2.004  10.030  0.3268 -0.1166  0.5624
  154DOPC   H5R18466   4.220   2.095  10.028  0.2343 -0.0646 -0.7668
  154DOPC   H5S18467   4.065   2.040  10.083 -0.3676 -0.1521 -0.5803
  154DOPC   C2618468   4.107   1.974   9.888  0.1273  0.8337  0.3790
  154DOPC   H6R18469   4.040   2.050   9.841  1.2591  0.6183 -1.6753
  154DOPC   H6S18470   4.044   1.883   9.882 -0.6013  1.4115 -1.4229
  154DOPC   C2718471   4.220   1.953   9.788 -0.5878 -0.7153 -0.4203
  154DOPC   H7R18472   4.277   1.861   9.811 -0.8527 -0.8560 -0.3242
  154DOPC   H7S18473   4.300   2.029   9.796  0.6192 -1.9213 -0.7607
  154DOPC   C2818474   4.168   1.957   9.639 -0.7623  0.9721 -0.7097
  154DOPC   H8R18475   4.149   2.066   9.627  1.0134  1.6595  1.8115
  154DOPC   H8S18476   4.068   1.909   9.645 -0.3581  0.2482  0.6963
  154DOPC   C2918477   4.255   1.878   9.538  0.2746 -0.0373  0.2656
  154DOPC   H9R18478   4.243   1.770   9.553  1.7061 -0.4590 -1.2925
  154DOPC  C21018479   4.315   1.915   9.427  0.4001  0.7371 -0.4065
  154DOPC  H10R18480   4.381   1.849   9.367  0.1751  0.4062 -0.2942
  154DOPC  C21118481   4.317   2.052   9.373  0.0790 -0.4423  0.2952
  154DOPC  H11R18482   4.418   2.090   9.400 -0.2730  2.1264 -1.6501
  154DOPC  H11S18483   4.246   2.120   9.425 -3.0623 -1.1357 -2.8079
  154DOPC  C21218484   4.315   2.065   9.221  0.0811  0.2941 -0.3505
  154DOPC  H12R18485   4.315   2.174   9.203 -0.1526  0.9244  2.7758
  154DOPC  H12S18486   4.222   2.027   9.173 -1.4066  1.6980  1.2999
  154DOPC  C21318487   4.439   2.007   9.147 -0.5494 -0.7708  0.1333
  154DOPC  H13R18488   4.423   1.897   9.144 -1.6364 -0.6478  1.0381
  154DOPC  H13S18489   4.537   2.046   9.182 -1.4967  3.4223 -1.3622
  154DOPC  C21418490   4.450   2.056   9.003  0.3679  0.2176  0.4371
  154DOPC  H14R18491   4.491   2.160   9.001  4.1487 -1.1132 -0.7957
  154DOPC  H14S18492   4.352   2.050   8.951 -0.0057 -0.0209  1.1662
  154DOPC  C21518493   4.558   1.974   8.913  0.6799  0.0004  0.0363
  154DOPC  H15R18494   4.557   1.868   8.945  0.9524 -0.5598 -1.7023
  154DOPC  H15S18495   4.660   2.018   8.917  0.0469  1.7027 -1.1060
  154DOPC  C21618496   4.527   1.978   8.763  0.7859  0.3578 -0.2476
  154DOPC  H16R18497   4.521   2.080   8.720  1.5383  0.5690  0.1228
  154DOPC  H16S18498   4.422   1.946   8.751 -0.0052  2.6396  0.1235
  154DOPC  C21718499   4.610   1.891   8.672 -0.2779  0.1108  0.1389
  154DOPC  H17R18500   4.623   1.794   8.724  0.4156  0.6388  0.9761
  154DOPC  H17S18501   4.711   1.936   8.661 -0.4452  0.3733 -0.3556
  154DOPC  C21818502   4.548   1.870   8.539  0.4111 -0.5683  0.1782
  154DOPC  H18R18503   4.605   1.802   8.472  0.8347  1.5347 -1.7402
  154DOPC  H18S18504   4.537   1.970   8.490 -0.9620 -0.6390  0.3187
  154DOPC  H18T18505   4.451   1.824   8.565  0.5308 -0.9064  0.0382
  154DOPC   C3318506   4.214   2.418   9.707  0.3712  0.7677  0.0960
  154DOPC   H3X18507   4.315   2.374   9.694 -0.7469 -1.3808 -2.0268
  154DOPC   H3Y18508   4.234   2.526   9.727 -0.2758  0.6879  1.2404
  154DOPC   C3418509   4.139   2.385   9.573  0.2095 -0.0881  0.0523
  154DOPC   H4X18510   4.035   2.416   9.596 -0.1494 -2.2308  1.6562
  154DOPC   H4Y18511   4.134   2.278   9.544  1.6128  0.6839 -3.7010
  154DOPC   C3518512   4.177   2.466   9.447 -0.2925 -0.0054 -0.1530
  154DOPC   H5X18513   4.287   2.469   9.431 -0.5787  1.1620 -2.2154
  154DOPC   H5Y18514   4.152   2.573   9.465  0.7362  0.0723  0.8903
  154DOPC   C3618515   4.107   2.425   9.317  0.1931 -0.3789  0.1141
  154DOPC   H6X18516   4.141   2.324   9.286  1.4853 -0.1203  0.6430
  154DOPC   H6Y18517   3.996   2.424   9.329  0.1672 -1.7903 -0.0700
  154DOPC   C3718518   4.144   2.534   9.216 -0.0410  0.8956  0.0052
  154DOPC   H7X18519   4.114   2.629   9.265 -1.9142  0.1168  0.4215
  154DOPC   H7Y18520   4.253   2.536   9.194  0.0793  1.8428  0.6284
  154DOPC   C3818521   4.069   2.535   9.079  0.2416 -0.2463  0.2808
  154DOPC   H8X18522   4.094   2.627   9.022 -1.3925  1.8147  2.6486
  154DOPC   H8Y18523   3.960   2.540   9.099  0.2304  0.1228  0.1267
  154DOPC   C3918524   4.095   2.424   8.984 -0.0274 -0.0162 -0.1215
  154DOPC   H9X18525   4.195   2.433   8.939 -0.6344  0.6375 -1.3603
  154DOPC  C31018526   4.026   2.309   8.967 -0.7506 -0.9036 -0.1414
  154DOPC  H10X18527   4.062   2.232   8.897  2.2319  0.0337  0.2046
  154DOPC  C31118528   3.892   2.272   9.020  0.4388 -0.2944  0.5442
  154DOPC  H11X18529   3.820   2.238   8.942  0.0356 -0.2894  0.9086
  154DOPC  H11Y18530   3.846   2.351   9.084  0.7251  0.5072 -0.2164
  154DOPC  C31218531   3.896   2.161   9.126 -0.1966 -0.5136 -1.0020
  154DOPC  H12X18532   3.981   2.175   9.196 -0.2677 -0.4212 -0.9343
  154DOPC  H12Y18533   3.914   2.066   9.072 -0.5845 -0.4956 -1.1667
  154DOPC  C31318534   3.767   2.149   9.218  0.2430  0.1559  0.0031
  154DOPC  H13X18535   3.762   2.234   9.290 -3.2571 -1.6144  2.1228
  154DOPC  H13Y18536   3.690   2.166   9.140 -0.1158 -3.0024 -0.4542
  154DOPC  C31418537   3.756   2.019   9.293  0.1387  0.1611 -0.0177
  154DOPC  H14X18538   3.654   2.004   9.333  0.1892 -4.9352 -1.1304
  154DOPC  H14Y18539   3.775   1.939   9.218 -0.4785 -0.6511  0.6770
  154DOPC  C31518540   3.856   2.006   9.414 -0.0593  1.3369  0.2137
  154DOPC  H15X18541   3.963   2.001   9.383 -0.0231 -0.2224  0.5096
  154DOPC  H15Y18542   3.851   1.901   9.450  1.8170  0.7597 -1.0217
  154DOPC  C31618543   3.849   2.113   9.527 -0.2971  0.1677 -1.0925
  154DOPC  H16X18544   3.886   2.058   9.615 -2.1674 -1.2579 -1.1420
  154DOPC  H16Y18545   3.917   2.199   9.508  0.3791  0.4560  2.0644
  154DOPC  C31718546   3.712   2.156   9.578 -0.6080  0.8285  0.3954
  154DOPC  H17X18547   3.659   2.186   9.484  0.9774  4.6742  0.5475
  154DOPC  H17Y18548   3.658   2.068   9.618 -0.9560 -0.6493 -3.0153
  154DOPC  C31818549   3.702   2.273   9.680  0.3127 -0.3228  0.5859
  154DOPC  H18X18550   3.620   2.253   9.751 -0.6955 -0.9320 -0.7034
  154DOPC  H18Y18551   3.801   2.294   9.726  0.1691  0.1237  0.6938
  154DOPC  H18Z18552   3.678   2.370   9.631  1.2464 -0.8626 -1.0292
  155DOPC     N18553   6.578   0.594  10.066  0.2370 -0.4121  0.2914
  155DOPC   C1218554   6.589   0.708   9.968 -0.1717  0.0794  0.4801
  155DOPC  H12A18555   6.570   0.802  10.017  0.3922  0.5300 -0.1382
  155DOPC  H12B18556   6.506   0.691   9.901 -2.6516  1.5648  2.9356
  155DOPC   C1318557   6.620   0.461  10.015  0.2280 -0.6706  0.0073
  155DOPC  H13A18558   6.710   0.458   9.955  0.2176 -0.3648 -0.0242
  155DOPC  H13B18559   6.634   0.395  10.099 -0.6188  1.4511  1.8894
  155DOPC  H13C18560   6.546   0.413   9.952 -1.3250 -0.0189  1.2696
  155DOPC   C1418561   6.437   0.576  10.115 -0.2599 -0.2097  0.5056
  155DOPC  H14A18562   6.376   0.544  10.032  1.5539  3.4395 -2.5242
  155DOPC  H14B18563   6.441   0.497  10.189  2.9677 -1.5979 -0.9551
  155DOPC  H14C18564   6.399   0.675  10.133  0.7579  0.1446  0.7880
  155DOPC   C1518565   6.662   0.617  10.183 -0.5662  0.1678 -0.2259
  155DOPC  H15A18566   6.765   0.609  10.149 -0.5070 -2.6189  0.3982
  155DOPC  H15B18567   6.659   0.556  10.271  0.0512  0.9809  0.3798
  155DOPC  H15C18568   6.653   0.719  10.220 -1.0744  0.4127 -0.9944
  155DOPC   C1118569   6.726   0.726   9.893  0.0663  0.4457 -1.0331
  155DOPC  H11A18570   6.753   0.626   9.853 -1.4911 -0.1081 -0.7324
  155DOPC  H11B18571   6.722   0.802   9.812  2.9258 -0.2309 -1.9513
  155DOPC     P18572   6.952   0.725  10.007  0.7464 -0.0976  0.1599
  155DOPC   O1318573   6.960   0.576  10.011 -0.4152 -0.4342 -0.2634
  155DOPC   O1418574   7.016   0.792  10.121  0.1247 -0.4617  0.5558
  155DOPC   O1218575   6.811   0.767  10.005 -0.4092 -0.3383  0.2041
  155DOPC   O1118576   7.017   0.772   9.870  0.3800 -0.1125 -0.2676
  155DOPC    C118577   7.073   0.905   9.844 -0.4197  0.9630  1.0645
  155DOPC    HA18578   7.183   0.908   9.860 -0.0391 -0.7820 -0.7256
  155DOPC    HB18579   7.040   0.986   9.912  2.8551  4.2272 -0.8523
  155DOPC    C218580   7.073   0.956   9.691 -0.5499  0.4450 -0.0110
  155DOPC    HS18581   7.144   1.041   9.681 -1.3862  1.3716  1.6098
  155DOPC   O2118582   6.941   0.991   9.634 -0.1638 -0.3705 -0.0884
  155DOPC   C2118583   6.895   1.103   9.693 -0.3872 -0.1032  0.1561
  155DOPC   O2218584   6.963   1.170   9.769  0.8769  0.7289  0.6939
  155DOPC   C2218585   6.756   1.139   9.636  0.1443 -0.2501  0.0060
  155DOPC   H2R18586   6.703   1.164   9.731  1.3953 -0.2810  0.7303
  155DOPC   H2S18587   6.718   1.047   9.587 -0.0953 -0.6235  0.8671
  155DOPC    C318588   7.126   0.847   9.596 -0.1571  0.7336 -0.0667
  155DOPC    HX18589   7.051   0.765   9.599 -0.4113  0.9785  0.3645
  155DOPC    HY18590   7.213   0.794   9.640 -0.5998  0.4270  0.4499
  155DOPC   O3118591   7.138   0.882   9.456 -0.5086  0.2683 -0.9150
  155DOPC   C3118592   7.259   0.934   9.427  0.1687  0.2604  0.2437
  155DOPC   O3218593   7.352   0.941   9.507  0.9244 -0.0722  0.2814
  155DOPC   C3218594   7.274   0.939   9.275  0.5451 -0.4164  0.5118
  155DOPC   H2X18595   7.233   0.852   9.218 -0.3375  0.9090 -0.9529
  155DOPC   H2Y18596   7.217   1.028   9.242 -0.7690 -0.6945  1.9409
  155DOPC   C2318597   6.752   1.258   9.541 -0.0075  0.0728  0.5908
  155DOPC   H3R18598   6.821   1.255   9.454 -0.0487  0.3026  0.5487
  155DOPC   H3S18599   6.793   1.340   9.604  1.5709 -0.7941  0.7323
  155DOPC   C2418600   6.609   1.280   9.485 -0.6459  0.2191 -0.5150
  155DOPC   H4R18601   6.589   1.389   9.477 -0.2156  0.2596 -1.0569
  155DOPC   H4S18602   6.535   1.242   9.559  0.3414  0.9798  0.9141
  155DOPC   C2518603   6.584   1.216   9.353  0.3659  0.4270  0.5436
  155DOPC   H5R18604   6.601   1.108   9.368  0.6354  0.7950  3.2922
  155DOPC   H5S18605   6.651   1.246   9.269 -0.9412  1.0292 -0.3252
  155DOPC   C2618606   6.441   1.243   9.303 -0.0306  0.6023 -0.2639
  155DOPC   H6R18607   6.414   1.349   9.289  1.3064  1.1347  0.9633
  155DOPC   H6S18608   6.367   1.206   9.378 -1.0310  2.3501 -0.3461
  155DOPC   C2718609   6.413   1.166   9.175 -0.2343  0.0559  0.0259
  155DOPC   H7R18610   6.426   1.057   9.193  0.7199  0.1170 -0.2292
  155DOPC   H7S18611   6.490   1.200   9.102 -0.0263 -0.7195 -0.1332
  155DOPC   C2818612   6.264   1.198   9.128  0.7920 -0.3773  0.2372
  155DOPC   H8R18613   6.261   1.303   9.092  0.7920 -0.7093 -0.7702
  155DOPC   H8S18614   6.206   1.193   9.222  0.9225 -0.8356  0.2943
  155DOPC   C2918615   6.209   1.105   9.022  0.7874 -0.3913 -0.1648
  155DOPC   H9R18616   6.263   1.011   9.009  0.9340 -0.5706  1.4978
  155DOPC  C21018617   6.112   1.125   8.934  0.1874 -0.4740  0.2503
  155DOPC  H10R18618   6.083   1.046   8.864 -4.6345 -0.4309  1.7884
  155DOPC  C21118619   6.040   1.256   8.915 -0.3722 -0.3481  0.2103
  155DOPC  H11R18620   6.029   1.292   9.019 -4.9022 -1.3146  0.2925
  155DOPC  H11S18621   5.938   1.241   8.873 -0.4349  0.8828 -0.1321
  155DOPC  C21218622   6.115   1.364   8.835  0.3474 -0.0440 -0.0587
  155DOPC  H12R18623   6.220   1.379   8.868  0.8342 -0.6001 -1.2999
  155DOPC  H12S18624   6.067   1.461   8.856 -0.3994 -0.8528  2.2784
  155DOPC  C21318625   6.117   1.324   8.678  0.4175  0.3241 -0.6025
  155DOPC  H13R18626   6.016   1.280   8.659 -0.5126  1.6735  0.9182
  155DOPC  H13S18627   6.202   1.254   8.661  0.7371  0.8903 -1.3813
  155DOPC  C21418628   6.138   1.453   8.590  0.7833 -0.3113 -1.1529
  155DOPC  H14R18629   6.185   1.536   8.648  1.3912  0.0864 -2.1912
  155DOPC  H14S18630   6.031   1.478   8.575  0.0507 -2.1297  0.5749
  155DOPC  C21518631   6.219   1.433   8.465  0.1344  0.3852  0.0328
  155DOPC  H15R18632   6.187   1.337   8.421 -1.1438 -0.8072  3.2544
  155DOPC  H15S18633   6.328   1.423   8.482  0.4877 -0.4747 -2.4069
  155DOPC  C21618634   6.184   1.557   8.377 -0.0001 -1.0882 -0.7096
  155DOPC  H16R18635   6.077   1.579   8.396  0.3247  0.6105 -0.6844
  155DOPC  H16S18636   6.187   1.531   8.269 -2.4067  1.1552 -1.4231
  155DOPC  C21718637   6.274   1.682   8.375 -0.0026  0.3553 -0.5650
  155DOPC  H17R18638   6.379   1.648   8.368 -0.1301  0.3087 -3.6722
  155DOPC  H17S18639   6.261   1.742   8.468  0.1101 -2.2019  1.1854
  155DOPC  C21818640   6.254   1.779   8.254 -0.3638  0.0035  0.3273
  155DOPC  H18R18641   6.263   1.725   8.157 -1.3214  0.3547  0.0307
  155DOPC  H18S18642   6.334   1.854   8.241 -1.4557  0.9231 -1.6382
  155DOPC  H18T18643   6.151   1.821   8.257 -0.2599  0.3288 -0.4774
  155DOPC   C3318644   7.419   0.963   9.245 -0.0752 -0.1145 -0.2028
  155DOPC   H3X18645   7.461   1.044   9.307  0.4460  1.9663 -3.0807
  155DOPC   H3Y18646   7.427   1.002   9.142  1.1144 -0.7198 -0.3569
  155DOPC   C3418647   7.490   0.830   9.245 -0.4609  0.3972 -0.2883
  155DOPC   H4X18648   7.444   0.764   9.323 -1.8592  0.8933 -0.6674
  155DOPC   H4Y18649   7.595   0.846   9.278 -0.5102  1.7566 -0.7364
  155DOPC   C3518650   7.500   0.752   9.113  0.1239 -0.5639 -0.0263
  155DOPC   H5X18651   7.398   0.719   9.083 -0.1103  3.2308 -4.4520
  155DOPC   H5Y18652   7.571   0.666   9.117  0.3674 -0.5500 -2.4636
  155DOPC   C3618653   7.540   0.828   8.989 -0.6193  0.4867  0.5481
  155DOPC   H6X18654   7.454   0.893   8.961  0.0089  0.5332 -1.4556
  155DOPC   H6Y18655   7.628   0.892   9.009 -1.4486  2.1650 -0.9251
  155DOPC   C3718656   7.558   0.737   8.862  0.4897  0.3323  0.1980
  155DOPC   H7X18657   7.664   0.712   8.843  0.3575 -1.1143  1.2211
  155DOPC   H7Y18658   7.509   0.638   8.877 -1.7931  1.7976  3.6371
  155DOPC   C3818659   7.497   0.807   8.733 -0.6965  0.6129  0.1554
  155DOPC   H8X18660   7.387   0.810   8.743 -0.7704 -0.3435 -0.2735
  155DOPC   H8Y18661   7.529   0.738   8.652 -0.3806  1.2104 -0.2394
  155DOPC   C3918662   7.568   0.944   8.730 -0.1936 -0.7449 -0.0894
  155DOPC   H9X18663   7.515   1.016   8.794  0.5884 -0.5691  0.3692
  155DOPC  C31018664   7.678   0.962   8.657  0.0434 -0.2962  0.3624
  155DOPC  H10X18665   7.710   1.066   8.642  1.4177 -0.9617 -1.8570
  155DOPC  C31118666   7.759   0.858   8.575  0.5654  0.1675 -0.2157
  155DOPC  H11X18667   7.693   0.773   8.547  1.5189 -1.1625  1.3286
  155DOPC  H11Y18668   7.840   0.804   8.628 -1.6464 -1.3821  1.7983
  155DOPC  C31218669   7.834   0.906   8.444  0.0462  0.4499  0.2329
  155DOPC  H12X18670   7.760   0.949   8.373 -3.1076 -0.0018  3.0324
  155DOPC  H12Y18671   7.883   0.821   8.391  3.2604  1.6727  0.9926
  155DOPC  C31318672   7.939   1.011   8.483  0.2377 -0.3467  0.0389
  155DOPC  H13X18673   7.882   1.104   8.505 -1.0165 -1.1989  0.4880
  155DOPC  H13Y18674   7.979   0.977   8.581 -0.2918 -2.3397 -0.4006
  155DOPC  C31418675   8.035   1.038   8.371  0.5546 -0.0890  0.1218
  155DOPC  H14X18676   8.084   0.943   8.342  0.1055 -0.0391 -0.8395
  155DOPC  H14Y18677   7.980   1.080   8.284 -2.1680 -1.0890  1.2612
  155DOPC  C31518678   8.158   1.131   8.398 -0.0172 -0.1827 -0.2369
  155DOPC  H15X18679   8.231   1.089   8.470 -0.7118  0.8426  1.1140
  155DOPC  H15Y18680   8.114   1.228   8.430 -0.8745 -0.1815 -1.3851
  155DOPC  C31618681   8.243   1.148   8.264 -0.4413 -0.1134 -0.3152
  155DOPC  H16X18682   8.345   1.180   8.293 -0.2110 -1.0580 -0.0399
  155DOPC  H16Y18683   8.249   1.043   8.227 -0.1689  0.0630 -0.7794
  155DOPC  C31718684   8.187   1.248   8.158 -0.2117 -0.3222  0.0443
  155DOPC  H17X18685   8.078   1.227   8.152 -0.0657 -0.7670 -1.3068
  155DOPC  H17Y18686   8.200   1.352   8.195 -0.1561 -1.0910  2.3392
  155DOPC  C31818687   8.252   1.233   8.025  0.3925 -0.2581  0.4104
  155DOPC  H18X18688   8.187   1.254   7.938  0.7350 -0.3835  0.1200
  155DOPC  H18Y18689   8.346   1.292   8.032  1.9895 -2.4674 -0.8561
  155DOPC  H18Z18690   8.277   1.126   8.005  0.1750 -0.2447  0.0786
  156DOPC     N18691   5.082   4.073  10.793 -0.7423  0.0346  0.2628
  156DOPC   C1218692   5.045   4.142  10.662 -1.2424 -0.2700  0.0568
  156DOPC  H12A18693   5.138   4.157  10.608 -0.1278  2.8107  2.5321
  156DOPC  H12B18694   5.012   4.243  10.679 -0.9630 -0.3238  0.9957
  156DOPC   C1318695   4.973   4.055  10.888  0.7503 -0.2323 -0.7067
  156DOPC  H13A18696   4.947   4.146  10.940  2.6340 -0.8866  1.5742
  156DOPC  H13B18697   4.889   4.021  10.829 -0.6590  2.1863 -0.2411
  156DOPC  H13C18698   4.992   3.975  10.958 -0.1742 -1.4650 -1.8161
  156DOPC   C1418699   5.182   4.158  10.855 -0.7187 -0.2759 -0.3006
  156DOPC  H14A18700   5.147   4.259  10.873 -1.1603 -0.8058  2.1404
  156DOPC  H14B18701   5.220   4.124  10.950  0.6119 -0.4163 -0.8614
  156DOPC  H14C18702   5.273   4.173  10.799 -0.3397 -0.8681  0.1418
  156DOPC   C1518703   5.153   3.938  10.773  0.1152  0.1277 -0.5433
  156DOPC  H15A18704   5.185   3.903  10.870  0.9334  0.8175 -0.5474
  156DOPC  H15B18705   5.239   3.945  10.707 -0.7741 -0.5221 -1.8066
  156DOPC  H15C18706   5.076   3.871  10.741 -0.5468  0.3331  0.5733
  156DOPC   C1118707   4.944   4.074  10.571  0.0369  0.8384  0.8916
  156DOPC  H11A18708   4.928   4.131  10.477 -1.8155  0.7826  1.1371
  156DOPC  H11B18709   4.982   3.976  10.534  0.9968  0.4682  2.6968
  156DOPC     P18710   4.697   4.133  10.599 -0.1113 -0.6579 -0.1895
  156DOPC   O1318711   4.711   4.277  10.643 -0.0327  0.4399  0.0711
  156DOPC   O1418712   4.581   4.060  10.652  0.1807  0.4584 -0.3711
  156DOPC   O1218713   4.817   4.051  10.635 -0.4631  0.2974  0.0073
  156DOPC   O1118714   4.691   4.128  10.443  0.3235  0.3114 -0.3022
  156DOPC    C118715   4.673   4.010  10.367  0.4037 -0.1706 -0.2994
  156DOPC    HA18716   4.571   3.971  10.388 -0.6398  2.6333  0.3379
  156DOPC    HB18717   4.752   3.934  10.383 -0.0925 -0.5473  0.3957
  156DOPC    C218718   4.672   4.041  10.220 -0.5143  0.0032 -0.9690
  156DOPC    HS18719   4.653   3.945  10.167 -0.0280 -0.2992 -0.6014
  156DOPC   O2118720   4.801   4.094  10.181  0.2459  0.5557 -0.0560
  156DOPC   C2118721   4.899   4.007  10.185 -0.7011  0.7246  0.4552
  156DOPC   O2218722   4.888   3.886  10.207 -0.1269 -0.0041  0.1327
  156DOPC   C2218723   5.034   4.076  10.172 -0.5767  0.6568 -0.0073
  156DOPC   H2R18724   5.101   4.047  10.255  1.2821  2.2931 -0.8617
  156DOPC   H2S18725   5.031   4.187  10.177  0.6831  0.7220 -0.3434
  156DOPC    C318726   4.564   4.144  10.181  0.3218  0.4196  0.5646
  156DOPC    HX18727   4.588   4.226  10.251 -0.3179  1.6604 -0.6320
  156DOPC    HY18728   4.460   4.112  10.205 -0.3026  0.7372 -1.5098
  156DOPC   O3118729   4.563   4.177  10.037 -0.5550 -0.0888 -0.5115
  156DOPC   C3118730   4.634   4.290  10.015  0.5193  0.3565  0.2898
  156DOPC   O3218731   4.691   4.358  10.098  0.0435  0.1038  0.6793
  156DOPC   C3218732   4.632   4.303   9.857  0.7956 -0.0366 -0.9537
  156DOPC   H2X18733   4.536   4.355   9.837  0.1873 -0.9303 -0.4187
  156DOPC   H2Y18734   4.717   4.369   9.827 -0.3001  2.3329  0.8572
  156DOPC   C2318735   5.096   4.047  10.038 -0.2954 -0.3963  0.2370
  156DOPC   H3R18736   5.172   4.126  10.022 -2.3663  1.8454  0.9446
  156DOPC   H3S18737   5.034   4.055   9.946 -0.0848 -0.5187  0.0843
  156DOPC   C2418738   5.168   3.910  10.023 -0.0721 -0.0307 -0.6332
  156DOPC   H4R18739   5.087   3.834  10.016  0.0380 -0.2653  0.4728
  156DOPC   H4S18740   5.223   3.901  10.119 -0.5296 -1.8451 -0.4968
  156DOPC   C2518741   5.256   3.915   9.893  0.3752 -0.9300 -0.6229
  156DOPC   H5R18742   5.322   4.002   9.915 -2.7454  0.9274  2.4195
  156DOPC   H5S18743   5.185   3.950   9.816  2.0673  0.3359 -1.6965
  156DOPC   C2618744   5.326   3.786   9.856 -0.4649  0.5531 -0.0055
  156DOPC   H6R18745   5.263   3.695   9.868 -1.6329  1.4413  0.8488
  156DOPC   H6S18746   5.407   3.764   9.928  0.2455 -3.4098 -1.7500
  156DOPC   C2718747   5.389   3.799   9.720  0.1684 -0.7117 -0.1250
  156DOPC   H7R18748   5.443   3.895   9.707  0.7755 -1.2018 -1.4882
  156DOPC   H7S18749   5.312   3.813   9.640  1.7531  1.8130 -1.3499
  156DOPC   C2818750   5.498   3.692   9.690  0.3940 -0.0835 -0.5793
  156DOPC   H8R18751   5.575   3.704   9.769  1.5914 -0.2891 -1.6856
  156DOPC   H8S18752   5.549   3.719   9.595 -0.6965 -0.3948 -1.2671
  156DOPC   C2918753   5.447   3.549   9.702  0.1937  0.0961  0.2055
  156DOPC   H9R18754   5.426   3.515   9.805 -0.9704 -1.7764 -0.6088
  156DOPC  C21018755   5.418   3.463   9.604 -0.0246  0.8391 -0.3464
  156DOPC  H10R18756   5.368   3.368   9.631  0.5046  0.9651  1.1165
  156DOPC  C21118757   5.424   3.480   9.458  0.1612  0.3910  0.0534
  156DOPC  H11R18758   5.502   3.416   9.412 -0.9181 -0.1907 -1.0403
  156DOPC  H11S18759   5.436   3.588   9.433  0.9843 -0.1282 -2.0311
  156DOPC  C21218760   5.302   3.443   9.379 -0.3046 -0.8166 -0.6112
  156DOPC  H12R18761   5.218   3.495   9.430 -0.3294 -2.7868  1.5542
  156DOPC  H12S18762   5.281   3.334   9.380  0.2249 -0.9308  0.7937
  156DOPC  C21318763   5.313   3.492   9.231  0.8504 -0.3743 -0.1414
  156DOPC  H13R18764   5.348   3.597   9.240 -2.8652  1.0115  0.0078
  156DOPC  H13S18765   5.215   3.488   9.179  0.9465 -1.6190 -0.2379
  156DOPC  C21418766   5.416   3.409   9.153  0.1507  0.2933  0.4183
  156DOPC  H14R18767   5.401   3.300   9.173  0.7051 -0.2510 -1.8040
  156DOPC  H14S18768   5.519   3.441   9.178  0.1736  1.8442 -1.4200
  156DOPC  C21518769   5.395   3.421   9.004  0.8272  0.3035 -0.0239
  156DOPC  H15R18770   5.403   3.529   8.983  3.5178 -0.3001 -2.8452
  156DOPC  H15S18771   5.293   3.390   8.970  1.1033  0.6081 -1.2017
  156DOPC  C21618772   5.504   3.359   8.914  0.5051 -0.5847  0.1918
  156DOPC  H16R18773   5.605   3.349   8.959  0.9410  0.6811 -0.4623
  156DOPC  H16S18774   5.525   3.427   8.829  0.3305  0.3969  0.9171
  156DOPC  C21718775   5.463   3.226   8.851  0.0492 -0.2805 -0.3341
  156DOPC  H17R18776   5.402   3.170   8.925  0.6640  0.1170  0.4967
  156DOPC  H17S18777   5.543   3.150   8.832 -0.9700 -1.5667  0.3693
  156DOPC  C21818778   5.379   3.242   8.723  0.4680  0.6613  0.2037
  156DOPC  H18R18779   5.294   3.313   8.717  1.0846  1.4440  0.5924
  156DOPC  H18S18780   5.344   3.143   8.686  1.4735 -0.8438  2.9850
  156DOPC  H18T18781   5.447   3.278   8.643 -0.9351 -0.0553 -1.3873
  156DOPC   C3318782   4.641   4.173   9.776 -0.2411 -0.0945  0.2708
  156DOPC   H3X18783   4.557   4.104   9.798  0.0832 -0.7158 -0.4047
  156DOPC   H3Y18784   4.734   4.117   9.799 -0.0069 -0.2686 -1.0306
  156DOPC   C3418785   4.634   4.199   9.621 -0.2916  0.2138 -0.0757
  156DOPC   H4X18786   4.713   4.269   9.585 -0.8015  2.3001  2.5277
  156DOPC   H4Y18787   4.539   4.249   9.592 -0.5965 -0.3225 -0.0039
  156DOPC   C3518788   4.637   4.056   9.559 -0.0230 -0.7301 -0.0358
  156DOPC   H5X18789   4.539   4.018   9.597 -0.4977  0.3578 -0.1605
  156DOPC   H5Y18790   4.713   3.996   9.614 -1.7505  0.2337  3.7552
  156DOPC   C3618791   4.652   4.062   9.405  0.9069  0.5557  0.3128
  156DOPC   H6X18792   4.700   4.159   9.382 -1.4713  1.8738  0.6238
  156DOPC   H6Y18793   4.701   3.965   9.381  0.5559  0.4101  0.1796
  156DOPC   C3718794   4.523   4.092   9.328 -0.6471  0.0648  0.5499
  156DOPC   H7X18795   4.452   4.008   9.325 -1.7602  0.9977 -0.0404
  156DOPC   H7Y18796   4.471   4.175   9.382 -0.0898 -1.3824  3.5579
  156DOPC   C3818797   4.546   4.133   9.180 -0.1644  0.2604 -0.6138
  156DOPC   H8X18798   4.584   4.044   9.125  0.1546  0.4847 -0.7596
  156DOPC   H8Y18799   4.623   4.212   9.166 -1.9083  2.0864 -0.4395
  156DOPC   C3918800   4.422   4.177   9.108  0.1600  0.0880  0.0521
  156DOPC   H9X18801   4.330   4.186   9.168 -0.1665  1.4122 -0.6249
  156DOPC  C31018802   4.418   4.196   8.972  0.2384 -0.5004  0.3157
  156DOPC  H10X18803   4.324   4.230   8.924  1.8026  1.0890 -1.8654
  156DOPC  C31118804   4.542   4.193   8.887  0.1047 -0.1709  0.2111
  156DOPC  H11X18805   4.628   4.142   8.936 -1.7041 -2.1852  1.4941
  156DOPC  H11Y18806   4.581   4.294   8.864  0.2643  0.3826  2.6374
  156DOPC  C31218807   4.516   4.101   8.768  0.1159  0.0630  0.1186
  156DOPC  H12X18808   4.484   3.998   8.791  0.9207 -0.5831 -1.4974
  156DOPC  H12Y18809   4.610   4.094   8.708 -1.7071 -1.3918 -2.7991
  156DOPC  C31318810   4.416   4.165   8.674  0.2419  0.0103 -0.0064
  156DOPC  H13X18811   4.316   4.165   8.723 -1.2806 -2.7967 -2.7118
  156DOPC  H13Y18812   4.426   4.275   8.661 -0.6633  0.0893 -0.1189
  156DOPC  C31418813   4.398   4.099   8.540  0.1235 -0.1307  0.2703
  156DOPC  H14X18814   4.379   3.989   8.548 -1.7784  0.2462  1.7830
  156DOPC  H14Y18815   4.309   4.141   8.489 -0.0179  0.3579  0.9108
  156DOPC  C31518816   4.519   4.114   8.447  0.1321  0.3055 -0.5135
  156DOPC  H15X18817   4.490   4.048   8.362 -0.1678 -0.9056  0.5041
  156DOPC  H15Y18818   4.604   4.066   8.500 -0.2472  1.6860  1.4551
  156DOPC  C31618819   4.532   4.260   8.405 -0.2025  0.2955  0.2884
  156DOPC  H16X18820   4.441   4.284   8.345 -0.7650 -0.7719  0.6873
  156DOPC  H16Y18821   4.517   4.333   8.487 -1.9450  1.7950 -1.2617
  156DOPC  C31718822   4.646   4.289   8.309  0.0727 -0.4777 -0.0512
  156DOPC  H17X18823   4.741   4.312   8.362 -0.2297  0.6762  0.0096
  156DOPC  H17Y18824   4.660   4.212   8.230  2.3157 -0.3179  0.1260
  156DOPC  C31818825   4.617   4.409   8.214  0.4286  0.2135 -0.2178
  156DOPC  H18X18826   4.533   4.383   8.146  0.5093 -0.0562 -0.2150
  156DOPC  H18Y18827   4.587   4.495   8.278  1.3187 -0.3233  0.9585
  156DOPC  H18Z18828   4.703   4.445   8.154 -0.5623  2.2688 -0.5020
  157DOPC     N18829   3.672   0.542  10.862 -0.0348  0.1104  0.0944
  157DOPC   C1218830   3.727   0.460  10.744  0.1754  0.3301 -0.4393
  157DOPC  H12A18831   3.730   0.356  10.774  0.6365 -0.0230 -1.6441
  157DOPC  H12B18832   3.827   0.485  10.712  1.5674  1.1373  3.9042
  157DOPC   C1318833   3.656   0.685  10.835 -0.8044 -0.5561  0.6939
  157DOPC  H13A18834   3.744   0.740  10.806 -0.7360 -2.3942 -3.3374
  157DOPC  H13B18835   3.586   0.693  10.753  0.0567 -0.9864 -0.0907
  157DOPC  H13C18836   3.610   0.736  10.918  1.2860 -0.9799  2.1866
  157DOPC   C1418837   3.753   0.523  10.989 -0.1834  1.0035 -0.1665
  157DOPC  H14A18838   3.765   0.417  11.007  0.0509  0.8841 -0.9990
  157DOPC  H14B18839   3.847   0.575  10.974  0.3687  0.9612  2.6041
  157DOPC  H14C18840   3.704   0.570  11.073  0.7311  0.1451  0.8910
  157DOPC   C1518841   3.531   0.492  10.906 -1.3405 -0.1941  0.4439
  157DOPC  H15A18842   3.502   0.530  11.003 -0.2313  0.9426  0.3554
  157DOPC  H15B18843   3.536   0.384  10.911 -1.1597 -0.1445  1.4227
  157DOPC  H15C18844   3.457   0.506  10.829  0.3149 -2.4057 -1.7320
  157DOPC   C1118845   3.637   0.438  10.623 -0.3303  0.1414  0.6901
  157DOPC  H11A18846   3.701   0.373  10.560 -0.1121  0.3229  0.7223
  157DOPC  H11B18847   3.544   0.382  10.651 -1.2902  1.9768  1.3590
  157DOPC     P18848   3.649   0.610  10.439  0.2931  0.2324 -0.4002
  157DOPC   O1318849   3.796   0.603  10.449  0.5428 -0.0125  0.4042
  157DOPC   O1418850   3.589   0.743  10.410 -0.0948  0.3226  0.2516
  157DOPC   O1218851   3.588   0.556  10.570  0.0831 -0.0543 -0.3591
  157DOPC   O1118852   3.603   0.500  10.336  0.2071  0.2179  0.4072
  157DOPC    C118853   3.470   0.443  10.343  0.2910 -0.1014  0.5642
  157DOPC    HA18854   3.413   0.472  10.252 -0.3025 -1.3286  0.5288
  157DOPC    HB18855   3.414   0.473  10.434  0.8061  0.2128  0.7821
  157DOPC    C218856   3.470   0.292  10.331 -0.2244 -0.0581  0.6631
  157DOPC    HS18857   3.506   0.254  10.429  1.7660  2.3954  0.9851
  157DOPC   O2118858   3.561   0.248  10.227 -0.3081  0.5659  0.2062
  157DOPC   C2118859   3.587   0.119  10.225 -0.2634 -0.2309  0.7019
  157DOPC   O2218860   3.551   0.041  10.313 -0.5609  0.7280 -0.1024
  157DOPC   C2218861   3.648   0.067  10.098 -0.5526  0.8711 -0.6148
  157DOPC   H2R18862   3.606  -0.033  10.073 -3.1035  2.1838 -2.0021
  157DOPC   H2S18863   3.757   0.057  10.117 -0.6892  0.7627  0.1346
  157DOPC    C318864   3.323   0.238  10.298  0.6078  0.1235 -0.6136
  157DOPC    HX18865   3.254   0.267  10.381  1.2829  1.6217 -0.5286
  157DOPC    HY18866   3.323   0.128  10.291 -1.6848  0.1209 -1.2286
  157DOPC   O3118867   3.270   0.291  10.173  0.0371  0.1340  0.9482
  157DOPC   C3118868   3.290   0.223  10.059 -0.5315 -0.8291  0.4741
  157DOPC   O3218869   3.320   0.104  10.057 -0.0546 -0.0038 -0.4357
  157DOPC   C3218870   3.272   0.310   9.940 -0.6064 -0.0954  0.2736
  157DOPC   H2X18871   3.220   0.405   9.962  2.2170  1.6084  0.1345
  157DOPC   H2Y18872   3.367   0.336   9.888 -0.7505 -0.4581 -0.1717
  157DOPC   C2318873   3.620   0.159   9.980 -0.3469 -0.1000  0.5996
  157DOPC   H3R18874   3.674   0.254  10.003  1.6908 -0.6618 -1.5100
  157DOPC   H3S18875   3.517   0.189   9.952  0.3192  0.9213 -0.8464
  157DOPC   C2418876   3.686   0.111   9.849 -0.1826 -0.7408  1.0003
  157DOPC   H4R18877   3.648   0.012   9.814  1.6097 -0.8278 -0.9444
  157DOPC   H4S18878   3.792   0.086   9.870  0.1301 -0.3940 -0.0978
  157DOPC   C2518879   3.690   0.208   9.731  0.3600 -0.2003  0.0185
  157DOPC   H5R18880   3.758   0.294   9.751 -0.3057  0.1614  0.7888
  157DOPC   H5S18881   3.589   0.254   9.732 -0.1989 -1.3610 -1.3946
  157DOPC   C2618882   3.733   0.153   9.599 -0.1901  0.4771 -0.4721
  157DOPC   H6R18883   3.658   0.079   9.564 -0.1537  0.7802 -1.2056
  157DOPC   H6S18884   3.828   0.100   9.619 -0.5809 -1.0666 -2.3871
  157DOPC   C2718885   3.744   0.244   9.477 -0.6792 -0.3019  0.3171
  157DOPC   H7R18886   3.787   0.187   9.392 -1.9063  0.5933 -0.9422
  157DOPC   H7S18887   3.818   0.323   9.502 -0.2830 -0.7103  0.4499
  157DOPC   C2818888   3.608   0.293   9.417  0.2369  0.1777 -0.4101
  157DOPC   H8R18889   3.533   0.212   9.425 -0.2652  0.7947  1.8237
  157DOPC   H8S18890   3.633   0.305   9.309  3.2780  3.5955  0.4633
  157DOPC   C2918891   3.567   0.424   9.475 -0.1234 -0.7379  0.6405
  157DOPC   H9R18892   3.625   0.471   9.555 -0.7142  1.4381 -0.1313
  157DOPC  C21018893   3.458   0.496   9.437 -0.9448  0.7456 -0.2602
  157DOPC  H10R18894   3.428   0.585   9.494  0.2093  0.4222  0.8916
  157DOPC  C21118895   3.359   0.455   9.326 -0.1218 -0.3747  0.6107
  157DOPC  H11R18896   3.266   0.514   9.340 -0.6820 -0.6476 -1.6035
  157DOPC  H11S18897   3.331   0.348   9.329  1.9489 -1.1096 -2.2598
  157DOPC  C21218898   3.412   0.491   9.186 -0.3497 -0.4856 -0.6349
  157DOPC  H12R18899   3.512   0.450   9.160 -0.9753 -1.1405 -2.0995
  157DOPC  H12S18900   3.431   0.601   9.190 -1.5742 -0.2867  0.4286
  157DOPC  C21318901   3.314   0.457   9.071 -0.5954 -0.4306 -0.4618
  157DOPC  H13R18902   3.208   0.443   9.101 -1.1195  2.1705 -0.8717
  157DOPC  H13S18903   3.347   0.359   9.031  0.0187 -0.5420  0.2951
  157DOPC  C21418904   3.306   0.560   8.967 -0.1619 -0.5064 -0.1871
  157DOPC  H14R18905   3.401   0.612   8.941  0.0823  0.3059  2.0866
  157DOPC  H14S18906   3.240   0.639   9.009  0.6904  0.0695  0.0950
  157DOPC  C21518907   3.271   0.502   8.827  0.4077  0.2217  0.3247
  157DOPC  H15R18908   3.175   0.448   8.811  0.6040  0.2911 -1.3157
  157DOPC  H15S18909   3.349   0.428   8.800  1.2701  0.8096  1.1327
  157DOPC  C21618910   3.307   0.611   8.720  0.0382 -0.3963  0.5967
  157DOPC  H16R18911   3.409   0.652   8.735  0.0636  0.0323 -0.6280
  157DOPC  H16S18912   3.224   0.684   8.736 -1.2933 -1.6458 -0.3803
  157DOPC  C21718913   3.295   0.559   8.580 -0.3545 -0.3751  0.5772
  157DOPC  H17R18914   3.191   0.520   8.581 -0.3505 -0.4241  2.0210
  157DOPC  H17S18915   3.373   0.482   8.563 -1.4065 -1.2671 -0.3876
  157DOPC  C21818916   3.292   0.661   8.461 -0.4598  0.8901  0.1772
  157DOPC  H18R18917   3.377   0.733   8.464 -0.9745  1.5513 -0.5631
  157DOPC  H18S18918   3.204   0.730   8.462 -0.2825  1.1830 -1.6198
  157DOPC  H18T18919   3.303   0.619   8.359  3.5605  1.0066  0.4227
  157DOPC   C3318920   3.174   0.247   9.838  0.8246  0.0332  0.2330
  157DOPC   H3X18921   3.071   0.229   9.877  1.4728 -0.0375  2.0209
  157DOPC   H3Y18922   3.224   0.151   9.812  1.8172  0.4931  0.3754
  157DOPC   C3418923   3.167   0.329   9.704 -0.0773 -0.6206  0.0641
  157DOPC   H4X18924   3.266   0.352   9.660 -0.8723  0.8647 -1.0245
  157DOPC   H4Y18925   3.130   0.430   9.730  3.9163  1.0929 -0.1566
  157DOPC   C3518926   3.075   0.264   9.604  0.1912 -0.1317  0.5195
  157DOPC   H5X18927   2.977   0.257   9.656  0.3165  0.3619  0.8374
  157DOPC   H5Y18928   3.102   0.163   9.567 -1.3520 -0.3403 -0.1071
  157DOPC   C3618929   3.045   0.350   9.481  0.2668  0.5729  0.5479
  157DOPC   H6X18930   3.013   0.446   9.527 -4.3345 -0.2377 -0.4842
  157DOPC   H6Y18931   3.138   0.369   9.422 -0.0266  0.2250 -0.0307
  157DOPC   C3718932   2.928   0.283   9.399 -0.2874 -0.5688 -0.5296
  157DOPC   H7X18933   2.940   0.173   9.405  0.7052 -0.4202  0.7871
  157DOPC   H7Y18934   2.833   0.304   9.453  1.6017 -0.6610  3.1872
  157DOPC   C3818935   2.925   0.329   9.258  0.2451  0.0278  0.1270
  157DOPC   H8X18936   3.019   0.294   9.210 -0.4695  1.3513 -2.3924
  157DOPC   H8Y18937   2.930   0.440   9.259 -0.0729  0.0441 -0.1413
  157DOPC   C3918938   2.821   0.268   9.168 -0.0777  0.5351 -0.1773
  157DOPC   H9X18939   2.720   0.308   9.184  0.9386  2.4779  1.8291
  157DOPC  C31018940   2.837   0.190   9.059 -0.5317  0.1075  0.3819
  157DOPC  H10X18941   2.747   0.148   9.012 -0.2251 -0.3548  0.1875
  157DOPC  C31118942   2.971   0.143   9.004  0.0237  0.1204 -0.1322
  157DOPC  H11X18943   2.983   0.048   9.061  0.1960  0.0905 -0.2194
  157DOPC  H11Y18944   3.052   0.212   9.035  0.4167  0.1265 -1.1292
  157DOPC  C31218945   2.961   0.117   8.852 -0.4484  0.1190  0.7809
  157DOPC  H12X18946   2.943   0.209   8.793 -0.6209 -0.6772 -0.4619
  157DOPC  H12Y18947   2.885   0.042   8.821 -1.2660  1.1703  0.1874
  157DOPC  C31318948   3.101   0.062   8.805 -1.0891  0.1899 -0.2206
  157DOPC  H13X18949   3.188   0.110   8.855  0.2261 -2.8720  0.6708
  157DOPC  H13Y18950   3.095  -0.048   8.819 -2.0921  0.3010  0.3272
  157DOPC  C31418951   3.142   0.070   8.656  0.2291  0.9797  0.1104
  157DOPC  H14X18952   3.048   0.035   8.607  1.3440  0.0107 -1.4127
  157DOPC  H14Y18953   3.157   0.177   8.628 -2.0175  1.5596  0.8923
  157DOPC  C31518954   3.243  -0.033   8.605 -0.9331 -0.2897 -0.1993
  157DOPC  H15X18955   3.220  -0.138   8.636 -1.4807 -1.1290 -3.1464
  157DOPC  H15Y18956   3.343  -0.013   8.649 -1.2446  0.7880  0.0485
  157DOPC  C31618957   3.276  -0.020   8.455 -0.5522 -0.9977  0.1698
  157DOPC  H16X18958   3.357  -0.088   8.421 -0.1495  1.2555 -4.1520
  157DOPC  H16Y18959   3.184  -0.024   8.392  0.1638  3.2576 -1.5164
  157DOPC  C31718960   3.334   0.117   8.408 -0.4476  0.3023 -0.5132
  157DOPC  H17X18961   3.326   0.116   8.298 -0.2853 -2.0291 -0.5641
  157DOPC  H17Y18962   3.269   0.197   8.450 -0.9709 -0.8438  0.9649
  157DOPC  C31818963   3.474   0.155   8.453  0.2728  0.4334 -0.3448
  157DOPC  H18X18964   3.481   0.151   8.564 -1.6323  0.0002 -0.2073
  157DOPC  H18Y18965   3.544   0.087   8.399 -1.4003 -0.1207 -1.8990
  157DOPC  H18Z18966   3.509   0.254   8.417  0.8403  1.2746  2.2900
  158DOPC     N18967   3.577   5.579  10.631  0.0532  0.7203  0.6512
  158DOPC   C1218968   3.570   5.502  10.496 -0.7003 -0.2586 -0.8499
  158DOPC  H12A18969   3.661   5.510  10.437 -0.2810  1.1379 -0.0657
  158DOPC  H12B18970   3.501   5.555  10.432  0.8134  1.5318 -1.0918
  158DOPC   C1318971   3.451   5.564  10.703 -0.1207 -0.1767  0.7248
  158DOPC  H13A18972   3.384   5.637  10.660  1.7263  1.5810  0.6912
  158DOPC  H13B18973   3.403   5.467  10.693  0.7551 -0.8689  2.6515
  158DOPC  H13C18974   3.461   5.580  10.809 -0.6384 -1.1731  0.9470
  158DOPC   C1418975   3.608   5.721  10.606  0.4684 -0.4197 -0.4219
  158DOPC  H14A18976   3.683   5.726  10.528  0.1328 -0.5835 -0.7591
  158DOPC  H14B18977   3.521   5.773  10.567 -0.6506 -1.6607  0.3486
  158DOPC  H14C18978   3.647   5.774  10.692  2.0171 -1.7015 -0.2909
  158DOPC   C1518979   3.683   5.514  10.722  0.2405 -0.0255  0.7082
  158DOPC  H15A18980   3.778   5.495  10.674  1.2219  0.8814  2.1791
  158DOPC  H15B18981   3.653   5.418  10.761  1.5285  0.2995  2.6694
  158DOPC  H15C18982   3.695   5.581  10.806 -1.5598  0.6775  0.4560
  158DOPC   C1118983   3.510   5.360  10.493 -0.6989 -0.1712  0.0225
  158DOPC  H11A18984   3.560   5.298  10.415  0.2022  0.7554 -0.1457
  158DOPC  H11B18985   3.534   5.306  10.587  0.2681 -0.2711 -0.2712
  158DOPC     P18986   3.304   5.414  10.334  0.2502 -0.2644  0.2882
  158DOPC   O1318987   3.311   5.562  10.332 -0.5535 -0.5060  0.3796
  158DOPC   O1418988   3.165   5.363  10.311  0.0947 -0.3027  0.8861
  158DOPC   O1218989   3.371   5.357  10.473  0.4749  0.1981 -0.3277
  158DOPC   O1118990   3.399   5.344  10.230 -0.3357  0.0553  0.0636
  158DOPC    C118991   3.399   5.197  10.212  0.2353 -0.7799 -0.2408
  158DOPC    HA18992   3.332   5.152  10.288  0.0823  2.4079  1.6965
  158DOPC    HB18993   3.496   5.146  10.235  0.1208 -0.3400  1.3648
  158DOPC    C218994   3.335   5.141  10.082 -0.7310  0.0937 -0.5167
  158DOPC    HS18995   3.327   5.030  10.087 -3.3177  0.2593  1.6320
  158DOPC   O2118996   3.427   5.174   9.975 -0.1224 -0.2632  0.6076
  158DOPC   C2118997   3.477   5.069   9.907  0.6412  0.0007 -0.2552
  158DOPC   O2218998   3.480   4.952   9.936 -0.1717 -0.1807 -0.2976
  158DOPC   C2218999   3.559   5.134   9.791  0.7169  0.0028 -0.3246
  158DOPC   H2R19000   3.668   5.145   9.809  0.7374 -1.2304  0.4285
  158DOPC   H2S19001   3.528   5.236   9.761 -0.2771 -0.3515 -0.5252
  158DOPC    C319002   3.192   5.192  10.051 -0.2151  0.1762 -0.4408
  158DOPC    HX19003   3.206   5.301  10.042 -0.0591  0.1969  0.0144
  158DOPC    HY19004   3.130   5.153  10.134 -1.0855  1.3726 -0.5094
  158DOPC   O3119005   3.151   5.138   9.926 -0.8014  0.6359  0.3125
  158DOPC   C3119006   3.024   5.146   9.905  0.4823  0.5723  0.4752
  158DOPC   O3219007   2.934   5.194   9.977 -0.2953  0.0258 -0.8991
  158DOPC   C3219008   2.990   5.089   9.768  1.0150  0.3790  0.1664
  158DOPC   H2X19009   2.891   5.137   9.753  1.0610  1.4409  2.7056
  158DOPC   H2Y19010   3.061   5.125   9.690  0.7969  1.3727  0.4054
  158DOPC   C2319011   3.544   5.048   9.667  1.1109  0.0267  0.4425
  158DOPC   H3R19012   3.441   5.049   9.626 -0.2125  1.4020  3.5536
  158DOPC   H3S19013   3.567   4.940   9.683  0.6615 -0.2079 -0.4177
  158DOPC   C2419014   3.641   5.095   9.556 -0.1657  1.0182 -0.5752
  158DOPC   H4R19015   3.662   5.012   9.485  1.3156  1.7739 -1.0675
  158DOPC   H4S19016   3.743   5.123   9.591  0.3254 -1.5862  0.2985
  158DOPC   C2519017   3.586   5.203   9.463 -0.3149  0.2267  0.2159
  158DOPC   H5R19018   3.626   5.300   9.501  0.8758 -0.0462 -0.3055
  158DOPC   H5S19019   3.476   5.205   9.484 -0.3676  3.7786  0.3436
  158DOPC   C2619020   3.626   5.193   9.314  0.1836 -0.2514  0.4310
  158DOPC   H6R19021   3.583   5.281   9.263  0.4074 -0.3173  0.1281
  158DOPC   H6S19022   3.588   5.097   9.273  0.0260  0.5562 -1.4134
  158DOPC   C2719023   3.779   5.202   9.292 -0.9816  0.2217  0.3823
  158DOPC   H7R19024   3.830   5.126   9.356 -1.1385  0.4722  0.8113
  158DOPC   H7S19025   3.807   5.307   9.315 -1.2066  0.6293 -1.1136
  158DOPC   C2819026   3.831   5.174   9.141 -0.1052 -0.2036  1.3041
  158DOPC   H8R19027   3.934   5.216   9.139 -0.3746  0.4347  0.4440
  158DOPC   H8S19028   3.780   5.224   9.056 -0.4329  1.8910  2.6464
  158DOPC   C2919029   3.850   5.026   9.098  0.1094 -0.7171  0.2236
  158DOPC   H9R19030   3.764   4.981   9.046 -0.2802  0.5440 -0.2553
  158DOPC  C21019031   3.972   4.964   9.091  0.3955 -0.6633  0.2750
  158DOPC  H10R19032   3.964   4.862   9.051 -2.5765  0.5115 -2.5387
  158DOPC  C21119033   4.101   5.010   9.145  0.7650 -0.0031 -0.8182
  158DOPC  H11R19034   4.117   5.118   9.125 -2.3086  0.6295 -0.3817
  158DOPC  H11S19035   4.188   4.957   9.100  0.9092 -0.3456 -0.1430
  158DOPC  C21219036   4.116   4.975   9.300  0.1096 -0.2085  0.6307
  158DOPC  H12R19037   4.033   5.025   9.355  0.6427  0.9012  0.4547
  158DOPC  H12S19038   4.208   5.015   9.346  0.0136 -0.4114  1.0001
  158DOPC  C21319039   4.117   4.827   9.339  0.1336  0.3115  0.1491
  158DOPC  H13R19040   4.037   4.766   9.293  0.6684 -0.8100  0.6602
  158DOPC  H13S19041   4.094   4.834   9.448 -0.9445 -0.7941  0.0078
  158DOPC  C21419042   4.245   4.742   9.327  0.8538  0.5230 -0.4096
  158DOPC  H14R19043   4.290   4.763   9.228 -1.7239  2.1425 -1.3392
  158DOPC  H14S19044   4.217   4.635   9.328 -1.6084  1.1065 -0.4504
  158DOPC  C21519045   4.346   4.765   9.447 -0.2681 -0.3556  0.0761
  158DOPC  H15R19046   4.309   4.716   9.540  1.2845 -2.3982 -0.3195
  158DOPC  H15S19047   4.356   4.874   9.465 -0.7420 -0.2743 -0.1390
  158DOPC  C21619048   4.484   4.701   9.428 -0.1016  0.6008  0.1666
  158DOPC  H16R19049   4.556   4.743   9.501 -1.4678  2.1412  0.6855
  158DOPC  H16S19050   4.513   4.745   9.330 -0.4415 -1.1964 -0.7977
  158DOPC  C21719051   4.480   4.545   9.426 -0.3114  0.7191  0.4715
  158DOPC  H17R19052   4.427   4.494   9.342 -0.1405  0.6435  0.4075
  158DOPC  H17S19053   4.415   4.514   9.510  0.3406 -2.4827 -0.0795
  158DOPC  C21819054   4.617   4.482   9.431 -0.1468 -0.4271  0.1646
  158DOPC  H18R19055   4.670   4.510   9.524  2.9922 -2.2112 -0.9431
  158DOPC  H18S19056   4.681   4.523   9.349  0.4061 -1.2745  0.1586
  158DOPC  H18T19057   4.609   4.373   9.413 -0.7104 -0.1027 -1.8797
  158DOPC   C3319058   2.980   4.942   9.759 -0.3323 -0.6184  0.5194
  158DOPC   H3X19059   2.948   4.923   9.654  1.2776 -0.8016  0.0314
  158DOPC   H3Y19060   2.903   4.897   9.826 -2.7028  0.9134 -1.0036
  158DOPC   C3419061   3.115   4.861   9.773  0.1668  0.3176 -0.1183
  158DOPC   H4X19062   3.153   4.861   9.878  3.8630 -0.4510 -1.2849
  158DOPC   H4Y19063   3.194   4.919   9.722  0.9788  0.5323  1.3087
  158DOPC   C3519064   3.100   4.715   9.720  0.1015 -0.9214 -0.0561
  158DOPC   H5X19065   3.061   4.724   9.616 -4.3289 -0.4923  1.4186
  158DOPC   H5Y19066   3.029   4.669   9.792 -1.0384  1.8488  0.7264
  158DOPC   C3619067   3.233   4.652   9.699  0.6008 -0.3561  0.1089
  158DOPC   H6X19068   3.273   4.700   9.608  0.8006 -1.5265 -0.4442
  158DOPC   H6Y19069   3.309   4.680   9.776 -1.1266  1.7322  1.1661
  158DOPC   C3719070   3.239   4.497   9.687  0.1593 -0.0749  0.0745
  158DOPC   H7X19071   3.336   4.458   9.650 -0.6807 -1.2068 -1.0402
  158DOPC   H7Y19072   3.240   4.454   9.789  0.7732  0.4651  0.3034
  158DOPC   C3819073   3.125   4.432   9.599 -0.8387 -0.2960  0.3186
  158DOPC   H8X19074   3.127   4.473   9.495  0.4314 -0.3823  0.2952
  158DOPC   H8Y19075   3.026   4.465   9.636 -0.6334  2.7039 -1.4751
  158DOPC   C3919076   3.150   4.281   9.606  0.4800  0.7470  0.0573
  158DOPC   H9X19077   3.124   4.250   9.709  0.1062  0.5060 -0.1058
  158DOPC  C31019078   3.192   4.193   9.512  0.1774 -0.4632  0.8173
  158DOPC  H10X19079   3.202   4.086   9.533  3.1598 -0.3520  0.4402
  158DOPC  C31119080   3.234   4.219   9.366  0.2494 -0.5624 -0.4058
  158DOPC  H11X19081   3.335   4.188   9.335  1.3021  2.3559 -0.2451
  158DOPC  H11Y19082   3.238   4.329   9.346 -1.3933 -0.5648 -0.9065
  158DOPC  C31219083   3.126   4.153   9.274  0.6225  0.5451 -0.8303
  158DOPC  H12X19084   3.021   4.176   9.304  1.2981  2.7666  0.0223
  158DOPC  H12Y19085   3.123   4.044   9.296 -2.8180  0.8096  0.7624
  158DOPC  C31319086   3.143   4.194   9.128  0.9411 -0.5933 -0.3849
  158DOPC  H13X19087   3.047   4.162   9.081 -0.7812  0.8664  1.9296
  158DOPC  H13Y19088   3.153   4.300   9.098 -0.8386 -0.6979 -1.4654
  158DOPC  C31419089   3.254   4.107   9.069 -0.1038 -0.6183 -0.0465
  158DOPC  H14X19090   3.354   4.132   9.112  0.1569 -2.1562  0.3108
  158DOPC  H14Y19091   3.231   4.010   9.117  0.3607 -0.7471 -0.0820
  158DOPC  C31519092   3.269   4.104   8.916 -0.5980  0.8618 -0.3007
  158DOPC  H15X19093   3.171   4.087   8.867 -0.1101 -0.2775 -0.9043
  158DOPC  H15Y19094   3.350   4.031   8.893 -0.1934  0.7152  1.4393
  158DOPC  C31619095   3.294   4.240   8.860  0.2587 -0.2329 -0.1982
  158DOPC  H16X19096   3.214   4.303   8.903 -1.4717 -2.2732 -0.2475
  158DOPC  H16Y19097   3.381   4.286   8.912  0.6667 -0.3349 -0.7791
  158DOPC  C31719098   3.294   4.251   8.706  0.4890  0.0078 -0.0747
  158DOPC  H17X19099   3.345   4.347   8.686  0.3064  0.0581 -0.3076
  158DOPC  H17Y19100   3.365   4.175   8.667 -1.3128 -1.3279 -0.8737
  158DOPC  C31819101   3.166   4.214   8.631 -0.6697 -0.6109 -0.5465
  158DOPC  H18X19102   3.086   4.280   8.670  0.1985  0.2002 -0.0994
  158DOPC  H18Y19103   3.189   4.229   8.524 -0.7363 -1.1881 -0.6453
  158DOPC  H18Z19104   3.134   4.108   8.633 -0.6990 -0.8065 -4.3681
  159DOPC     N19105   4.850   1.146  10.370 -0.3860 -0.2109 -0.2916
  159DOPC   C1219106   4.896   0.996  10.343 -0.5034 -0.2049 -0.6609
  159DOPC  H12A19107   4.953   0.994  10.251 -0.3304 -0.1139 -0.5567
  159DOPC  H12B19108   4.804   0.944  10.320 -0.3761 -0.7005 -0.0672
  159DOPC   C1319109   4.775   1.185  10.245 -0.6365 -0.2581  0.1869
  159DOPC  H13A19110   4.848   1.172  10.166  0.3611 -1.0233  1.2026
  159DOPC  H13B19111   4.692   1.119  10.225 -0.2263 -0.5458 -0.6258
  159DOPC  H13C19112   4.745   1.288  10.248 -1.9104 -0.5871 -0.5880
  159DOPC   C1419113   4.979   1.221  10.382  0.8974  0.3602  0.1952
  159DOPC  H14A19114   5.042   1.206  10.295 -1.0531 -0.6975 -1.1178
  159DOPC  H14B19115   4.962   1.326  10.401 -1.3490  0.1344 -0.3591
  159DOPC  H14C19116   5.033   1.187  10.469 -1.4028  2.0089  2.3811
  159DOPC   C1519117   4.771   1.156  10.496  0.2818  0.4419  0.0630
  159DOPC  H15A19118   4.740   1.255  10.526 -1.2348  0.3033 -0.8788
  159DOPC  H15B19119   4.833   1.115  10.573 -1.7982 -0.7395  1.2091
  159DOPC  H15C19120   4.697   1.077  10.505  1.0530 -0.2554  0.3865
  159DOPC   C1119121   4.974   0.931  10.454 -0.3350  0.4900 -0.4254
  159DOPC  H11A19122   4.933   0.954  10.555  0.6938  0.4988  0.0078
  159DOPC  H11B19123   4.956   0.821  10.449  0.5274  0.3957 -1.7640
  159DOPC     P19124   5.203   0.846  10.361 -0.1925 -0.0330  0.4137
  159DOPC   O1319125   5.181   0.704  10.405 -0.0491  0.5523 -0.4214
  159DOPC   O1419126   5.348   0.891  10.369  0.7386  0.2443  0.0617
  159DOPC   O1219127   5.121   0.950  10.444  0.1765  0.0603 -0.4166
  159DOPC   O1119128   5.149   0.861  10.214  0.8842 -0.4944 -0.2704
  159DOPC    C119129   5.226   0.832  10.101 -0.6173  0.0006 -0.5345
  159DOPC    HA19130   5.235   0.722  10.095  0.4813  0.0694 -0.3322
  159DOPC    HB19131   5.325   0.882  10.099 -1.3159  1.4976  0.1364
  159DOPC    C219132   5.153   0.890   9.974 -0.6884 -0.5607  0.0619
  159DOPC    HS19133   5.159   1.001   9.980  0.3991 -0.6853  2.5262
  159DOPC   O2119134   5.029   0.833   9.965  0.0964 -0.1048 -0.0318
  159DOPC   C2119135   4.927   0.912   9.991 -0.5014  0.9144  0.6529
  159DOPC   O2219136   4.935   1.028  10.033 -0.2191 -0.0912 -0.1841
  159DOPC   C2219137   4.800   0.838   9.966  0.0475  0.0584 -0.6380
  159DOPC   H2R19138   4.719   0.887  10.024 -0.6324  1.8283 -2.9327
  159DOPC   H2S19139   4.814   0.728   9.979  0.1722  0.4035  3.1979
  159DOPC    C319140   5.241   0.848   9.856  0.0242  0.4869 -0.8869
  159DOPC    HX19141   5.252   0.738   9.847  1.1115  0.4565  0.5703
  159DOPC    HY19142   5.342   0.888   9.877 -0.7261  1.9085  0.1754
  159DOPC   O3119143   5.188   0.897   9.730  0.7283 -0.4720 -0.1088
  159DOPC   C3119144   5.191   1.030   9.713 -0.2862  0.1115  0.0971
  159DOPC   O3219145   5.229   1.113   9.792  0.3180  0.1433  0.8346
  159DOPC   C3219146   5.144   1.065   9.576  0.0066  0.2805 -0.1415
  159DOPC   H2X19147   5.077   0.982   9.544 -0.3561  0.1299  0.9414
  159DOPC   H2Y19148   5.079   1.155   9.585 -2.0999 -1.2391  0.9039
  159DOPC   C2319149   4.746   0.861   9.825 -0.3592 -0.3579 -0.6009
  159DOPC   H3R19150   4.823   0.827   9.753 -0.6762 -3.0976  0.2263
  159DOPC   H3S19151   4.702   0.963   9.824  0.0088 -0.1659  1.0454
  159DOPC   C2419152   4.622   0.779   9.785  0.2045 -0.1471 -0.1366
  159DOPC   H4R19153   4.525   0.820   9.820  0.1017 -2.7989  3.2434
  159DOPC   H4S19154   4.636   0.679   9.833  1.2774 -0.4214 -0.9666
  159DOPC   C2519155   4.609   0.759   9.631  0.2709 -0.3867  0.2344
  159DOPC   H5R19156   4.674   0.677   9.594 -1.1459 -0.1537 -3.0800
  159DOPC   H5S19157   4.637   0.850   9.573  1.0208 -0.6900  0.1070
  159DOPC   C2619158   4.462   0.711   9.596 -0.3408 -0.1841  0.3987
  159DOPC   H6R19159   4.398   0.802   9.602  0.9848  0.8522 -0.5647
  159DOPC   H6S19160   4.435   0.644   9.680 -0.8005 -0.6790 -0.1311
  159DOPC   C2719161   4.454   0.649   9.455 -0.7823 -0.2375 -0.0874
  159DOPC   H7R19162   4.357   0.597   9.461 -1.4677  1.1246  1.7575
  159DOPC   H7S19163   4.535   0.575   9.437 -2.3206 -1.6665 -1.4299
  159DOPC   C2819164   4.453   0.754   9.340 -0.2531  0.6152  0.3790
  159DOPC   H8R19165   4.469   0.695   9.247 -0.0391  1.4041 -0.0992
  159DOPC   H8S19166   4.545   0.811   9.364  0.2248  0.2915 -0.6206
  159DOPC   C2919167   4.336   0.849   9.331  0.3748  0.0654 -1.0626
  159DOPC   H9R19168   4.263   0.822   9.408 -1.6525  2.0947 -2.1458
  159DOPC  C21019169   4.299   0.939   9.242 -0.3605  0.2487 -0.1192
  159DOPC  H10R19170   4.219   1.007   9.275  0.0253 -0.6613  3.0228
  159DOPC  C21119171   4.386   0.970   9.124 -0.3750 -0.6670 -0.5428
  159DOPC  H11R19172   4.477   0.907   9.124  0.2249  0.1944 -0.8369
  159DOPC  H11S19173   4.413   1.078   9.124 -0.1511 -0.7224 -0.4523
  159DOPC  C21219174   4.320   0.931   8.994 -0.1362 -0.8434 -0.1792
  159DOPC  H12R19175   4.302   0.822   8.982 -0.7008 -1.2175  3.0059
  159DOPC  H12S19176   4.384   0.974   8.915 -0.4656  0.0017  0.0048
  159DOPC  C21319177   4.179   0.992   8.985 -0.1478  0.4284 -0.0917
  159DOPC  H13R19178   4.181   1.101   9.005  0.3643  0.1148  1.7377
  159DOPC  H13S19179   4.129   0.954   9.077  2.9087  1.3857  2.1379
  159DOPC  C21419180   4.091   0.947   8.866  0.0913 -0.0913 -0.5739
  159DOPC  H14R19181   4.107   0.838   8.854 -0.4619 -0.7006  3.1770
  159DOPC  H14S19182   4.127   1.003   8.777 -0.8086 -0.1390 -0.9805
  159DOPC  C21519183   3.938   0.968   8.865  0.6439 -0.6686  0.1892
  159DOPC  H15R19184   3.892   1.070   8.865 -1.6519 -1.6242  1.4980
  159DOPC  H15S19185   3.913   0.920   8.962  1.9295 -2.5855 -0.3802
  159DOPC  C21619186   3.868   0.879   8.752 -0.2437 -0.5314 -0.5733
  159DOPC  H16R19187   3.898   0.772   8.756 -0.1870 -0.5813 -1.8558
  159DOPC  H16S19188   3.887   0.933   8.657 -1.4787  0.1806 -0.4365
  159DOPC  C21719189   3.718   0.882   8.772  0.0867 -0.3540 -0.1682
  159DOPC  H17R19190   3.680   0.987   8.770 -0.3867 -0.4901  0.9282
  159DOPC  H17S19191   3.686   0.826   8.863 -0.2198 -2.0452 -1.2710
  159DOPC  C21819192   3.638   0.822   8.655 -0.0748  0.7407 -0.0712
  159DOPC  H18R19193   3.690   0.855   8.562 -1.1521  2.6123 -0.0529
  159DOPC  H18S19194   3.538   0.867   8.639  0.5552  1.7511 -1.3306
  159DOPC  H18T19195   3.626   0.712   8.660  2.3543  0.4490  0.3267
  159DOPC   C3319196   5.258   1.075   9.472  0.4389 -0.2288  0.4363
  159DOPC   H3X19197   5.328   0.990   9.486  2.1395  0.6509 -2.0480
  159DOPC   H3Y19198   5.315   1.169   9.486  1.7622 -0.4482 -2.7229
  159DOPC   C3419199   5.203   1.091   9.323  0.0850 -0.7002  0.1275
  159DOPC   H4X19200   5.146   1.186   9.327  0.4791 -0.4983  1.0806
  159DOPC   H4Y19201   5.123   1.016   9.306 -3.1708  2.2927  1.2338
  159DOPC   C3519202   5.323   1.104   9.226 -0.1846  0.5582 -0.2314
  159DOPC   H5X19203   5.367   1.004   9.206  0.1478  0.3677  1.3769
  159DOPC   H5Y19204   5.400   1.170   9.270  0.8791  0.0842 -1.3127
  159DOPC   C3619205   5.298   1.170   9.086 -0.6311  0.6201  0.1754
  159DOPC   H6X19206   5.241   1.091   9.031  2.2993  0.2986 -2.6714
  159DOPC   H6Y19207   5.230   1.258   9.087  0.2698  1.3192  0.1881
  159DOPC   C3719208   5.426   1.186   9.005  0.5864 -0.2111  0.1409
  159DOPC   H7X19209   5.489   1.244   9.076  1.7213 -1.3978  0.1529
  159DOPC   H7Y19210   5.480   1.091   8.983  0.7848 -0.2441  0.7580
  159DOPC   C3819211   5.410   1.268   8.873 -0.5958 -0.6207 -0.7231
  159DOPC   H8X19212   5.510   1.261   8.827  0.0408  1.5866  0.1930
  159DOPC   H8Y19213   5.391   1.369   8.917 -1.9460 -0.8879 -0.6370
  159DOPC   C3919214   5.288   1.225   8.795 -0.1492  1.1646 -0.7086
  159DOPC   H9X19215   5.190   1.240   8.842  0.6166  2.1121  0.6257
  159DOPC  C31019216   5.278   1.167   8.669  0.2159 -0.3528 -0.3240
  159DOPC  H10X19217   5.183   1.122   8.637 -0.7313  1.4421 -0.1695
  159DOPC  C31119218   5.397   1.144   8.584 -0.5952  0.3118  0.1340
  159DOPC  H11X19219   5.491   1.191   8.621 -0.6238  0.7306 -0.3102
  159DOPC  H11Y19220   5.380   1.188   8.483  1.0696 -0.2270 -0.4156
  159DOPC  C31219221   5.428   0.992   8.573  1.0347  0.1595 -0.3808
  159DOPC  H12X19222   5.341   0.931   8.541  1.8752 -1.0207 -0.4915
  159DOPC  H12Y19223   5.456   0.939   8.666  0.1246 -0.3961 -0.4055
  159DOPC  C31319224   5.526   0.971   8.462  0.2686  0.2157 -0.3497
  159DOPC  H13X19225   5.527   1.053   8.387 -0.0104 -0.9737 -1.7159
  159DOPC  H13Y19226   5.626   0.989   8.507  1.2207  0.7146 -2.5207
  159DOPC  C31419227   5.533   0.848   8.379 -0.2763  0.6247  1.1225
  159DOPC  H14X19228   5.434   0.843   8.329  0.4529  3.9262 -0.9361
  159DOPC  H14Y19229   5.604   0.867   8.295  0.0424  0.9774  1.4665
  159DOPC  C31519230   5.563   0.726   8.448 -0.0783  0.1757 -0.3336
  159DOPC  H15X19231   5.496   0.708   8.535 -0.3708  0.4842 -0.4930
  159DOPC  H15Y19232   5.671   0.721   8.474  0.4302 -0.9775 -2.4423
  159DOPC  C31619233   5.549   0.597   8.359 -0.7037 -0.2458 -0.3415
  159DOPC  H16X19234   5.587   0.512   8.420 -0.5658 -0.3668 -0.5947
  159DOPC  H16Y19235   5.444   0.582   8.327 -0.9639 -1.0528  0.8258
  159DOPC  C31719236   5.647   0.597   8.243 -0.2899 -0.9002 -0.3472
  159DOPC  H17X19237   5.630   0.690   8.185  0.7430 -0.5707 -0.1299
  159DOPC  H17Y19238   5.751   0.607   8.280 -0.3163  1.1414 -0.7139
  159DOPC  C31819239   5.633   0.474   8.160 -0.1855 -0.5159 -0.2482
  159DOPC  H18X19240   5.670   0.478   8.055 -0.3305 -1.9508 -0.3696
  159DOPC  H18Y19241   5.687   0.396   8.217 -0.3585 -0.5016 -0.0644
  159DOPC  H18Z19242   5.535   0.423   8.159 -0.2892 -0.3279 -1.3093
  160DOPC     N19243   0.306   5.476  10.552 -0.0387 -0.0264  0.2098
  160DOPC   C1219244   0.165   5.438  10.489 -0.1144  0.2872  0.0020
  160DOPC  H12A19245   0.094   5.474  10.563  2.4036  3.7049  1.0195
  160DOPC  H12B19246   0.158   5.332  10.468 -0.3125 -0.0075  1.4219
  160DOPC   C1319247   0.335   5.377  10.665  0.0766 -0.8111  0.0646
  160DOPC  H13A19248   0.332   5.279  10.621 -0.7275 -0.5088 -0.5964
  160DOPC  H13B19249   0.427   5.396  10.718  0.7449 -2.0414 -0.6185
  160DOPC  H13C19250   0.255   5.381  10.738  0.5980 -1.2263  0.6679
  160DOPC   C1419251   0.304   5.620  10.594 -0.2678  0.0990  0.4870
  160DOPC  H14A19252   0.281   5.685  10.511 -0.4670  0.9181  1.1608
  160DOPC  H14B19253   0.217   5.634  10.657 -0.5448 -0.7826  0.3023
  160DOPC  H14C19254   0.386   5.659  10.653 -1.8636  2.2340  1.4746
  160DOPC   C1519255   0.418   5.465  10.451  0.4766 -0.5662 -0.2660
  160DOPC  H15A19256   0.519   5.482  10.484  1.1473 -1.8115 -1.5255
  160DOPC  H15B19257   0.401   5.529  10.365 -1.5683  0.5196  0.8840
  160DOPC  H15C19258   0.427   5.366  10.407  0.0470 -1.3327  1.3241
  160DOPC   C1119259   0.132   5.512  10.350 -0.5499  0.6663 -1.0164
  160DOPC  H11A19260   0.203   5.465  10.279  0.7198  0.5103  0.2962
  160DOPC  H11B19261   0.031   5.476  10.319  0.1137 -2.4585  0.0511
  160DOPC     P19262   0.224   5.741  10.252  0.1731 -0.0186  0.3235
  160DOPC   O1319263   0.361   5.695  10.257 -0.3394  0.0005  0.0547
  160DOPC   O1419264   0.200   5.886  10.273  0.4807 -0.3591 -0.4894
  160DOPC   O1219265   0.142   5.656  10.354  0.1727  0.3246 -0.7141
  160DOPC   O1119266   0.166   5.707  10.109  0.3163  0.1016  0.3926
  160DOPC    C119267   0.036   5.739  10.067 -0.2515  0.2030  0.3880
  160DOPC    HA19268  -0.014   5.821  10.124 -2.6749  0.0150 -1.3303
  160DOPC    HB19269  -0.039   5.657  10.067  0.9785 -1.0120 -1.9838
  160DOPC    C219270   0.047   5.783   9.918  0.4902 -0.5810 -0.4726
  160DOPC    HS19271  -0.057   5.806   9.886  0.7505  0.6843 -0.4494
  160DOPC   O2119272   0.103   5.683   9.837  0.1829 -0.4386  0.1740
  160DOPC   C2119273   0.031   5.608   9.761 -0.8634  0.0927 -0.8137
  160DOPC   O2219274  -0.092   5.610   9.760 -0.0078  0.3659 -0.2724
  160DOPC   C2219275   0.128   5.517   9.678 -0.0396  0.3077 -0.1800
  160DOPC   H2R19276   0.146   5.429   9.743  0.1223  0.7546  0.3825
  160DOPC   H2S19277   0.226   5.569   9.668  0.6446  0.0117  3.5031
  160DOPC    C319278   0.141   5.909   9.902 -0.1247  0.8694 -0.6614
  160DOPC    HX19279   0.247   5.887   9.926 -0.6941 -2.7621 -0.8792
  160DOPC    HY19280   0.114   5.986   9.978  0.6134  1.7473 -1.2684
  160DOPC   O3119281   0.137   5.962   9.771  0.3334 -1.1667  0.0545
  160DOPC   C3119282   0.029   6.025   9.727  0.4064 -0.5278 -0.5646
  160DOPC   O3219283  -0.080   6.031   9.783 -0.8633  0.4418 -0.6872
  160DOPC   C3219284   0.061   6.084   9.591  0.5680  0.6881 -0.2481
  160DOPC   H2X19285   0.149   6.148   9.614  1.0791 -0.5413  1.4824
  160DOPC   H2Y19286   0.081   6.003   9.518 -2.2755 -0.3214 -0.0299
  160DOPC   C2319287   0.080   5.464   9.536  0.1424 -0.3295  0.4557
  160DOPC   H3R19288   0.043   5.553   9.480 -0.2582 -1.2834 -0.8417
  160DOPC   H3S19289  -0.005   5.394   9.550 -1.1239  1.0983  0.1112
  160DOPC   C2419290   0.203   5.413   9.462  0.2109 -0.2524  0.7918
  160DOPC   H4R19291   0.260   5.338   9.522  0.4360  0.4020  1.4111
  160DOPC   H4S19292   0.262   5.503   9.436 -0.9401  0.8284  1.7807
  160DOPC   C2519293   0.165   5.353   9.326 -0.5767  0.0961  0.2752
  160DOPC   H5R19294   0.126   5.434   9.260  2.8225  1.8532  0.2091
  160DOPC   H5S19295   0.096   5.266   9.332  0.6929 -0.9834 -0.2622
  160DOPC   C2619296   0.279   5.278   9.258 -1.2324 -0.1684 -0.2541
  160DOPC   H6R19297   0.316   5.185   9.306  0.5902 -0.8309 -2.7004
  160DOPC   H6S19298   0.372   5.338   9.247 -1.1623 -0.2734 -0.2318
  160DOPC   C2719299   0.227   5.228   9.122  0.1445  0.0128  0.1488
  160DOPC   H7R19300   0.210   5.317   9.058  2.5371 -0.4438 -1.2408
  160DOPC   H7S19301   0.127   5.178   9.124 -0.0610  0.4284  0.3844
  160DOPC   C2819302   0.333   5.146   9.043 -0.4598  0.2360  0.4012
  160DOPC   H8R19303   0.355   5.059   9.108  1.0005  0.4913  0.2810
  160DOPC   H8S19304   0.420   5.214   9.043  0.6408 -1.0971 -1.3050
  160DOPC   C2919305   0.281   5.093   8.906  0.6410 -0.4282 -0.2185
  160DOPC   H9R19306   0.182   5.046   8.917 -0.4214  1.7231 -0.2316
  160DOPC  C21019307   0.318   5.129   8.775  0.3502 -0.4268 -0.3269
  160DOPC  H10R19308   0.266   5.079   8.692 -0.1842 -1.5497  0.6477
  160DOPC  C21119309   0.435   5.213   8.733 -0.4511 -0.1960 -0.4443
  160DOPC  H11R19310   0.460   5.264   8.829  0.1920  0.0200 -0.7195
  160DOPC  H11S19311   0.405   5.296   8.665 -1.3768 -1.8561 -2.1283
  160DOPC  C21219312   0.554   5.134   8.680 -0.0449  0.4222  0.0216
  160DOPC  H12R19313   0.583   5.059   8.757  0.9617  0.8102  0.0363
  160DOPC  H12S19314   0.647   5.194   8.674 -0.9038  1.7143 -0.8205
  160DOPC  C21319315   0.529   5.065   8.550  0.2659 -0.1827  1.0145
  160DOPC  H13R19316   0.440   5.002   8.571  0.4078 -1.0290 -0.6980
  160DOPC  H13S19317   0.611   4.992   8.536  0.6934  0.2593  1.1670
  160DOPC  C21419318   0.499   5.161   8.426 -0.4450  0.4385 -0.1907
  160DOPC  H14R19319   0.430   5.241   8.461  0.3466  0.9216  0.2988
  160DOPC  H14S19320   0.446   5.095   8.355 -0.3705 -0.6125  0.7011
  160DOPC  C21519321   0.622   5.227   8.366 -0.0740 -0.0791 -0.1148
  160DOPC  H15R19322   0.668   5.295   8.441 -0.1535  1.1326 -1.1240
  160DOPC  H15S19323   0.588   5.303   8.292 -0.3163  0.6833  0.7647
  160DOPC  C21619324   0.713   5.124   8.306 -0.0001  0.3204  0.0648
  160DOPC  H16R19325   0.659   5.058   8.235 -2.9453  1.5353  0.9953
  160DOPC  H16S19326   0.742   5.059   8.391 -1.1452 -0.8787 -0.4287
  160DOPC  C21719327   0.836   5.176   8.237  0.9252  0.9560  0.1500
  160DOPC  H17R19328   0.892   5.240   8.308 -1.3876  1.9541  1.1791
  160DOPC  H17S19329   0.794   5.241   8.158  0.3097  0.4184  0.0210
  160DOPC  C21819330   0.919   5.072   8.169 -0.0331  0.4884 -0.1498
  160DOPC  H18R19331   0.853   5.008   8.108  1.1353 -1.9348  1.0150
  160DOPC  H18S19332   0.974   5.007   8.239  0.6742  1.1485 -0.0727
  160DOPC  H18T19333   1.001   5.115   8.107  0.0813 -2.0118 -1.8845
  160DOPC   C3319334  -0.049   6.186   9.540  0.3595  0.3585  1.1739
  160DOPC   H3X19335  -0.084   6.244   9.628 -0.0151  0.1709  1.1515
  160DOPC   H3Y19336  -0.137   6.133   9.497  0.3475  3.9813 -4.1792
  160DOPC   C3419337   0.011   6.278   9.438  0.2997 -0.7660 -0.1032
  160DOPC   H4X19338   0.108   6.308   9.483  0.6998 -0.2129 -1.2874
  160DOPC   H4Y19339  -0.047   6.373   9.433  1.5012  0.0743  1.2265
  160DOPC   C3519340   0.022   6.219   9.299 -0.7879 -0.0020  0.2117
  160DOPC   H5X19341   0.067   6.117   9.300 -0.9635 -0.0733  0.8304
  160DOPC   H5Y19342   0.109   6.270   9.253  0.7677 -2.1907  0.5577
  160DOPC   C3619343  -0.103   6.219   9.212 -0.1406  0.0835 -0.1533
  160DOPC   H6X19344  -0.187   6.180   9.273  1.0601  0.5660  1.8796
  160DOPC   H6Y19345  -0.119   6.325   9.183  0.2623  0.2802  0.3364
  160DOPC   C3719346  -0.088   6.135   9.088 -0.1662 -0.3445 -0.3118
  160DOPC   H7X19347  -0.002   6.163   9.024 -0.6752  1.0903 -0.3885
  160DOPC   H7Y19348  -0.072   6.027   9.111  0.1923 -0.1213  0.5643
  160DOPC   C3819349  -0.207   6.140   8.992 -0.3417 -0.0417 -0.4499
  160DOPC   H8X19350  -0.213   6.245   8.955  0.6930 -0.4316 -1.7902
  160DOPC   H8Y19351  -0.302   6.114   9.044  0.8695 -1.1045  1.3540
  160DOPC   C3919352  -0.188   6.042   8.878 -0.0044 -0.3579  0.4666
  160DOPC   H9X19353  -0.131   6.092   8.798 -2.4803  2.0767  0.1058
  160DOPC  C31019354  -0.228   5.917   8.866 -0.2381  0.4217  0.7648
  160DOPC  H10X19355  -0.200   5.854   8.780 -1.3787  0.4020  0.3904
  160DOPC  C31119356  -0.306   5.847   8.976 -0.6045 -0.4395 -0.0810
  160DOPC  H11X19357  -0.339   5.914   9.058 -0.2174  1.5372 -1.4476
  160DOPC  H11Y19358  -0.241   5.765   9.013  0.0567  0.3763  0.6017
  160DOPC  C31219359  -0.445   5.798   8.925  0.0248 -0.1666 -0.0983
  160DOPC  H12X19360  -0.483   5.725   9.000  1.5894  1.1235  2.0600
  160DOPC  H12Y19361  -0.430   5.739   8.832  0.7653  2.6649 -1.9178
  160DOPC  C31319362  -0.549   5.909   8.903 -1.0314  0.2563  0.0016
  160DOPC  H13X19363  -0.554   5.970   8.996  2.4426 -2.0207  1.9109
  160DOPC  H13Y19364  -0.491   5.959   8.822 -0.7435 -0.6918 -0.3940
  160DOPC  C31419365  -0.685   5.868   8.843 -0.3084 -0.1087 -0.8388
  160DOPC  H14X19366  -0.661   5.794   8.764  0.7125 -0.0304 -0.6284
  160DOPC  H14Y19367  -0.743   5.832   8.931 -1.1409  1.4541 -0.7093
  160DOPC  C31519368  -0.754   5.987   8.762  0.2791  1.1020 -0.2630
  160DOPC  H15X19369  -0.749   6.081   8.821  0.1961  0.4452  0.8181
  160DOPC  H15Y19370  -0.860   5.959   8.747  0.5803 -0.1827 -0.1400
  160DOPC  C31619371  -0.684   6.020   8.621  0.3110 -0.4199 -0.4453
  160DOPC  H16X19372  -0.582   6.051   8.652 -0.5467  1.2635  0.9070
  160DOPC  H16Y19373  -0.687   5.937   8.549  0.7547 -0.1780 -0.7474
  160DOPC  C31719374  -0.754   6.144   8.558  0.2278  0.1337  0.0142
  160DOPC  H17X19375  -0.862   6.120   8.556  0.3459 -0.4789  0.4035
  160DOPC  H17Y19376  -0.744   6.222   8.637  0.2894 -0.2246  0.3626
  160DOPC  C31819377  -0.692   6.210   8.445  0.1257 -0.5146 -0.2883
  160DOPC  H18X19378  -0.595   6.258   8.471 -0.4162  0.5622 -0.2084
  160DOPC  H18Y19379  -0.683   6.132   8.366  1.4934  1.1723 -1.8658
  160DOPC  H18Z19380  -0.761   6.289   8.412  0.2940 -0.0207  0.5105
  161DOPC     N19381   3.490   6.394  10.393  0.3211  0.8980  0.0969
  161DOPC   C1219382   3.612   6.347  10.322  0.0134  0.7028  0.2893
  161DOPC  H12A19383   3.644   6.424  10.254  0.9017 -0.3558 -0.5248
  161DOPC  H12B19384   3.575   6.267  10.259  0.0521  0.5888  0.4093
  161DOPC   C1319385   3.386   6.422  10.286  0.8407 -0.4412  0.0004
  161DOPC  H13A19386   3.293   6.464  10.322 -0.5383 -2.1517 -1.3969
  161DOPC  H13B19387   3.422   6.486  10.207  0.8439 -1.5267 -0.8892
  161DOPC  H13C19388   3.362   6.331  10.234 -0.4807 -1.6869  2.5798
  161DOPC   C1419389   3.500   6.519  10.474 -0.0609 -0.7271  0.4132
  161DOPC  H14A19390   3.495   6.611  10.419 -0.4089  1.0893  3.2680
  161DOPC  H14B19391   3.422   6.516  10.549  0.0653 -4.3025  0.5961
  161DOPC  H14C19392   3.596   6.529  10.523  0.6328  1.4504 -1.2492
  161DOPC   C1519393   3.431   6.277  10.472  0.0180 -0.1388 -0.5704
  161DOPC  H15A19394   3.485   6.273  10.566 -1.2396  0.4112  0.1962
  161DOPC  H15B19395   3.432   6.184  10.416  0.2343 -0.3405 -0.2409
  161DOPC  H15C19396   3.331   6.294  10.508  0.2211 -0.8514  0.3757
  161DOPC   C1119397   3.735   6.310  10.413  0.5489  0.4005  0.0414
  161DOPC  H11A19398   3.706   6.221  10.473  0.0694  1.1070  0.8796
  161DOPC  H11B19399   3.813   6.270  10.344 -1.4376 -0.1424 -2.0083
  161DOPC     P19400   3.921   6.470  10.498 -0.0292 -0.2397  0.4835
  161DOPC   O1319401   4.010   6.384  10.581  0.1840 -0.1787  0.4103
  161DOPC   O1419402   3.922   6.615  10.535  0.4440  0.2465  0.1917
  161DOPC   O1219403   3.773   6.417  10.501  0.3282  0.0239  0.3505
  161DOPC   O1119404   3.957   6.450  10.345  0.2211  0.9509 -0.2014
  161DOPC    C119405   4.095   6.436  10.306 -0.7412 -0.3279 -0.3813
  161DOPC    HA19406   4.137   6.340  10.341 -1.1583  0.0840  1.3615
  161DOPC    HB19407   4.164   6.518  10.336  1.3588 -1.5399 -1.6514
  161DOPC    C219408   4.092   6.431  10.152 -0.1654  0.0419  0.6298
  161DOPC    HS19409   4.179   6.368  10.123  0.8772  1.2248  1.0985
  161DOPC   O2119410   4.093   6.559  10.093 -0.1507 -0.3075  0.0260
  161DOPC   C2119411   4.162   6.561   9.973 -0.0700  0.4792  0.4716
  161DOPC   O2219412   4.224   6.474   9.926  0.6602  0.6586  0.3241
  161DOPC   C2219413   4.143   6.697   9.908  0.4327 -0.0507  0.4956
  161DOPC   H2R19414   4.206   6.768   9.967  0.0017 -0.1854  1.1303
  161DOPC   H2S19415   4.039   6.735   9.916  0.3764 -0.0795 -0.0394
  161DOPC    C319416   3.971   6.355  10.099  0.2681 -0.1673  0.2646
  161DOPC    HX19417   3.884   6.421  10.122  1.1629  1.0132  0.3532
  161DOPC    HY19418   3.942   6.266  10.159 -2.4334 -0.3830 -1.1863
  161DOPC   O3119419   3.970   6.334   9.956  0.3508 -0.9165  0.4258
  161DOPC   C3119420   4.030   6.223   9.924  0.1521  0.0014 -0.0063
  161DOPC   O3219421   4.082   6.148  10.005  0.3600 -0.2010  0.1860
  161DOPC   C3219422   4.024   6.217   9.779  0.2176 -0.4323  0.6383
  161DOPC   H2X19423   3.933   6.261   9.733  1.1567  1.1645  0.2512
  161DOPC   H2Y19424   4.117   6.258   9.735  0.0246  0.4192  1.0051
  161DOPC   C2319425   4.188   6.717   9.762 -0.5506 -0.2567 -0.7685
  161DOPC   H3R19426   4.298   6.704   9.757 -0.4953 -1.7779  2.3400
  161DOPC   H3S19427   4.164   6.820   9.729 -1.2982 -0.0492  0.3690
  161DOPC   C2419428   4.126   6.612   9.666  0.6722 -0.2529  0.1401
  161DOPC   H4R19429   4.020   6.642   9.655  0.9984  0.7371 -0.4848
  161DOPC   H4S19430   4.140   6.509   9.706  2.3073 -0.0827  0.1076
  161DOPC   C2519431   4.166   6.615   9.512 -0.4808 -0.5449 -0.2008
  161DOPC   H5R19432   4.277   6.616   9.509 -0.4649 -2.1397 -1.2484
  161DOPC   H5S19433   4.128   6.709   9.468  2.7126  0.9287 -0.0579
  161DOPC   C2619434   4.127   6.482   9.451 -0.1933 -0.0450 -0.0579
  161DOPC   H6R19435   4.021   6.448   9.461  0.0655 -0.4469  1.8176
  161DOPC   H6S19436   4.190   6.405   9.501  0.4032  0.9556  0.7606
  161DOPC   C2719437   4.141   6.475   9.297 -0.2201  0.9511 -0.7266
  161DOPC   H7R19438   4.246   6.502   9.274 -0.7435  2.1472 -1.8161
  161DOPC   H7S19439   4.072   6.546   9.248  0.9589  3.1573  0.6705
  161DOPC   C2819440   4.126   6.326   9.243  0.6982 -0.5609 -0.1518
  161DOPC   H8R19441   4.031   6.287   9.286  0.1786  1.5392  0.7607
  161DOPC   H8S19442   4.211   6.265   9.278  1.7293  0.4352 -0.8624
  161DOPC   C2919443   4.136   6.319   9.090 -0.6473 -0.1319 -1.0577
  161DOPC   H9R19444   4.242   6.329   9.064 -0.5742  1.0356 -0.3572
  161DOPC  C21019445   4.037   6.293   9.000 -0.7456  0.3972  0.3971
  161DOPC  H10R19446   4.062   6.274   8.895  0.3311  1.3035  0.4713
  161DOPC  C21119447   3.892   6.268   9.036  0.0729  0.5183  0.3540
  161DOPC  H11R19448   3.824   6.331   8.975  0.9616  1.0218 -0.1297
  161DOPC  H11S19449   3.867   6.298   9.141 -1.6571 -1.6185  0.6299
  161DOPC  C21219450   3.852   6.120   9.040  0.1876 -0.2977  0.0095
  161DOPC  H12R19451   3.929   6.060   9.092  0.6630  1.0360  0.8984
  161DOPC  H12S19452   3.836   6.072   8.941  0.0655 -1.1265  0.4243
  161DOPC  C21319453   3.735   6.099   9.133 -0.3214 -0.1496  0.2583
  161DOPC  H13R19454   3.689   6.003   9.102 -2.4262  0.7645  0.3952
  161DOPC  H13S19455   3.669   6.187   9.116  1.1299  0.7833 -0.7503
  161DOPC  C21419456   3.763   6.076   9.279  0.2506 -0.3741 -0.0112
  161DOPC  H14R19457   3.785   6.178   9.317  0.9618 -1.3201  2.2603
  161DOPC  H14S19458   3.851   6.009   9.287 -0.5594 -1.7013 -1.6448
  161DOPC  C21519459   3.639   6.029   9.361  0.7444 -0.2518 -0.5662
  161DOPC  H15R19460   3.582   5.939   9.328  0.2274 -1.0234  2.1765
  161DOPC  H15S19461   3.567   6.111   9.375 -1.0742 -1.7321 -0.8408
  161DOPC  C21619462   3.682   6.011   9.507 -0.4489 -0.4566  0.5613
  161DOPC  H16R19463   3.753   6.090   9.539 -1.7313  2.0090 -2.2185
  161DOPC  H16S19464   3.734   5.913   9.498 -2.7304 -1.6410 -0.6134
  161DOPC  C21719465   3.563   6.007   9.600 -0.8071  0.5731  0.1866
  161DOPC  H17R19466   3.488   5.937   9.558  0.1475 -0.5217  0.2775
  161DOPC  H17S19467   3.519   6.109   9.602 -1.6084  0.4032 -3.0352
  161DOPC  C21819468   3.605   5.965   9.738 -0.2910  0.3688 -0.4941
  161DOPC  H18R19469   3.521   5.962   9.811 -0.9740 -1.9363 -1.2752
  161DOPC  H18S19470   3.672   6.041   9.784  1.8003 -1.9524  0.5162
  161DOPC  H18T19471   3.657   5.867   9.738 -0.1419  0.4298  0.8697
  161DOPC   C3319472   4.023   6.071   9.716  0.1429  0.5807  0.0316
  161DOPC   H3X19473   3.918   6.036   9.726 -0.3172  2.1974  1.1934
  161DOPC   H3Y19474   4.081   6.001   9.780 -1.7532  0.0463  1.2527
  161DOPC   C3419475   4.079   6.070   9.575 -0.2924  0.5265  0.3640
  161DOPC   H4X19476   4.186   6.099   9.581  0.2305 -0.6420 -1.9949
  161DOPC   H4Y19477   4.024   6.147   9.516 -0.0183  1.4107  1.2346
  161DOPC   C3519478   4.076   5.930   9.504 -0.4488 -0.0540 -0.5478
  161DOPC   H5X19479   3.970   5.907   9.480 -1.0426 -0.3514  2.0425
  161DOPC   H5Y19480   4.127   5.864   9.578  0.9773  2.3807  0.7448
  161DOPC   C3619481   4.145   5.930   9.365  0.3519  0.3836  0.4639
  161DOPC   H6X19482   4.147   5.823   9.333 -1.8405  0.6032 -0.5917
  161DOPC   H6Y19483   4.079   5.991   9.301  1.6091  1.2123 -0.0880
  161DOPC   C3719484   4.291   5.984   9.371 -0.0148 -0.2262 -0.2258
  161DOPC   H7X19485   4.290   6.082   9.424 -0.5176 -0.6555  0.5800
  161DOPC   H7Y19486   4.338   5.911   9.440  5.0799  0.3362 -2.6156
  161DOPC   C3819487   4.355   5.993   9.236 -0.6925 -0.2836  0.8655
  161DOPC   H8X19488   4.451   6.049   9.243  0.3974 -1.6893 -1.6618
  161DOPC   H8Y19489   4.293   6.053   9.166 -0.6929 -2.7681 -1.4100
  161DOPC   C3919490   4.379   5.854   9.189 -0.6492 -0.1541 -0.6007
  161DOPC   H9X19491   4.401   5.783   9.271 -0.7216 -0.8213 -1.1521
  161DOPC  C31019492   4.413   5.818   9.065  0.3518  0.3420  0.0741
  161DOPC  H10X19493   4.429   5.713   9.037 -3.1478  0.1389 -1.6246
  161DOPC  C31119494   4.406   5.911   8.943 -0.1834  0.4706 -0.5396
  161DOPC  H11X19495   4.307   5.959   8.924 -0.6757 -0.8826 -1.5257
  161DOPC  H11Y19496   4.414   5.846   8.853  0.3860 -1.5201  0.8808
  161DOPC  C31219497   4.529   6.014   8.937 -0.1089  0.2887  0.1123
  161DOPC  H12X19498   4.628   5.963   8.939  0.7498  1.8353 -0.7384
  161DOPC  H12Y19499   4.523   6.070   9.032  1.3457 -2.1487  1.7374
  161DOPC  C31319500   4.512   6.112   8.825 -0.3902 -0.7363  0.4559
  161DOPC  H13X19501   4.513   6.061   8.726  0.4406 -0.7195  0.4516
  161DOPC  H13Y19502   4.419   6.173   8.826 -1.0212 -1.6036 -0.8445
  161DOPC  C31419503   4.632   6.209   8.840  0.2142  0.7069 -0.4773
  161DOPC  H14X19504   4.611   6.310   8.798  0.3975  0.4747 -1.1317
  161DOPC  H14Y19505   4.641   6.236   8.947 -0.3163  0.7002 -0.4277
  161DOPC  C31519506   4.759   6.151   8.772 -0.3428  0.3848  0.2827
  161DOPC  H15X19507   4.764   6.041   8.784 -0.3967  0.2351 -0.9654
  161DOPC  H15Y19508   4.838   6.197   8.836  2.0280 -1.1030 -1.4411
  161DOPC  C31619509   4.794   6.211   8.640  0.6008 -0.1077 -0.0042
  161DOPC  H16X19510   4.765   6.318   8.637 -0.4369 -0.3835 -3.1362
  161DOPC  H16Y19511   4.904   6.199   8.626  0.6473 -0.7350  0.7894
  161DOPC  C31719512   4.725   6.138   8.518  0.7159 -0.4153  0.2136
  161DOPC  H17X19513   4.723   6.027   8.531  0.8599 -0.6963 -1.7791
  161DOPC  H17Y19514   4.618   6.167   8.517  0.3630 -1.3480  2.7842
  161DOPC  C31819515   4.782   6.165   8.390  0.5165 -0.2564 -0.4227
  161DOPC  H18X19516   4.707   6.136   8.313 -0.1783  0.6796 -0.1247
  161DOPC  H18Y19517   4.815   6.269   8.373  0.1602 -0.1699 -0.6010
  161DOPC  H18Z19518   4.877   6.110   8.372  0.2732 -0.7583 -0.2207
  162DOPC     N19519   6.437   6.458  10.402 -0.2481  0.4288  0.3644
  162DOPC   C1219520   6.477   6.431  10.261  0.4113  0.3701  0.3157
  162DOPC  H12A19521   6.580   6.460  10.245  0.6231 -1.1231 -1.4180
  162DOPC  H12B19522   6.407   6.483  10.197 -0.2898 -0.9657 -0.0379
  162DOPC   C1319523   6.521   6.380  10.494 -0.9190 -0.2195  0.0187
  162DOPC  H13A19524   6.624   6.410  10.486 -0.8893 -0.1355  0.6769
  162DOPC  H13B19525   6.505   6.389  10.600  2.6248  2.4644  0.4828
  162DOPC  H13C19526   6.517   6.273  10.475 -1.3074 -0.0827 -0.7299
  162DOPC   C1419527   6.304   6.417  10.429  0.7000 -0.3149  0.7970
  162DOPC  H14A19528   6.281   6.444  10.532  0.5762  0.0440  0.6792
  162DOPC  H14B19529   6.222   6.458  10.371  0.9033  0.2460  0.8985
  162DOPC  H14C19530   6.291   6.310  10.424 -0.5811 -0.1392 -0.4741
  162DOPC   C1519531   6.453   6.608  10.438  0.1394 -0.2513 -0.2390
  162DOPC  H15A19532   6.395   6.614  10.528 -0.2921 -1.5158 -0.4155
  162DOPC  H15B19533   6.398   6.653  10.357  1.0255 -1.5466 -1.6387
  162DOPC  H15C19534   6.553   6.645  10.452 -0.2798  0.2299  1.6558
  162DOPC   C1119535   6.468   6.287  10.207  0.0059  0.4494  0.1822
  162DOPC  H11A19536   6.363   6.253  10.211 -0.3366  1.5469  0.7605
  162DOPC  H11B19537   6.496   6.281  10.099 -0.5085 -4.2531  0.1058
  162DOPC     P19538   6.694   6.173  10.235  0.0601  0.3079  0.4069
  162DOPC   O1319539   6.752   6.072  10.332  0.0980  0.0155  0.1666
  162DOPC   O1419540   6.769   6.302  10.214 -0.1429  0.3485  0.1951
  162DOPC   O1219541   6.545   6.200  10.275  0.0601  0.5825  0.1305
  162DOPC   O1119542   6.671   6.102  10.096 -0.5707  0.2574  0.0656
  162DOPC    C119543   6.609   5.974  10.105 -0.2172 -0.0853  0.0620
  162DOPC    HA19544   6.506   5.981  10.063 -0.5010 -0.5618  0.6618
  162DOPC    HB19545   6.587   5.930  10.205 -1.7141  0.4117 -0.0277
  162DOPC    C219546   6.698   5.872  10.019  0.4235 -0.1526  0.0934
  162DOPC    HS19547   6.795   5.882  10.073  1.5055  1.3828 -1.9962
  162DOPC   O2119548   6.710   5.895   9.877  0.4451  0.5267  0.5544
  162DOPC   C2119549   6.820   5.839   9.825  0.0301 -0.9791  0.6796
  162DOPC   O2219550   6.909   5.791   9.889 -0.1258 -0.0336 -0.2827
  162DOPC   C2219551   6.817   5.861   9.671 -0.4566  0.2391  0.8992
  162DOPC   H2R19552   6.823   5.971   9.656  0.5389 -0.0234 -0.9071
  162DOPC   H2S19553   6.727   5.813   9.628  1.2352 -2.1755 -0.1533
  162DOPC    C319554   6.664   5.724  10.047  0.5126 -0.4673  0.3012
  162DOPC    HX19555   6.635   5.716  10.154  0.8008 -1.8836  0.2961
  162DOPC    HY19556   6.752   5.656  10.034  1.2780 -0.1712  3.1395
  162DOPC   O3119557   6.546   5.680   9.983 -0.8368 -0.2129 -0.1415
  162DOPC   C3119558   6.549   5.602   9.874 -0.0223 -0.5832  0.1217
  162DOPC   O3219559   6.655   5.555   9.829  0.1539  0.2186  0.1130
  162DOPC   C3219560   6.419   5.596   9.798  0.1852  0.0548 -0.0490
  162DOPC   H2X19561   6.378   5.495   9.822 -0.9735  0.6656  0.6258
  162DOPC   H2Y19562   6.347   5.674   9.830  0.2462  0.0975 -0.0156
  162DOPC   C2319563   6.939   5.791   9.601  0.2515 -0.4221 -0.2647
  162DOPC   H3R19564   6.932   5.812   9.492  1.2472 -0.5469 -0.3594
  162DOPC   H3S19565   6.944   5.685   9.635 -0.9029 -0.3252  0.2591
  162DOPC   C2419566   7.069   5.865   9.639  0.7423 -0.1095  0.6678
  162DOPC   H4R19567   7.088   5.847   9.747  0.4953 -0.0989  0.7130
  162DOPC   H4S19568   7.059   5.975   9.631  0.0700 -0.2050  0.0496
  162DOPC   C2519569   7.188   5.807   9.557 -0.4346 -0.0976 -0.0383
  162DOPC   H5R19570   7.171   5.809   9.448 -1.7689  2.8303  0.1155
  162DOPC   H5S19571   7.206   5.704   9.596  2.0327  1.4291  3.3533
  162DOPC   C2619572   7.314   5.887   9.588  0.9553 -0.1500  1.2167
  162DOPC   H6R19573   7.322   5.905   9.697  1.1809  3.0653  0.7737
  162DOPC   H6S19574   7.300   5.992   9.554  0.9714 -0.2031  1.0429
  162DOPC   C2719575   7.449   5.834   9.524  0.2980 -0.1479  0.1047
  162DOPC   H7R19576   7.470   5.733   9.565  1.2545 -1.1043 -2.5014
  162DOPC   H7S19577   7.540   5.885   9.561 -0.2051 -0.2105  1.4677
  162DOPC   C2819578   7.443   5.829   9.367 -0.1492 -0.2108 -0.1750
  162DOPC   H8R19579   7.431   5.931   9.324  1.1535 -0.2294 -0.6317
  162DOPC   H8S19580   7.353   5.773   9.334  0.5959 -1.1043 -0.7590
  162DOPC   C2919581   7.570   5.779   9.299  0.2716  0.3998 -0.4590
  162DOPC   H9R19582   7.660   5.842   9.310  0.5927 -0.5306  3.7138
  162DOPC  C21019583   7.589   5.653   9.257  0.5856 -0.4415 -0.1339
  162DOPC  H10R19584   7.677   5.630   9.196  0.1133 -0.5926 -0.7739
  162DOPC  C21119585   7.488   5.539   9.260 -0.1828 -0.1980  0.4893
  162DOPC  H11R19586   7.399   5.577   9.315 -0.7092 -1.4679  0.5524
  162DOPC  H11S19587   7.532   5.452   9.313  2.2985  0.1528 -0.8630
  162DOPC  C21219588   7.431   5.492   9.122 -0.6162 -0.2601  0.4312
  162DOPC  H12R19589   7.377   5.579   9.080  2.3165  2.3056  1.5414
  162DOPC  H12S19590   7.369   5.404   9.149 -1.4824 -0.1519 -1.1196
  162DOPC  C21319591   7.538   5.444   9.020 -0.5080 -0.2840 -0.4422
  162DOPC  H13R19592   7.620   5.385   9.066 -0.3950 -1.0496 -1.5840
  162DOPC  H13S19593   7.593   5.529   8.972  1.8102 -1.2566  0.3700
  162DOPC  C21419594   7.475   5.366   8.902 -0.6564  0.0850 -0.9800
  162DOPC  H14R19595   7.445   5.275   8.959  1.3145 -1.6147 -2.4796
  162DOPC  H14S19596   7.551   5.325   8.831  0.9817 -0.1918  0.8324
  162DOPC  C21519597   7.358   5.431   8.833  0.2120 -0.2311  0.2070
  162DOPC  H15R19598   7.401   5.525   8.794  0.2353 -0.1440  0.4378
  162DOPC  H15S19599   7.275   5.435   8.908  0.1143 -0.3309  0.1045
  162DOPC  C21619600   7.307   5.359   8.708  0.4163 -0.1821 -0.1424
  162DOPC  H16R19601   7.396   5.353   8.642  0.3717  1.4655 -0.4027
  162DOPC  H16S19602   7.233   5.424   8.656  2.4174 -1.1316 -4.6019
  162DOPC  C21719603   7.263   5.215   8.733  0.5597  0.7653 -0.0049
  162DOPC  H17R19604   7.230   5.219   8.839  0.1631  1.1152 -0.1370
  162DOPC  H17S19605   7.346   5.142   8.725 -0.3086 -0.2118 -0.3219
  162DOPC  C21819606   7.145   5.167   8.649  0.2478  0.0851  0.2059
  162DOPC  H18R19607   7.100   5.076   8.695 -0.2060 -0.5941 -1.5000
  162DOPC  H18S19608   7.186   5.138   8.550  1.5288 -1.4168  1.1205
  162DOPC  H18T19609   7.066   5.244   8.662 -2.2493 -2.6438  2.5633
  162DOPC   C3319610   6.441   5.596   9.644  0.0152 -0.1769  0.1160
  162DOPC   H3X19611   6.519   5.529   9.602 -1.0635  0.1619 -2.7076
  162DOPC   H3Y19612   6.479   5.699   9.623 -0.2835 -0.3566 -1.4704
  162DOPC   C3419613   6.317   5.566   9.562 -0.2390 -0.0694  0.8260
  162DOPC   H4X19614   6.236   5.642   9.572 -0.3502 -0.2964  1.8116
  162DOPC   H4Y19615   6.273   5.473   9.606 -1.4599 -0.3754 -0.9586
  162DOPC   C3519616   6.343   5.549   9.410 -0.3159 -0.3154 -0.0242
  162DOPC   H5X19617   6.396   5.636   9.365 -1.0877 -0.7482 -1.8544
  162DOPC   H5Y19618   6.250   5.548   9.350  0.4300  0.3990 -1.2300
  162DOPC   C3619619   6.410   5.405   9.385 -0.0545  0.3586 -0.0580
  162DOPC   H6X19620   6.496   5.388   9.454 -0.5820  0.0549  0.5327
  162DOPC   H6Y19621   6.349   5.317   9.412  0.5396  0.3162  1.2264
  162DOPC   C3719622   6.455   5.389   9.239  0.4963  0.1600  0.0223
  162DOPC   H7X19623   6.513   5.481   9.217  2.3359 -0.8069  0.5858
  162DOPC   H7Y19624   6.519   5.299   9.226  0.8880  0.0161  2.3766
  162DOPC   C3819625   6.338   5.384   9.141 -0.3290  0.0015  0.3392
  162DOPC   H8X19626   6.383   5.401   9.040 -0.0017  0.4687  0.5619
  162DOPC   H8Y19627   6.263   5.464   9.154 -0.8987 -0.6212  0.9605
  162DOPC   C3919628   6.262   5.259   9.157 -0.6195 -0.5653  0.2393
  162DOPC   H9X19629   6.192   5.262   9.242  0.3133  0.5375  1.0019
  162DOPC  C31019630   6.243   5.168   9.058  1.2255  0.0848  0.0991
  162DOPC  H10X19631   6.184   5.081   9.089  0.4369 -0.1058 -1.8239
  162DOPC  C31119632   6.317   5.148   8.923  0.8984 -0.4345 -0.2184
  162DOPC  H11X19633   6.332   5.245   8.872 -3.0644  0.2633 -0.3799
  162DOPC  H11Y19634   6.251   5.088   8.856 -0.3477  2.0663 -1.3643
  162DOPC  C31219635   6.452   5.075   8.907  0.3168  0.4118  0.6048
  162DOPC  H12X19636   6.457   4.972   8.948  0.6058  0.9916  2.0711
  162DOPC  H12Y19637   6.525   5.129   8.972  0.4924  0.0263  0.7281
  162DOPC  C31319638   6.514   5.090   8.764  0.3890 -0.1937 -0.2234
  162DOPC  H13X19639   6.431   5.059   8.697  1.2293 -1.8449 -0.5391
  162DOPC  H13Y19640   6.535   5.199   8.751  0.1147 -0.2622 -1.3653
  162DOPC  C31419641   6.641   5.000   8.757  0.2213 -0.2295  0.3077
  162DOPC  H14X19642   6.705   5.029   8.671  0.0459  1.2784  0.6581
  162DOPC  H14Y19643   6.707   5.033   8.841 -1.2612  3.4270  0.2165
  162DOPC  C31519644   6.607   4.848   8.756 -0.3779 -0.1932 -0.5896
  162DOPC  H15X19645   6.515   4.830   8.696 -1.7777  2.1622  0.7028
  162DOPC  H15Y19646   6.591   4.810   8.859 -1.1062 -0.9216 -0.9609
  162DOPC  C31619647   6.740   4.769   8.713 -0.3124  0.7166  0.2717
  162DOPC  H16X19648   6.832   4.802   8.765  0.6985 -0.2949 -0.8141
  162DOPC  H16Y19649   6.723   4.659   8.717  0.6172  0.5897  0.8575
  162DOPC  C31719650   6.770   4.779   8.563  0.3918 -0.3557 -0.4289
  162DOPC  H17X19651   6.674   4.777   8.508  0.7416  1.9503 -1.2126
  162DOPC  H17Y19652   6.815   4.878   8.539 -0.3363  0.4220  1.2709
  162DOPC  C31819653   6.865   4.668   8.504  0.1125  0.8306 -0.5152
  162DOPC  H18X19654   6.822   4.566   8.509 -1.8470  1.6531  0.3956
  162DOPC  H18Y19655   6.893   4.693   8.400 -2.4465  0.1512 -1.4467
  162DOPC  H18Z19656   6.958   4.682   8.564  0.1487  0.3731 -0.4564
  163DOPC     N19657   6.685   1.155  10.184  0.3249 -0.1283 -0.0854
  163DOPC   C1219658   6.599   1.192  10.058  0.2316 -0.7009  0.1948
  163DOPC  H12A19659   6.665   1.262  10.008 -2.6493  2.0051 -0.1631
  163DOPC  H12B19660   6.510   1.241  10.096  0.0134  0.2577 -1.4790
  163DOPC   C1319661   6.611   1.062  10.267 -0.6758  0.2744  0.4470
  163DOPC  H13A19662   6.564   0.987  10.205 -1.5567  1.9630 -1.0073
  163DOPC  H13B19663   6.678   1.030  10.346  1.9902  1.9055 -1.0178
  163DOPC  H13C19664   6.537   1.116  10.324 -1.1110  0.4990 -0.3123
  163DOPC   C1419665   6.722   1.277  10.268  0.1306 -0.3662 -0.0089
  163DOPC  H14A19666   6.645   1.346  10.301 -0.2059 -0.2682 -0.9848
  163DOPC  H14B19667   6.789   1.246  10.347  2.2680 -0.5945 -1.8390
  163DOPC  H14C19668   6.773   1.348  10.205  0.0827 -2.4527 -2.5295
  163DOPC   C1519669   6.809   1.090  10.151  0.2933  0.0162 -0.6419
  163DOPC  H15A19670   6.874   1.092  10.238 -1.2598 -0.0104  0.5751
  163DOPC  H15B19671   6.859   1.156  10.081  0.9068  0.0203 -0.2131
  163DOPC  H15C19672   6.797   0.993  10.107 -0.4194  0.1409 -0.7352
  163DOPC   C1119673   6.558   1.080   9.964 -0.2386  0.0651 -0.0151
  163DOPC  H11A19674   6.509   1.124   9.874 -1.0452 -0.8703 -0.0562
  163DOPC  H11B19675   6.655   1.031   9.942  0.2122  0.1098  1.7396
  163DOPC     P19676   6.309   1.005  10.029  0.3972  0.3553 -0.1154
  163DOPC   O1319677   6.283   1.142  10.063  0.5987  0.3400  0.3406
  163DOPC   O1419678   6.251   0.904  10.118  0.6837 -0.1058 -0.5309
  163DOPC   O1219679   6.464   0.982  10.018 -0.3212 -0.2005 -0.3771
  163DOPC   O1119680   6.261   0.978   9.887  0.3436  0.3673 -0.1284
  163DOPC    C119681   6.174   1.062   9.810  0.9362 -0.5314 -0.1317
  163DOPC    HA19682   6.213   1.166   9.804  1.5242 -0.7222  0.2296
  163DOPC    HB19683   6.076   1.083   9.857  1.5770  1.9279  0.2361
  163DOPC    C219684   6.147   1.011   9.669  0.3944  0.4210  0.2056
  163DOPC    HS19685   6.083   1.077   9.607 -0.3932 -0.9700 -0.4974
  163DOPC   O2119686   6.084   0.881   9.677  0.5728  0.0421  0.0864
  163DOPC   C2119687   5.955   0.882   9.712  0.1544  0.1049  0.3316
  163DOPC   O2219688   5.890   0.981   9.736 -0.1245  0.3275 -0.3085
  163DOPC   C2219689   5.896   0.741   9.703  0.3711  1.2174  0.2022
  163DOPC   H2R19690   5.787   0.761   9.718 -0.0755 -0.6858 -0.2808
  163DOPC   H2S19691   5.947   0.692   9.789  0.1958  1.8342  0.6707
  163DOPC    C319692   6.275   0.988   9.585  0.0397 -0.4335 -0.8188
  163DOPC    HX19693   6.342   0.912   9.629  0.4728 -0.2582 -1.1652
  163DOPC    HY19694   6.334   1.083   9.585  0.8773 -0.9208  0.6806
  163DOPC   O3119695   6.250   0.964   9.446 -0.3091 -0.3030 -0.3248
  163DOPC   C3119696   6.253   0.835   9.409 -0.7425 -0.2669  0.6592
  163DOPC   O3219697   6.274   0.738   9.482  0.2864 -0.1600  0.3267
  163DOPC   C3219698   6.225   0.837   9.261  0.3111  0.1506  0.5271
  163DOPC   H2X19699   6.150   0.918   9.247  0.6646  0.8060  2.1831
  163DOPC   H2Y19700   6.322   0.876   9.223  0.4753 -0.2385  0.5462
  163DOPC   C2319701   5.931   0.679   9.564 -0.6192 -0.1439 -0.4509
  163DOPC   H3R19702   6.038   0.648   9.562 -0.0720  1.6018  0.0046
  163DOPC   H3S19703   5.921   0.761   9.490 -0.2827 -0.1868 -0.5462
  163DOPC   C2419704   5.837   0.565   9.531 -0.2330 -0.5948  0.4824
  163DOPC   H4R19705   5.735   0.610   9.530  0.4223  0.9417  0.0191
  163DOPC   H4S19706   5.847   0.484   9.606 -1.6872  0.1197  1.5001
  163DOPC   C2519707   5.863   0.518   9.384  0.0366  0.3809  0.0531
  163DOPC   H5R19708   5.860   0.597   9.306  1.6871  0.5984  0.1775
  163DOPC   H5S19709   5.769   0.461   9.368 -0.4637  1.4948 -1.1205
  163DOPC   C2619710   5.988   0.428   9.364  0.5202 -0.7971  0.2130
  163DOPC   H6R19711   5.972   0.335   9.422 -1.5494 -1.2894 -1.0493
  163DOPC   H6S19712   6.073   0.491   9.399 -0.2172 -0.5257  1.5934
  163DOPC   C2719713   6.011   0.385   9.227 -0.3933 -0.5618  0.2948
  163DOPC   H7R19714   6.000   0.467   9.153 -0.1441  0.0060  0.8692
  163DOPC   H7S19715   5.954   0.291   9.207  0.0586 -0.8277  0.2572
  163DOPC   C2819716   6.158   0.335   9.205 -0.2383 -0.2836  0.0286
  163DOPC   H8R19717   6.229   0.410   9.245 -1.2061  0.0055  1.2800
  163DOPC   H8S19718   6.166   0.330   9.094 -1.0875 -1.1553 -0.0134
  163DOPC   C2919719   6.188   0.193   9.253 -0.9978 -0.1867 -0.4097
  163DOPC   H9R19720   6.255   0.184   9.340  0.1866  0.4250 -1.2213
  163DOPC  C21019721   6.156   0.075   9.204 -0.3377  0.3305  0.3310
  163DOPC  H10R19722   6.178  -0.010   9.271 -2.5213  0.6725  1.5898
  163DOPC  C21119723   6.070   0.049   9.083  0.0138  0.1579 -0.5110
  163DOPC  H11R19724   5.999   0.134   9.076 -0.2170  0.0923  0.8146
  163DOPC  H11S19725   6.007  -0.041   9.102  1.1581 -0.6438 -0.4181
  163DOPC  C21219726   6.158   0.037   8.959  0.2823 -0.2257  1.0474
  163DOPC  H12R19727   6.230  -0.046   8.978  1.5586  0.6715  0.3010
  163DOPC  H12S19728   6.219   0.130   8.956 -0.8184  0.5358  1.6862
  163DOPC  C21319729   6.084   0.019   8.831 -0.2759  0.3304  0.6168
  163DOPC  H13R19730   6.023   0.106   8.798 -2.5809 -1.8863 -1.4479
  163DOPC  H13S19731   6.011  -0.062   8.850 -0.6236  0.9975  2.2554
  163DOPC  C21419732   6.157  -0.029   8.700  0.3853 -0.2376  0.0406
  163DOPC  H14R19733   6.093  -0.070   8.619 -1.4484 -0.9412  1.7657
  163DOPC  H14S19734   6.236  -0.106   8.715 -0.7466 -1.0635  2.1559
  163DOPC  C21519735   6.231   0.085   8.631  0.1715 -0.6455 -0.2892
  163DOPC  H15R19736   6.295   0.127   8.711  0.7174 -0.2805 -0.9138
  163DOPC  H15S19737   6.165   0.168   8.599  2.3231  1.2311 -0.0725
  163DOPC  C21619738   6.320   0.047   8.517 -0.2032  0.5767  0.0695
  163DOPC  H16R19739   6.259   0.001   8.437 -0.6423  0.1976  0.6123
  163DOPC  H16S19740   6.399  -0.022   8.553 -3.3007 -2.7799  1.0245
  163DOPC  C21719741   6.389   0.169   8.467  0.2900  0.4591  0.0786
  163DOPC  H17R19742   6.466   0.191   8.544  1.5578 -0.6407 -0.8264
  163DOPC  H17S19743   6.313   0.248   8.450  0.5490  1.3261  2.5914
  163DOPC  C21819744   6.463   0.132   8.334  0.5805 -0.2494 -0.2589
  163DOPC  H18R19745   6.519   0.036   8.344 -0.3592 -0.8663 -0.7647
  163DOPC  H18S19746   6.535   0.212   8.307  0.7756 -0.5079 -0.5020
  163DOPC  H18T19747   6.392   0.113   8.250 -0.0278  0.2054  0.1413
  163DOPC   C3319748   6.211   0.705   9.182  0.0326 -0.5580  0.2915
  163DOPC   H3X19749   6.120   0.649   9.211 -0.4088  0.9194  1.8908
  163DOPC   H3Y19750   6.298   0.639   9.206  2.1306  1.4700 -1.2300
  163DOPC   C3419751   6.215   0.729   9.029 -0.5627 -0.4953  0.6048
  163DOPC   H4X19752   6.307   0.786   9.004 -0.9221  1.4528  3.3331
  163DOPC   H4Y19753   6.135   0.796   8.993 -1.9007 -1.5656  1.4608
  163DOPC   C3519754   6.202   0.602   8.946  0.1610 -0.4358 -0.0047
  163DOPC   H5X19755   6.103   0.560   8.975 -0.1567 -1.1672 -2.0224
  163DOPC   H5Y19756   6.278   0.525   8.972  0.3407 -0.3397 -0.2450
  163DOPC   C3619757   6.207   0.621   8.789 -0.6241 -0.2565  0.2183
  163DOPC   H6X19758   6.154   0.714   8.757 -1.1233 -0.7816 -0.5180
  163DOPC   H6Y19759   6.310   0.633   8.750 -1.2017 -0.1876 -1.3680
  163DOPC   C3719760   6.139   0.501   8.730  1.3596 -0.3896  0.2967
  163DOPC   H7X19761   6.198   0.409   8.749  1.6807  0.2177  2.5152
  163DOPC   H7Y19762   6.044   0.488   8.786  0.6158  0.8362 -0.6281
  163DOPC   C3819763   6.108   0.518   8.580  0.1169  0.0790  0.0520
  163DOPC   H8X19764   6.081   0.417   8.543 -1.8135  0.5160  0.1748
  163DOPC   H8Y19765   6.199   0.562   8.534 -0.2824 -0.0635 -0.9081
  163DOPC   C3919766   5.997   0.619   8.552 -0.2846 -0.0506 -0.0815
  163DOPC   H9X19767   5.902   0.623   8.607 -1.6774  1.1071 -2.4158
  163DOPC  C31019768   6.006   0.711   8.461 -1.1111 -0.3621  0.0535
  163DOPC  H10X19769   5.918   0.775   8.445 -0.4325  0.1935 -1.7095
  163DOPC  C31119770   6.107   0.730   8.353 -0.2088 -0.0278 -0.5279
  163DOPC  H11X19771   6.108   0.649   8.278  1.6480 -0.4475 -0.0963
  163DOPC  H11Y19772   6.204   0.731   8.409 -1.4159  1.9090  1.7379
  163DOPC  C31219773   6.119   0.878   8.293  0.5948  0.0226 -0.2132
  163DOPC  H12X19774   6.212   0.882   8.232  0.4420  1.7329 -0.3941
  163DOPC  H12Y19775   6.132   0.951   8.376  1.6013 -1.4420  0.9569
  163DOPC  C31319776   6.000   0.920   8.200  0.6738 -0.0212  0.2651
  163DOPC  H13X19777   6.028   0.889   8.096 -0.1164 -1.0530  0.3474
  163DOPC  H13Y19778   5.908   0.866   8.231 -0.2908 -0.0935 -2.4118
  163DOPC  C31419779   5.973   1.074   8.195 -0.2906 -0.2287  0.2139
  163DOPC  H14X19780   6.072   1.123   8.187  1.2677 -3.3420 -1.3868
  163DOPC  H14Y19781   5.915   1.110   8.107 -0.5801 -0.4341  0.3218
  163DOPC  C31519782   5.904   1.109   8.320  0.4421  0.6201  0.0036
  163DOPC  H15X19783   5.966   1.087   8.410 -1.5773  2.9847  2.1688
  163DOPC  H15Y19784   5.811   1.050   8.333 -0.3326  1.3989 -1.7217
  163DOPC  C31619785   5.876   1.263   8.335  0.3826  0.4102  0.2026
  163DOPC  H16X19786   5.972   1.318   8.331 -0.3357  1.6566 -1.1724
  163DOPC  H16Y19787   5.824   1.291   8.240 -0.0849  0.2100  0.3946
  163DOPC  C31719788   5.787   1.318   8.449  0.5357 -0.4659 -0.3295
  163DOPC  H17X19789   5.690   1.266   8.465  0.7314 -0.5866  0.5014
  163DOPC  H17Y19790   5.843   1.291   8.541  1.5642  1.4085 -0.3594
  163DOPC  C31819791   5.761   1.472   8.451 -0.0600  0.4272 -0.2878
  163DOPC  H18X19792   5.674   1.496   8.387 -0.5420  0.2466  0.2947
  163DOPC  H18Y19793   5.744   1.504   8.556 -1.3266 -0.1272 -0.3142
  163DOPC  H18Z19794   5.855   1.515   8.411 -0.1294  0.6654 -0.1981
  164DOPC     N19795   6.921   7.515  10.104 -0.6570  0.0522  0.4633
  164DOPC   C1219796   6.895   7.589   9.975  0.0460  0.2112  0.0857
  164DOPC  H12A19797   6.880   7.694   9.996  0.0924  0.2928 -0.2830
  164DOPC  H12B19798   6.804   7.546   9.935  1.0106 -1.9639  0.0823
  164DOPC   C1319799   7.023   7.584  10.192  0.5525 -0.6942  0.2007
  164DOPC  H13A19800   6.980   7.663  10.251  0.8647 -0.8053  0.5801
  164DOPC  H13B19801   7.070   7.503  10.245 -2.9321 -1.7608  1.9155
  164DOPC  H13C19802   7.108   7.619  10.134  2.2035 -0.2627  2.6984
  164DOPC   C1419803   6.958   7.372  10.076 -0.1402 -0.7350 -0.0571
  164DOPC  H14A19804   6.951   7.313  10.166  0.5465  0.5252  0.8651
  164DOPC  H14B19805   6.899   7.335   9.994  0.6307 -0.0263 -0.9562
  164DOPC  H14C19806   7.059   7.383  10.040 -0.4087 -0.6596 -0.8146
  164DOPC   C1519807   6.792   7.517  10.179  0.6561  0.1018  0.0622
  164DOPC  H15A19808   6.708   7.487  10.118  0.3742 -1.8993  1.3268
  164DOPC  H15B19809   6.759   7.614  10.213 -1.9312 -0.3097 -1.0445
  164DOPC  H15C19810   6.812   7.465  10.271  1.1451 -0.9435 -0.6159
  164DOPC   C1119811   7.006   7.589   9.869  0.8359 -0.2079  0.1090
  164DOPC  H11A19812   7.028   7.483   9.844  0.1481  0.5072 -4.2468
  164DOPC  H11B19813   6.966   7.625   9.772  3.0357  0.5212 -0.5896
  164DOPC     P19814   7.145   7.811   9.921 -0.1074  0.4701 -0.1297
  164DOPC   O1319815   7.273   7.831   9.994 -0.1513 -0.0252 -0.0369
  164DOPC   O1419816   7.019   7.874   9.970 -0.1745  0.4756  0.5814
  164DOPC   O1219817   7.129   7.651   9.898 -0.5283  0.1478 -0.8842
  164DOPC   O1119818   7.168   7.869   9.779  0.5697 -0.4101 -0.6239
  164DOPC    C119819   7.238   7.802   9.674  0.2457  0.1560 -0.7319
  164DOPC    HA19820   7.189   7.704   9.658  0.7949 -0.4292  0.9392
  164DOPC    HB19821   7.345   7.785   9.700  0.5010  1.0779 -1.1408
  164DOPC    C219822   7.237   7.878   9.540  0.1718 -0.4411 -0.5540
  164DOPC    HS19823   7.317   7.954   9.534 -0.8692  0.6155 -2.1067
  164DOPC   O2119824   7.108   7.934   9.515  0.4631 -0.6015  0.1091
  164DOPC   C2119825   7.087   8.054   9.565 -0.1461 -0.0429  0.1803
  164DOPC   O2219826   7.167   8.123   9.623 -0.0810  0.5083 -0.2550
  164DOPC   C2219827   6.944   8.095   9.535 -0.6980 -0.4297  0.2822
  164DOPC   H2R19828   6.932   8.200   9.569 -0.5014  0.6993 -2.8043
  164DOPC   H2S19829   6.871   8.035   9.593  0.6104 -0.9441  1.4475
  164DOPC    C319830   7.268   7.776   9.430  0.1598 -0.5009 -0.4011
  164DOPC    HX19831   7.204   7.688   9.449 -0.0204 -0.5264 -1.1119
  164DOPC    HY19832   7.373   7.744   9.447 -0.0757 -0.9116  0.3113
  164DOPC   O3119833   7.251   7.828   9.299 -0.2253 -0.7768  0.2148
  164DOPC   C3119834   7.364   7.873   9.230 -0.0413 -0.2591 -0.5436
  164DOPC   O3219835   7.479   7.869   9.272  0.0117 -0.1812 -0.2182
  164DOPC   C3219836   7.309   7.936   9.104 -0.5759  0.2039  0.2815
  164DOPC   H2X19837   7.257   7.852   9.053 -0.8211  0.6839 -0.2713
  164DOPC   H2Y19838   7.232   8.010   9.135  0.3426  0.6606  1.5416
  164DOPC   C2319839   6.913   8.095   9.386 -0.3935  0.2153  0.4578
  164DOPC   H3R19840   6.808   8.132   9.378  0.1266  1.7014  0.1721
  164DOPC   H3S19841   6.923   7.992   9.347  0.2678 -0.3816  2.1015
  164DOPC   C2419842   7.003   8.188   9.305 -0.3637 -0.2038  0.1637
  164DOPC   H4R19843   7.107   8.174   9.341 -1.1397 -0.9483  2.3261
  164DOPC   H4S19844   6.975   8.294   9.321 -0.1296  0.1247 -1.4558
  164DOPC   C2519845   7.003   8.156   9.155 -0.7303 -0.1312  0.1907
  164DOPC   H5R19846   6.900   8.172   9.117 -0.3912 -1.1000 -1.1918
  164DOPC   H5S19847   7.031   8.054   9.122  0.4808  0.2487 -0.0033
  164DOPC   C2619848   7.087   8.252   9.067 -0.2006  0.3112  0.2363
  164DOPC   H6R19849   7.191   8.246   9.106 -0.0756 -0.9818 -0.2528
  164DOPC   H6S19850   7.044   8.354   9.078 -0.6294  0.1043  0.4732
  164DOPC   C2719851   7.090   8.205   8.922  0.0409  0.0690 -0.0934
  164DOPC   H7R19852   6.991   8.215   8.873  0.9058 -0.5220 -2.0381
  164DOPC   H7S19853   7.115   8.097   8.922 -1.1838 -0.2543 -1.4444
  164DOPC   C2819854   7.189   8.268   8.819  0.6386 -0.2732  0.0446
  164DOPC   H8R19855   7.293   8.266   8.856  0.7390  0.4478 -0.1727
  164DOPC   H8S19856   7.164   8.376   8.832 -1.8035 -0.8750  0.8688
  164DOPC   C2919857   7.179   8.221   8.673  0.5767 -0.1616 -0.4050
  164DOPC   H9R19858   7.242   8.142   8.630 -0.4457  0.2323 -2.8094
  164DOPC  C21019859   7.097   8.272   8.580  0.8344 -0.4645  0.7228
  164DOPC  H10R19860   7.072   8.228   8.483 -0.7056 -0.9540  1.2967
  164DOPC  C21119861   7.008   8.386   8.613  0.4404 -0.2222 -0.8186
  164DOPC  H11R19862   7.046   8.465   8.682 -0.4760 -0.2417 -0.2640
  164DOPC  H11S19863   6.911   8.361   8.661  0.9135  1.5480  1.2123
  164DOPC  C21219864   6.977   8.468   8.489 -0.4529  0.1179 -0.1961
  164DOPC  H12R19865   6.877   8.514   8.505  0.3752  2.3684 -1.0906
  164DOPC  H12S19866   6.963   8.408   8.396 -1.8815  1.5685 -0.9742
  164DOPC  C21319867   7.076   8.586   8.474  0.3644 -0.1720 -0.6398
  164DOPC  H13R19868   7.177   8.539   8.472  0.5015 -0.0904  1.5095
  164DOPC  H13S19869   7.074   8.652   8.563 -1.0057 -0.6915 -0.2696
  164DOPC  C21419870   7.047   8.663   8.342 -0.5911  0.7161  0.2713
  164DOPC  H14R19871   7.034   8.580   8.269  0.2332  0.3672  0.5085
  164DOPC  H14S19872   7.134   8.727   8.315 -0.9811  0.4437 -1.7561
  164DOPC  C21519873   6.912   8.738   8.350 -0.0424 -0.5034  0.0718
  164DOPC  H15R19874   6.906   8.813   8.431 -0.4305  0.9262 -1.2331
  164DOPC  H15S19875   6.828   8.665   8.352  1.8927 -2.8716 -0.3384
  164DOPC  C21619876   6.906   8.808   8.212 -0.5141  0.2261  0.2777
  164DOPC  H16R19877   6.916   8.737   8.127 -3.4249  0.8572 -0.6962
  164DOPC  H16S19878   6.985   8.884   8.197 -2.3041  1.7446 -2.0170
  164DOPC  C21719879   6.782   8.889   8.183  0.2084 -0.1930 -0.6359
  164DOPC  H17R19880   6.692   8.824   8.178 -0.2028  0.3159  0.0246
  164DOPC  H17S19881   6.809   8.921   8.080  0.3453 -0.9582 -0.8408
  164DOPC  C21819882   6.765   9.018   8.265 -0.0269  0.8681  0.3517
  164DOPC  H18R19883   6.692   9.082   8.211 -2.6643 -0.6407  1.8805
  164DOPC  H18S19884   6.857   9.068   8.302 -1.3687  2.5938  1.5999
  164DOPC  H18T19885   6.727   8.984   8.364  0.1410 -2.1356 -0.5118
  164DOPC   C3319886   7.411   8.011   9.014 -0.1611  0.2956 -0.1183
  164DOPC   H3X19887   7.493   8.051   9.078  0.0673  0.3605 -0.4487
  164DOPC   H3Y19888   7.369   8.096   8.955 -0.2095 -0.1753 -0.7741
  164DOPC   C3419889   7.469   7.927   8.899 -0.2296  0.0203  0.8894
  164DOPC   H4X19890   7.385   7.900   8.831  1.1105  0.9701 -1.2574
  164DOPC   H4Y19891   7.524   7.834   8.926 -1.7501 -0.7314  1.5445
  164DOPC   C3519892   7.570   8.009   8.810  0.0080 -0.0557 -1.4538
  164DOPC   H5X19893   7.655   8.029   8.880 -1.6812  0.9112  0.4173
  164DOPC   H5Y19894   7.530   8.112   8.797  0.8091  0.9089  2.4654
  164DOPC   C3619895   7.615   7.947   8.678 -0.0529 -1.0037  0.2232
  164DOPC   H6X19896   7.712   7.996   8.659  0.0055 -0.9009  0.7742
  164DOPC   H6Y19897   7.631   7.838   8.692  1.2542 -1.1044 -1.7226
  164DOPC   C3719898   7.514   7.983   8.557 -0.5617 -0.2214 -0.9239
  164DOPC   H7X19899   7.467   7.887   8.529  1.1359 -2.0784  2.0137
  164DOPC   H7Y19900   7.433   8.050   8.593 -1.2000 -0.9853 -0.9221
  164DOPC   C3819901   7.588   8.066   8.455 -0.2208  0.2261  0.4607
  164DOPC   H8X19902   7.683   8.011   8.433 -0.0082  0.0319  1.7521
  164DOPC   H8Y19903   7.619   8.157   8.509 -2.2927  0.6723  0.9522
  164DOPC   C3919904   7.498   8.088   8.342 -0.5644 -0.9372  0.4489
  164DOPC   H9X19905   7.480   7.996   8.283 -0.7318  0.2677 -1.4599
  164DOPC  C31019906   7.443   8.203   8.293 -0.1513 -0.0366  0.1292
  164DOPC  H10X19907   7.386   8.193   8.200  1.2668 -1.1839 -0.6443
  164DOPC  C31119908   7.445   8.346   8.353 -0.4723 -0.3578  0.1981
  164DOPC  H11X19909   7.495   8.347   8.452  0.8808 -1.1754 -0.4445
  164DOPC  H11Y19910   7.338   8.375   8.360 -0.2484  0.3726  0.6638
  164DOPC  C31219911   7.496   8.467   8.268  0.1679 -0.0089 -0.2270
  164DOPC  H12X19912   7.456   8.448   8.166  0.9035 -0.3135 -0.4706
  164DOPC  H12Y19913   7.607   8.466   8.269  0.1903  1.3263  0.2497
  164DOPC  C31319914   7.479   8.612   8.334  0.3533  0.1748  0.9829
  164DOPC  H13X19915   7.371   8.635   8.352 -0.1183 -1.4558  0.4313
  164DOPC  H13Y19916   7.538   8.607   8.428  0.7028 -2.3704  0.6984
  164DOPC  C31419917   7.528   8.715   8.231 -0.5284  0.3172  0.0001
  164DOPC  H14X19918   7.491   8.690   8.129 -0.2773  0.5402 -0.1464
  164DOPC  H14Y19919   7.635   8.687   8.230 -0.3045  1.0876  1.1188
  164DOPC  C31519920   7.504   8.863   8.265  0.2770  0.1807  0.3177
  164DOPC  H15X19921   7.399   8.875   8.300 -0.5289 -3.6516 -0.2701
  164DOPC  H15Y19922   7.533   8.926   8.178  0.7326 -0.7576 -0.2259
  164DOPC  C31619923   7.592   8.906   8.384  0.0745 -0.5438  0.4112
  164DOPC  H16X19924   7.534   8.893   8.478 -0.4581 -2.1098 -0.1046
  164DOPC  H16Y19925   7.680   8.841   8.399 -0.0834 -0.4964  1.6570
  164DOPC  C31719926   7.632   9.056   8.374  0.2919 -0.7733  0.1401
  164DOPC  H17X19927   7.679   9.081   8.471  2.7345  0.3044 -1.2525
  164DOPC  H17Y19928   7.705   9.077   8.293  1.8062 -3.5065  0.6935
  164DOPC  C31819929   7.512   9.152   8.350  0.1820  0.6778 -0.4361
  164DOPC  H18X19930   7.474   9.140   8.246  0.1391  0.8609 -0.4433
  164DOPC  H18Y19931   7.433   9.110   8.416  0.2372  0.0975 -0.7316
  164DOPC  H18Z19932   7.532   9.259   8.372 -0.6947  0.6686  0.5197
  165DOPC     N19933   2.751   0.132  10.453  0.1930 -0.4027 -0.4701
  165DOPC   C1219934   2.745   0.279  10.413  0.6882  0.2917 -0.1476
  165DOPC  H12A19935   2.735   0.344  10.499 -0.4522 -1.0028  0.7496
  165DOPC  H12B19936   2.664   0.307  10.348  0.3180 -0.6998 -0.1345
  165DOPC   C1319937   2.770   0.041  10.331 -0.4462  0.0865  0.7036
  165DOPC  H13A19938   2.799  -0.061  10.354  0.8477  0.4065  0.5572
  165DOPC  H13B19939   2.680   0.038  10.271  1.5140 -0.3680 -2.4246
  165DOPC  H13C19940   2.835   0.088  10.259 -1.5020 -1.0374 -1.0664
  165DOPC   C1419941   2.617   0.106  10.518 -0.0229  0.0252  0.2059
  165DOPC  H14A19942   2.532   0.133  10.457 -0.8955 -2.6789  0.0577
  165DOPC  H14B19943   2.608   0.003  10.551 -2.8247 -0.5163 -1.8742
  165DOPC  H14C19944   2.609   0.157  10.613 -1.9943  0.2398 -0.0327
  165DOPC   C1519945   2.875   0.113  10.534  0.0775 -0.2273  0.4856
  165DOPC  H15A19946   2.968   0.108  10.480  1.3256 -0.7979  2.5506
  165DOPC  H15B19947   2.861   0.020  10.588 -1.1804  0.0002  0.5994
  165DOPC  H15C19948   2.893   0.195  10.602  1.2049 -0.0551 -0.0004
  165DOPC   C1119949   2.872   0.345  10.354 -0.2498 -0.0189  0.2614
  165DOPC  H11A19950   2.903   0.289  10.263 -2.1195  0.0383 -0.4677
  165DOPC  H11B19951   2.835   0.442  10.314  0.0336  0.5365  1.3257
  165DOPC     P19952   3.006   0.495  10.524 -0.4998  0.3605  0.6749
  165DOPC   O1319953   3.144   0.482  10.575  0.2618  0.1611 -0.1700
  165DOPC   O1419954   2.892   0.520  10.616 -0.5340  0.2753  0.1013
  165DOPC   O1219955   2.975   0.360  10.452 -0.2991  0.4918 -0.2344
  165DOPC   O1119956   3.009   0.606  10.407 -0.1795  1.0800  0.8973
  165DOPC    C119957   3.097   0.572  10.298  0.1417 -0.4747 -0.3850
  165DOPC    HA19958   3.101   0.466  10.264  1.7678 -0.6153  0.1352
  165DOPC    HB19959   3.197   0.616  10.315 -0.9763  1.6512  1.0655
  165DOPC    C219960   3.053   0.656  10.174  0.4266  0.0035  0.5815
  165DOPC    HS19961   3.126   0.623  10.097  1.1945  1.1177  0.8124
  165DOPC   O2119962   3.066   0.799  10.200  0.4964 -0.2329 -0.0138
  165DOPC   C2119963   3.191   0.850  10.190  0.1633 -0.2814  0.4334
  165DOPC   O2219964   3.291   0.788  10.166 -0.2205 -0.4649 -0.5101
  165DOPC   C2219965   3.183   1.008  10.182 -0.7165 -0.0134  0.1705
  165DOPC   H2R19966   3.282   1.044  10.216  0.2767 -0.2676 -2.2446
  165DOPC   H2S19967   3.104   1.045  10.250 -1.0097 -0.5183  0.1145
  165DOPC    C319968   2.912   0.619  10.117  0.6624  0.1966 -0.4977
  165DOPC    HX19969   2.838   0.634  10.198  0.2852  0.0140 -0.8043
  165DOPC    HY19970   2.908   0.509  10.098 -2.9381  0.1157  0.0467
  165DOPC   O3119971   2.868   0.693  10.005  0.6816 -0.6371  0.3705
  165DOPC   C3119972   2.899   0.642   9.891 -1.0871 -0.0790  0.2872
  165DOPC   O3219973   2.961   0.535   9.883  0.4388 -0.0185  0.2860
  165DOPC   C3219974   2.848   0.729   9.775  0.5857  0.7862 -0.0965
  165DOPC   H2X19975   2.737   0.725   9.771  0.5597 -3.3974  0.1913
  165DOPC   H2Y19976   2.872   0.836   9.791  0.7259  0.9861 -1.5043
  165DOPC   C2319977   3.169   1.074  10.046  0.6729  0.3918 -0.2033
  165DOPC   H3R19978   3.254   1.041   9.983  0.5591  3.8219 -2.3846
  165DOPC   H3S19979   3.181   1.184  10.059 -0.0574  0.5878 -1.1027
  165DOPC   C2419980   3.032   1.043   9.981 -0.0601  0.9557 -0.9667
  165DOPC   H4R19981   3.022   0.934   9.962 -1.3803  0.9424 -0.3407
  165DOPC   H4S19982   3.047   1.091   9.882 -2.4439  3.4759 -0.2153
  165DOPC   C2519983   2.903   1.082  10.048  0.1051 -0.3031 -0.1156
  165DOPC   H5R19984   2.909   1.183  10.094 -1.9818  0.1996 -0.8367
  165DOPC   H5S19985   2.878   1.012  10.131 -1.3144 -1.2043 -1.2464
  165DOPC   C2619986   2.778   1.073   9.958  0.2388  0.5456  0.5915
  165DOPC   H6R19987   2.706   1.069  10.043  0.4777  1.7926  0.8753
  165DOPC   H6S19988   2.768   0.978   9.902  0.0890 -0.9624  3.0335
  165DOPC   C2719989   2.752   1.198   9.869  0.2876 -1.0827  0.0582
  165DOPC   H7R19990   2.831   1.198   9.791  0.2593 -3.2349 -0.0400
  165DOPC   H7S19991   2.751   1.285   9.939 -1.3666 -0.0754 -1.1344
  165DOPC   C2819992   2.615   1.208   9.793  1.0067  0.6294 -0.2099
  165DOPC   H8R19993   2.621   1.310   9.749  0.2067  1.8124  2.1925
  165DOPC   H8S19994   2.530   1.214   9.865  0.2501 -1.6583 -0.8446
  165DOPC   C2919995   2.589   1.094   9.699 -0.6421 -0.4217 -0.2520
  165DOPC   H9R19996   2.499   1.037   9.726 -0.8765 -0.2612 -0.6805
  165DOPC  C21019997   2.640   1.082   9.575 -0.1146  0.4195 -0.3690
  165DOPC  H10R19998   2.620   0.993   9.512 -0.3618  0.8729 -0.9416
  165DOPC  C21119999   2.737   1.179   9.515 -0.6781 -0.3145  0.3670
  165DOPC  H11R20000   2.825   1.116   9.487  0.9881  1.7899  0.5945
  165DOPC  H11S20001   2.789   1.243   9.590  0.9411 -1.3356  0.1753
  165DOPC  C21220002   2.683   1.264   9.397  0.2831 -0.0608 -0.5125
  165DOPC  H12R20003   2.755   1.342   9.364 -0.1151  0.0949 -1.0241
  165DOPC  H12S20004   2.597   1.324   9.432  0.5426  0.6208 -1.0192
  165DOPC  C21320005   2.647   1.184   9.267 -0.0956 -0.7547  0.6809
  165DOPC  H13R20006   2.570   1.108   9.294 -0.2609 -0.6733  0.4414
  165DOPC  H13S20007   2.736   1.135   9.224 -0.0168 -0.6563  0.7308
  165DOPC  C21420008   2.579   1.264   9.158 -0.4198  0.3607 -0.2503
  165DOPC  H14R20009   2.632   1.357   9.128 -1.0194  0.1662 -2.0658
  165DOPC  H14S20010   2.476   1.293   9.190  0.5967  4.3002 -0.0746
  165DOPC  C21520011   2.589   1.185   9.023  0.0239  0.1385 -0.1377
  165DOPC  H15R20012   2.578   1.075   9.037  0.4201  0.1514  0.3076
  165DOPC  H15S20013   2.685   1.203   8.970 -0.1776 -1.1253 -0.9880
  165DOPC  C21620014   2.489   1.248   8.921 -0.2797  0.3024  0.3842
  165DOPC  H16R20015   2.497   1.359   8.928  0.9996  0.2133  0.5909
  165DOPC  H16S20016   2.382   1.217   8.922 -0.5966  0.4410 -4.3467
  165DOPC  C21720017   2.527   1.222   8.772 -0.2027  0.3462 -0.8336
  165DOPC  H17R20018   2.495   1.120   8.741  1.2175 -0.2873 -0.2993
  165DOPC  H17S20019   2.637   1.236   8.775 -0.4685  2.7598  0.5928
  165DOPC  C21820020   2.476   1.329   8.675  0.2454  0.1210 -0.0936
  165DOPC  H18R20021   2.367   1.340   8.694  0.4557 -0.7761  1.9325
  165DOPC  H18S20022   2.509   1.307   8.571  3.6547  0.6468  0.7604
  165DOPC  H18T20023   2.519   1.430   8.696 -2.1430  1.8831 -2.8608
  165DOPC   C3320024   2.891   0.686   9.634 -0.3119 -0.4505 -0.0494
  165DOPC   H3X20025   2.867   0.580   9.613 -0.1927 -0.4771 -0.0551
  165DOPC   H3Y20026   2.995   0.712   9.604  0.3168 -1.8629  0.8202
  165DOPC   C3420027   2.816   0.765   9.523  0.0042  0.1502  0.7542
  165DOPC   H4X20028   2.844   0.871   9.538 -1.6255  0.3835  2.5595
  165DOPC   H4Y20029   2.706   0.758   9.534 -0.0207  0.5413  0.7655
  165DOPC   C3520030   2.855   0.723   9.377  0.4826  0.4639  0.2482
  165DOPC   H5X20031   2.841   0.613   9.366 -3.6863  0.8330  0.3368
  165DOPC   H5Y20032   2.962   0.748   9.362  0.4268  0.4509 -0.1937
  165DOPC   C3620033   2.769   0.783   9.260 -0.8498  0.1915  0.1219
  165DOPC   H6X20034   2.689   0.709   9.242 -0.8474  0.4401 -0.9731
  165DOPC   H6Y20035   2.732   0.885   9.283  0.7240  1.3742 -2.1852
  165DOPC   C3720036   2.862   0.799   9.127 -0.0011 -0.0205 -0.0683
  165DOPC   H7X20037   2.916   0.702   9.135 -0.1519 -0.2063 -1.1668
  165DOPC   H7Y20038   2.925   0.888   9.146  2.1465 -0.9433 -2.3256
  165DOPC   C3820039   2.787   0.819   8.998 -0.4294 -0.0180  0.5195
  165DOPC   H8X20040   2.862   0.816   8.916 -2.0362 -2.6105 -0.9857
  165DOPC   H8Y20041   2.741   0.920   9.005 -0.0118  0.1814  0.4324
  165DOPC   C3920042   2.692   0.713   8.955  0.0783 -0.4168 -0.0841
  165DOPC   H9X20043   2.591   0.719   9.000  0.3031  0.0944  0.3496
  165DOPC  C31020044   2.714   0.605   8.879  0.2763  0.0645  0.2582
  165DOPC  H10X20045   2.630   0.539   8.854 -0.4078 -0.1727  2.9060
  165DOPC  C31120046   2.840   0.566   8.803 -0.0699 -0.2522 -0.4417
  165DOPC  H11X20047   2.888   0.475   8.845  0.4531  0.9005  1.6120
  165DOPC  H11Y20048   2.923   0.640   8.815  0.1792 -0.7722  1.5089
  165DOPC  C31220049   2.815   0.542   8.654  0.1561 -0.2287 -0.0125
  165DOPC  H12X20050   2.758   0.448   8.636 -0.4571  0.1015  0.1833
  165DOPC  H12Y20051   2.913   0.524   8.604 -0.2110  0.7087 -1.1135
  165DOPC  C31320052   2.746   0.667   8.587  0.3613  0.3069  0.3486
  165DOPC  H13X20053   2.645   0.676   8.633 -0.8291 -0.0321 -1.9905
  165DOPC  H13Y20054   2.807   0.758   8.601  2.0580 -0.5613 -0.9887
  165DOPC  C31420055   2.729   0.629   8.436  0.5279 -0.5627 -0.1643
  165DOPC  H14X20056   2.676   0.531   8.433 -0.5676 -0.0765  1.5321
  165DOPC  H14Y20057   2.655   0.698   8.390  1.6440 -0.1926 -1.4669
  165DOPC  C31520058   2.856   0.629   8.357 -0.0688 -0.6358  0.2104
  165DOPC  H15X20059   2.927   0.559   8.406 -0.4354  0.9969  3.3249
  165DOPC  H15Y20060   2.907   0.727   8.365  1.9732 -1.2381 -3.3180
  165DOPC  C31620061   2.836   0.604   8.211 -0.0155  0.1360  0.2986
  165DOPC  H16X20062   2.769   0.516   8.200  0.3595  0.0318 -1.5493
  165DOPC  H16Y20063   2.778   0.680   8.154  0.9022  0.6519  0.0319
  165DOPC  C31720064   2.973   0.570   8.149 -0.2903 -0.5429 -0.6648
  165DOPC  H17X20065   3.020   0.503   8.225 -2.7883  0.7888  2.2818
  165DOPC  H17Y20066   2.960   0.522   8.050 -1.5044  1.6737 -1.6668
  165DOPC  C31820067   3.062   0.694   8.130 -0.3489 -0.4203  0.7790
  165DOPC  H18X20068   3.021   0.781   8.075  1.7042  0.3891  0.4139
  165DOPC  H18Y20069   3.088   0.734   8.231  2.0545 -4.7363  2.1179
  165DOPC  H18Z20070   3.159   0.677   8.078 -0.5359  1.1380 -0.1500
  166DOPC     N20071   5.472   7.375  10.347 -0.0440 -0.0532 -0.0453
  166DOPC   C1220072   5.326   7.337  10.328  0.5860 -0.2157  0.0102
  166DOPC  H12A20073   5.330   7.277  10.238  0.0570  1.2571 -1.0246
  166DOPC  H12B20074   5.264   7.423  10.311 -0.0985 -0.7077 -0.0530
  166DOPC   C1320075   5.568   7.264  10.327  0.4916  0.9336  0.3882
  166DOPC  H13A20076   5.667   7.302  10.304  0.4165  1.0024  0.1715
  166DOPC  H13B20077   5.576   7.211  10.420 -2.7014  0.4355  0.5126
  166DOPC  H13C20078   5.522   7.197  10.256 -1.2911  2.9304 -0.4810
  166DOPC   C1420079   5.502   7.437  10.476 -0.3812 -0.1758  0.3222
  166DOPC  H14A20080   5.493   7.360  10.552  1.8258 -0.4546  0.3614
  166DOPC  H14B20081   5.602   7.475  10.490 -0.7270  1.0606 -0.4239
  166DOPC  H14C20082   5.432   7.513  10.506  0.3973  0.5832  0.2493
  166DOPC   C1520083   5.505   7.479  10.246 -0.2077  0.2248  0.9176
  166DOPC  H15A20084   5.603   7.520  10.266  0.2394  0.5592 -1.5642
  166DOPC  H15B20085   5.446   7.569  10.249  1.0641  1.0658  2.4999
  166DOPC  H15C20086   5.506   7.425  10.152  1.6139 -0.1583  1.1120
  166DOPC   C1120087   5.251   7.253  10.437 -0.6950 -0.2151 -0.6261
  166DOPC  H11A20088   5.262   7.317  10.527 -0.3128  2.0923 -2.2287
  166DOPC  H11B20089   5.145   7.251  10.404 -0.1921  1.2608 -2.4985
  166DOPC     P20090   5.301   6.996  10.364  0.0871 -0.1089 -0.0061
  166DOPC   O1320091   5.224   6.896  10.440  0.0553  0.3296 -0.2122
  166DOPC   O1420092   5.437   6.954  10.313 -0.2884 -0.2047  0.5951
  166DOPC   O1220093   5.314   7.123  10.460 -0.2286 -0.1512  0.2094
  166DOPC   O1120094   5.209   7.049  10.243 -0.3588 -0.3470 -0.1441
  166DOPC    C120095   5.086   6.989  10.203 -0.0295 -0.2643 -0.8621
  166DOPC    HA20096   5.012   7.002  10.284 -1.6130 -0.3347 -2.2579
  166DOPC    HB20097   5.092   6.878  10.195  2.3436 -0.0574 -3.5051
  166DOPC    C220098   5.026   7.054  10.074  0.5929  0.7718 -0.1578
  166DOPC    HS20099   4.957   6.974  10.038 -0.2985  1.4587 -0.0045
  166DOPC   O2120100   5.136   7.093   9.989 -0.4006 -0.1282 -0.2017
  166DOPC   C2120101   5.185   6.990   9.919  0.0701 -0.3462  1.0193
  166DOPC   O2220102   5.142   6.874   9.925 -0.0895 -0.4000  0.1156
  166DOPC   C2220103   5.285   7.032   9.810  0.4363 -1.1195  1.0041
  166DOPC   H2R20104   5.383   7.021   9.861 -0.0370  1.8629  2.8055
  166DOPC   H2S20105   5.275   7.140   9.785  0.2653 -1.0031  1.5621
  166DOPC    C320106   4.943   7.171  10.111 -0.5978 -0.4499 -0.0818
  166DOPC    HX20107   5.003   7.252  10.157 -1.4454  0.4681 -0.5629
  166DOPC    HY20108   4.868   7.143  10.189 -0.0367  1.0514  1.0424
  166DOPC   O3120109   4.873   7.210   9.997 -0.4425 -0.3041  0.2261
  166DOPC   C3120110   4.927   7.294   9.914 -0.0238 -0.2145 -0.0193
  166DOPC   O3220111   5.029   7.363   9.934  0.3746  0.3893 -0.0869
  166DOPC   C3220112   4.845   7.296   9.788 -0.2493  0.4002 -0.3774
  166DOPC   H2X20113   4.755   7.234   9.807  0.1349  0.0550  0.3525
  166DOPC   H2Y20114   4.815   7.403   9.779  1.8330  1.0660 -0.0120
  166DOPC   C2320115   5.296   6.939   9.692 -0.2132 -0.1207 -0.1215
  166DOPC   H3R20116   5.198   6.915   9.644  0.6959 -0.8340 -1.6802
  166DOPC   H3S20117   5.347   6.845   9.722 -2.6134 -1.9631 -1.4124
  166DOPC   C2420118   5.363   6.999   9.572  0.1365 -0.2960  0.1105
  166DOPC   H4R20119   5.455   7.056   9.596 -0.6939  0.4552  1.6237
  166DOPC   H4S20120   5.295   7.073   9.526  4.0026  2.7454 -1.2498
  166DOPC   C2520121   5.400   6.898   9.463 -0.1094  0.3225 -0.8676
  166DOPC   H5R20122   5.303   6.856   9.428  0.6002 -2.4833  0.2718
  166DOPC   H5S20123   5.457   6.823   9.522 -0.1356 -1.2340 -2.7170
  166DOPC   C2620124   5.491   6.953   9.354  0.2509  0.0755  0.2232
  166DOPC   H6R20125   5.592   6.912   9.375  0.0333 -0.0341  1.0532
  166DOPC   H6S20126   5.494   7.064   9.345 -2.0639  0.0974 -1.1187
  166DOPC   C2720127   5.460   6.895   9.212  0.1828  0.5015 -0.7778
  166DOPC   H7R20128   5.354   6.917   9.188 -0.6190 -3.6096 -1.8132
  166DOPC   H7S20129   5.457   6.784   9.214 -1.1750  0.5119 -1.3198
  166DOPC   C2820130   5.551   6.950   9.108  0.3371  0.7643 -0.8885
  166DOPC   H8R20131   5.658   6.919   9.114  0.2498  0.4632 -0.8516
  166DOPC   H8S20132   5.557   7.057   9.135 -1.6863  0.4403  1.1452
  166DOPC   C2920133   5.505   6.912   8.971  0.1915  0.0728  0.3674
  166DOPC   H9R20134   5.465   6.811   8.952 -0.4487 -0.1799  2.7571
  166DOPC  C21020135   5.513   7.000   8.869  0.9456 -0.7721  0.1984
  166DOPC  H10R20136   5.475   6.968   8.770 -0.4718 -0.0893  0.5006
  166DOPC  C21120137   5.557   7.146   8.882 -0.2807  0.1931  0.2118
  166DOPC  H11R20138   5.627   7.171   8.800  1.0440 -0.0870  1.2275
  166DOPC  H11S20139   5.612   7.167   8.977 -2.2871  2.7727  0.9094
  166DOPC  C21220140   5.433   7.243   8.881  0.2744  0.2669 -0.2707
  166DOPC  H12R20141   5.476   7.345   8.891 -0.7481  0.8965 -1.8535
  166DOPC  H12S20142   5.369   7.218   8.968  2.1262 -1.5894  0.6660
  166DOPC  C21320143   5.346   7.249   8.748 -0.0179  0.2683 -0.9768
  166DOPC  H13R20144   5.291   7.155   8.726 -0.4702  0.0865  0.7379
  166DOPC  H13S20145   5.421   7.260   8.667  1.4095 -0.6023  0.1710
  166DOPC  C21420146   5.251   7.366   8.764  0.0004  0.0083  0.2758
  166DOPC  H14R20147   5.314   7.457   8.752 -0.1048 -0.1064 -1.2879
  166DOPC  H14S20148   5.213   7.372   8.869 -1.0648  1.1554 -0.1437
  166DOPC  C21520149   5.147   7.384   8.654 -0.0708  0.3635 -0.0969
  166DOPC  H15R20150   5.196   7.373   8.556  0.7150 -0.7473  0.4062
  166DOPC  H15S20151   5.109   7.488   8.665  0.8291  0.5436  1.5702
  166DOPC  C21620152   5.017   7.305   8.649  0.0602 -0.5750 -0.6798
  166DOPC  H16R20153   4.949   7.333   8.732  2.4634  1.1033  0.8561
  166DOPC  H16S20154   5.037   7.197   8.666  1.4323 -0.0721  1.1692
  166DOPC  C21720155   4.927   7.336   8.530 -0.3496  0.1913  0.3995
  166DOPC  H17R20156   4.958   7.292   8.433 -1.5826 -1.1266  0.5861
  166DOPC  H17S20157   4.923   7.447   8.524  0.8793  0.3765  2.1063
  166DOPC  C21820158   4.781   7.284   8.554  0.3344 -0.1737  0.0639
  166DOPC  H18R20159   4.744   7.317   8.653  0.9004 -1.7574  0.8413
  166DOPC  H18S20160   4.771   7.174   8.562 -0.2019 -0.2190 -1.0496
  166DOPC  H18T20161   4.713   7.305   8.469  0.1820 -2.1098 -0.3225
  166DOPC   C3320162   4.922   7.259   9.649  0.1544  0.6912 -0.8012
  166DOPC   H3X20163   4.845   7.233   9.572 -1.6216 -0.3472  1.2174
  166DOPC   H3Y20164   4.984   7.168   9.657 -0.5033  0.2012 -1.1360
  166DOPC   C3420165   5.008   7.374   9.601  0.0868 -0.0750 -0.4745
  166DOPC   H4X20166   5.054   7.418   9.692  0.1829 -0.2757 -0.4259
  166DOPC   H4Y20167   4.941   7.458   9.572 -0.4020 -0.0753  0.5863
  166DOPC   C3520168   5.114   7.333   9.506 -0.2980  0.0596 -0.3324
  166DOPC   H5X20169   5.177   7.254   9.552 -0.3383  0.5596  0.5980
  166DOPC   H5Y20170   5.171   7.426   9.486  1.2272 -0.9280 -0.7113
  166DOPC   C3620171   5.054   7.275   9.374 -0.5220  0.4815 -0.4822
  166DOPC   H6X20172   4.994   7.183   9.389 -0.5349  0.2072 -2.0090
  166DOPC   H6Y20173   4.978   7.348   9.337 -1.0960  0.5315  0.7660
  166DOPC   C3720174   5.163   7.238   9.265  0.4340 -0.4975  0.6526
  166DOPC   H7X20175   5.242   7.314   9.245  1.1645 -1.0813  1.2572
  166DOPC   H7Y20176   5.224   7.161   9.318 -1.3464 -1.4007  1.4832
  166DOPC   C3820177   5.096   7.190   9.131 -0.0862  0.1725  0.8231
  166DOPC   H8X20178   5.042   7.095   9.150 -1.0597  0.5891  0.2260
  166DOPC   H8Y20179   5.178   7.172   9.058 -2.1113 -1.0818 -1.2716
  166DOPC   C3920180   5.007   7.293   9.070 -0.3494  0.2513  0.4470
  166DOPC   H9X20181   5.068   7.384   9.058  0.4615 -0.1642  1.2578
  166DOPC  C31020182   4.878   7.290   9.044  0.1558 -0.2605 -0.9535
  166DOPC  H10X20183   4.835   7.389   9.022 -0.8462 -0.3706  0.3678
  166DOPC  C31120184   4.785   7.179   9.075  0.4689 -0.1566 -0.4278
  166DOPC  H11X20185   4.826   7.105   9.147  0.1956 -0.5723 -0.6991
  166DOPC  H11Y20186   4.764   7.120   8.984 -0.6025 -1.5396  0.6589
  166DOPC  C31220187   4.642   7.213   9.125  0.6974 -0.1068  0.0795
  166DOPC  H12X20188   4.594   7.117   9.153  0.1117  0.1165 -0.1536
  166DOPC  H12Y20189   4.579   7.255   9.044 -0.9089 -1.1457  0.7444
  166DOPC  C31320190   4.637   7.299   9.253 -0.2629 -0.3620  0.0733
  166DOPC  H13X20191   4.708   7.252   9.324  1.1600  0.4974 -0.7355
  166DOPC  H13Y20192   4.670   7.403   9.234  0.0716 -0.3078  0.9345
  166DOPC  C31420193   4.496   7.305   9.323 -0.1352 -0.2560 -0.1318
  166DOPC  H14X20194   4.447   7.209   9.350 -0.8767  0.8136  2.6846
  166DOPC  H14Y20195   4.518   7.344   9.425  2.9071  1.5799 -1.3278
  166DOPC  C31520196   4.380   7.381   9.252 -0.9040  0.0256  0.1368
  166DOPC  H15X20197   4.378   7.370   9.141 -2.3788  0.3333  0.1152
  166DOPC  H15Y20198   4.402   7.488   9.269  0.9816 -0.3979  0.6835
  166DOPC  C31620199   4.243   7.354   9.315  0.0429 -0.3468  0.0750
  166DOPC  H16X20200   4.235   7.247   9.289 -3.5377 -0.2144  0.1942
  166DOPC  H16Y20201   4.245   7.351   9.426  0.8478 -1.8652  0.0517
  166DOPC  C31720202   4.118   7.431   9.258  0.3263 -0.2491 -0.0195
  166DOPC  H17X20203   4.127   7.532   9.304  2.7193 -0.6527  0.5487
  166DOPC  H17Y20204   4.126   7.440   9.147 -0.2210  0.4209 -0.0120
  166DOPC  C31820205   3.993   7.367   9.306  0.1780  0.6659  0.5383
  166DOPC  H18X20206   3.974   7.265   9.266  1.5687  1.0454 -1.2585
  166DOPC  H18Y20207   4.001   7.360   9.416  0.1847  0.0593  0.5043
  166DOPC  H18Z20208   3.908   7.428   9.270  0.1426  0.2419 -0.1257
  167DOPC     N20209   4.835   0.180  10.935  0.5269  0.4160  0.1263
  167DOPC   C1220210   4.845   0.123  10.794  0.4323  0.7152  0.7905
  167DOPC  H12A20211   4.768   0.049  10.778  2.0320 -1.2634  1.7490
  167DOPC  H12B20212   4.935   0.067  10.774  0.4170  1.2216 -0.8773
  167DOPC   C1320213   4.705   0.255  10.961 -0.1916  0.1769 -0.1160
  167DOPC  H13A20214   4.626   0.182  10.946 -0.1451 -0.1421  1.1301
  167DOPC  H13B20215   4.713   0.304  11.056  0.5244 -1.3006  0.6149
  167DOPC  H13C20216   4.704   0.340  10.894 -2.7092  1.4778  1.4011
  167DOPC   C1420217   4.957   0.268  10.956  0.5542  0.1926  0.0401
  167DOPC  H14A20218   5.040   0.199  10.957 -1.3434 -2.2674  0.4630
  167DOPC  H14B20219   4.973   0.330  10.869 -1.1569 -0.8846 -1.1032
  167DOPC  H14C20220   4.956   0.323  11.048  2.3461  1.3608 -0.6052
  167DOPC   C1520221   4.855   0.063  11.031  0.3389 -1.0042  0.5802
  167DOPC  H15A20222   4.941   0.006  11.000 -0.9910 -1.2016 -3.4317
  167DOPC  H15B20223   4.767  -0.000  11.033 -0.9288  0.7003  1.8142
  167DOPC  H15C20224   4.868   0.099  11.132  0.6759 -0.0800  0.2222
  167DOPC   C1120225   4.829   0.225  10.679 -0.6347  0.4053  0.0162
  167DOPC  H11A20226   4.811   0.176  10.581 -1.1150  1.3419 -0.3772
  167DOPC  H11B20227   4.737   0.282  10.705 -1.0466  0.2021 -0.9593
  167DOPC     P20228   5.072   0.263  10.612 -0.3856  0.1427  0.0206
  167DOPC   O1320229   5.092   0.118  10.622  0.6523 -0.0725 -0.1583
  167DOPC   O1420230   5.187   0.350  10.658  0.1799 -0.5127  0.3216
  167DOPC   O1220231   4.943   0.311  10.682 -0.3404  0.5347  0.3627
  167DOPC   O1120232   5.050   0.302  10.461  0.2230  0.3923  0.3036
  167DOPC    C120233   4.948   0.397  10.426  0.0040  0.9215 -0.1276
  167DOPC    HA20234   4.976   0.501  10.451  1.7707  0.0736  1.7086
  167DOPC    HB20235   4.853   0.383  10.481  0.7131  0.0847  0.9173
  167DOPC    C220236   4.913   0.387  10.267  0.6449  0.6357  0.5331
  167DOPC    HS20237   4.806   0.417  10.262  0.6465  0.3832 -2.5986
  167DOPC   O2120238   4.946   0.254  10.210 -0.7009 -0.1185 -0.0520
  167DOPC   C2120239   4.849   0.178  10.198  0.0957 -0.5909  0.5073
  167DOPC   O2220240   4.729   0.213  10.195  0.3011  0.4913  0.0257
  167DOPC   C2220241   4.892   0.035  10.176 -0.2457 -0.3186  0.0685
  167DOPC   H2R20242   4.809  -0.037  10.163 -1.9006  1.0097  2.6061
  167DOPC   H2S20243   4.936  -0.005  10.270  0.2598  0.3241  0.1177
  167DOPC    C320244   4.990   0.490  10.186 -0.2492 -0.1430  0.8235
  167DOPC    HX20245   5.098   0.467  10.184 -0.2776 -1.1324 -4.5954
  167DOPC    HY20246   4.984   0.580  10.251  0.0819  0.0689  0.5600
  167DOPC   O3120247   4.942   0.508  10.051 -0.1683  0.4108  0.0916
  167DOPC   C3120248   5.016   0.448   9.955 -0.3827  0.5827  0.5611
  167DOPC   O3220249   5.128   0.407   9.967  0.3884 -0.1351 -0.4542
  167DOPC   C3220250   4.932   0.454   9.822  0.4191  0.0660  0.2910
  167DOPC   H2X20251   4.868   0.364   9.813  1.0968 -0.2804 -1.2245
  167DOPC   H2Y20252   4.869   0.546   9.832  1.5005  1.0813 -1.7522
  167DOPC   C2320253   4.993   0.013  10.059  0.2683 -0.6442 -0.4081
  167DOPC   H3R20254   5.039  -0.088  10.055  2.6398  0.2374  1.8463
  167DOPC   H3S20255   5.078   0.081  10.081  0.6460 -2.0395  3.0431
  167DOPC   C2420256   4.939   0.052   9.911 -0.8128  0.3521 -0.0461
  167DOPC   H4R20257   4.863   0.133   9.918 -0.0800  1.1330 -0.8890
  167DOPC   H4S20258   4.886  -0.041   9.880 -0.8334  0.4892 -0.4261
  167DOPC   C2520259   5.044   0.093   9.820 -0.3427 -0.5440 -0.3319
  167DOPC   H5R20260   5.131   0.028   9.844  0.8950  1.0709 -0.2579
  167DOPC   H5S20261   5.077   0.198   9.841 -1.1909 -0.2044 -0.6614
  167DOPC   C2620262   5.005   0.084   9.673 -0.8497 -0.1748  0.1040
  167DOPC   H6R20263   4.933   0.168   9.660  1.2716  1.6737 -0.5023
  167DOPC   H6S20264   4.954  -0.013   9.657 -1.7606  0.5917 -2.2371
  167DOPC   C2720265   5.127   0.091   9.578  0.6652 -0.0758 -0.0729
  167DOPC   H7R20266   5.205   0.017   9.606  0.4839  0.2701  1.4017
  167DOPC   H7S20267   5.172   0.193   9.584  1.7556 -0.4237 -1.6680
  167DOPC   C2820268   5.079   0.052   9.436 -0.1917  0.8819 -0.1103
  167DOPC   H8R20269   5.001   0.123   9.402  0.9427  1.0910 -2.5320
  167DOPC   H8S20270   5.039  -0.051   9.438  0.8009  0.4440 -1.2640
  167DOPC   C2920271   5.196   0.036   9.342  0.2030 -0.4417 -0.3970
  167DOPC   H9R20272   5.269  -0.037   9.381  1.2876  1.5952  1.6529
  167DOPC  C21020273   5.207   0.095   9.224  0.1391  0.3564 -0.0682
  167DOPC  H10R20274   5.290   0.070   9.156  2.0354  3.0693  1.0434
  167DOPC  C21120275   5.107   0.188   9.161 -0.0547 -0.3599 -0.1538
  167DOPC  H11R20276   5.122   0.285   9.213 -0.1767 -1.0261  1.1815
  167DOPC  H11S20277   5.000   0.162   9.182 -0.2339 -0.2014 -0.8406
  167DOPC  C21220278   5.145   0.202   9.015 -0.0980 -0.8133 -0.2545
  167DOPC  H12R20279   5.085   0.286   8.972 -0.1829 -0.6223  0.2258
  167DOPC  H12S20280   5.252   0.225   9.000 -0.4054  2.0020  1.0402
  167DOPC  C21320281   5.101   0.083   8.932  0.4653  0.2102 -0.2740
  167DOPC  H13R20282   4.994   0.062   8.952  0.6024 -0.0668  0.1979
  167DOPC  H13S20283   5.165  -0.005   8.955 -1.4904 -0.3401  4.0994
  167DOPC  C21420284   5.108   0.098   8.779 -0.1451  0.2877  0.1890
  167DOPC  H14R20285   5.049   0.185   8.743  1.4137  2.0775  1.6736
  167DOPC  H14S20286   5.083   0.008   8.721  0.1878  1.7659 -2.4161
  167DOPC  C21520287   5.253   0.125   8.726  0.1207  0.1791 -0.3500
  167DOPC  H15R20288   5.317   0.039   8.758  0.4530  0.6478  0.2619
  167DOPC  H15S20289   5.286   0.219   8.776  0.5053 -0.1233 -0.0246
  167DOPC  C21620290   5.268   0.152   8.572  0.5716  0.0838 -1.3690
  167DOPC  H16R20291   5.202   0.239   8.550 -2.2621 -0.4211  3.6387
  167DOPC  H16S20292   5.227   0.064   8.517 -0.5391  0.7943 -1.7045
  167DOPC  C21720293   5.409   0.180   8.540  0.3939 -0.5099  0.6366
  167DOPC  H17R20294   5.479   0.096   8.562 -0.5960 -1.5683 -0.1504
  167DOPC  H17S20295   5.435   0.263   8.609  0.8780  1.0709 -1.3669
  167DOPC  C21820296   5.417   0.200   8.382  0.5254  0.1430 -0.4159
  167DOPC  H18R20297   5.338   0.268   8.345 -0.4249 -0.3110  0.7123
  167DOPC  H18S20298   5.385   0.098   8.350  1.6772 -0.8242  1.3827
  167DOPC  H18T20299   5.517   0.233   8.346  0.6672 -0.6619 -0.7796
  167DOPC   C3320300   5.011   0.462   9.691 -0.0033  0.1784  0.0221
  167DOPC   H3X20301   5.083   0.379   9.677 -0.3539 -0.1956  0.4102
  167DOPC   H3Y20302   5.070   0.556   9.695 -1.9205  1.4550 -0.2028
  167DOPC   C3420303   4.916   0.476   9.573 -0.1529  0.0626 -0.1222
  167DOPC   H4X20304   4.856   0.569   9.574  0.8481  0.7172  0.0570
  167DOPC   H4Y20305   4.848   0.388   9.567 -0.5299  0.1805  1.7634
  167DOPC   C3520306   4.997   0.480   9.441  0.1844  0.0065 -0.6987
  167DOPC   H5X20307   5.064   0.392   9.431  0.8082  0.5591 -1.5259
  167DOPC   H5Y20308   5.060   0.572   9.441  0.1262  0.0604  0.4798
  167DOPC   C3620309   4.903   0.480   9.329 -0.0952 -0.2396 -0.3352
  167DOPC   H6X20310   4.969   0.471   9.240  0.6778 -0.9044  0.2862
  167DOPC   H6Y20311   4.842   0.387   9.327  0.3781 -0.5732  0.2609
  167DOPC   C3720312   4.804   0.592   9.315 -0.1296 -0.1021  0.6539
  167DOPC   H7X20313   4.723   0.583   9.391  1.0354  0.8994  2.0877
  167DOPC   H7Y20314   4.853   0.691   9.328 -0.7004  0.4304 -1.0616
  167DOPC   C3820315   4.720   0.590   9.180  0.3286  0.2229 -0.0796
  167DOPC   H8X20316   4.667   0.688   9.174 -2.1061 -1.0723 -0.7805
  167DOPC   H8Y20317   4.651   0.504   9.188 -0.6839  1.0244  0.0368
  167DOPC   C3920318   4.793   0.574   9.051  0.1767  0.3215  0.0473
  167DOPC   H9X20319   4.860   0.487   9.050  1.1615  1.0131  1.6880
  167DOPC  C31020320   4.785   0.644   8.937 -0.1824 -0.0016  0.2470
  167DOPC  H10X20321   4.841   0.615   8.847 -1.3996  0.4420 -0.6987
  167DOPC  C31120322   4.705   0.766   8.921 -0.3001 -0.9645 -0.0165
  167DOPC  H11X20323   4.765   0.854   8.890 -1.0019 -0.0801  1.0324
  167DOPC  H11Y20324   4.665   0.803   9.018  0.4359  0.1620 -0.1232
  167DOPC  C31220325   4.599   0.773   8.804 -0.4405 -0.2155 -0.2419
  167DOPC  H12X20326   4.656   0.782   8.710  1.4919  1.4605  0.9970
  167DOPC  H12Y20327   4.544   0.867   8.829 -0.2302 -0.8487  3.0270
  167DOPC  C31320328   4.498   0.657   8.799 -0.2926 -0.1514 -0.2015
  167DOPC  H13X20329   4.555   0.564   8.820 -0.1426  0.0649  0.3623
  167DOPC  H13Y20330   4.440   0.666   8.893 -0.4319 -1.3939 -0.1533
  167DOPC  C31420331   4.413   0.641   8.665 -0.8905 -1.3409  0.3586
  167DOPC  H14X20332   4.483   0.627   8.580  0.8213  4.2901  0.4484
  167DOPC  H14Y20333   4.342   0.561   8.695 -2.0306 -0.0926  1.1466
  167DOPC  C31520334   4.319   0.758   8.630  0.4302  0.2016  0.4043
  167DOPC  H15X20335   4.370   0.856   8.622 -1.5744  1.4893  2.1718
  167DOPC  H15Y20336   4.249   0.764   8.716 -0.5321  1.8933 -0.4423
  167DOPC  C31620337   4.230   0.733   8.513  1.0319 -0.6689  0.0558
  167DOPC  H16X20338   4.175   0.638   8.534  0.7645 -0.2789  1.2174
  167DOPC  H16Y20339   4.152   0.812   8.513  2.0230  0.6074  4.3962
  167DOPC  C31720340   4.285   0.731   8.375  0.1035  0.1466  0.3060
  167DOPC  H17X20341   4.337   0.827   8.355 -1.5528  1.2845  1.2507
  167DOPC  H17Y20342   4.354   0.644   8.365 -0.4648 -0.4257  1.2142
  167DOPC  C31820343   4.170   0.717   8.272 -0.3552 -0.8825  0.2404
  167DOPC  H18X20344   4.083   0.662   8.314 -2.0246  3.2205  2.7850
  167DOPC  H18Y20345   4.133   0.819   8.244  3.1788  0.3329 -0.4311
  167DOPC  H18Z20346   4.208   0.674   8.177 -1.0430 -1.1915  0.0999
  168DOPC     N20347   1.332   6.015  10.127  0.3154 -0.6079  0.3144
  168DOPC   C1220348   1.263   6.145  10.097  0.9683 -0.1565 -0.0464
  168DOPC  H12A20349   1.329   6.229  10.115  1.6532 -1.1152  2.2775
  168DOPC  H12B20350   1.191   6.169  10.174  2.2082 -0.1368  1.1463
  168DOPC   C1320351   1.390   6.012  10.269  0.4184  0.1137  1.1826
  168DOPC  H13A20352   1.439   6.104  10.298 -1.2794  0.6925  2.3148
  168DOPC  H13B20353   1.315   6.002  10.345  0.1304 -0.3115  0.8520
  168DOPC  H13C20354   1.448   5.921  10.280  0.3975  0.2037  2.1352
  168DOPC   C1420355   1.444   5.992  10.029  0.4038  0.0864 -0.1657
  168DOPC  H14A20356   1.406   5.950   9.937  2.2327 -3.0636  0.3937
  168DOPC  H14B20357   1.496   6.084  10.007  0.5783 -0.3687 -1.7853
  168DOPC  H14C20358   1.517   5.920  10.062 -0.9847  0.3594  3.9819
  168DOPC   C1520359   1.228   5.912  10.115  0.3313 -0.4816  0.6894
  168DOPC  H15A20360   1.148   5.945  10.179  1.2411  1.8731  0.7332
  168DOPC  H15B20361   1.257   5.817  10.157  4.2948 -0.4820 -1.5625
  168DOPC  H15C20362   1.185   5.900  10.016  0.3269  2.1517  0.2926
  168DOPC   C1120363   1.181   6.157   9.962 -1.3312  0.0375  0.4069
  168DOPC  H11A20364   1.181   6.264   9.932  0.3406  0.0778  0.4474
  168DOPC  H11B20365   1.233   6.097   9.885  1.0467 -0.2414  2.1194
  168DOPC     P20366   0.941   6.189  10.059  0.6108 -0.1232 -0.0053
  168DOPC   O1320367   1.003   6.250  10.178  0.4897 -0.1968 -0.2157
  168DOPC   O1420368   0.832   6.096  10.078  0.2687  0.2373  0.4164
  168DOPC   O1220369   1.050   6.111   9.980 -0.6536 -0.6050 -0.8259
  168DOPC   O1120370   0.900   6.301   9.958  0.2156 -0.3481  0.2100
  168DOPC    C120371   0.811   6.263   9.854 -0.4246  0.2245 -0.8112
  168DOPC    HA20372   0.795   6.362   9.807 -0.4204  0.5486 -0.1383
  168DOPC    HB20373   0.715   6.225   9.894  0.0737  0.5310  0.7076
  168DOPC    C220374   0.860   6.160   9.750 -0.1901 -0.6669 -0.3358
  168DOPC    HS20375   0.872   6.064   9.805  0.8240 -0.4296 -0.1370
  168DOPC   O2120376   0.974   6.215   9.681 -0.4351 -0.1311  0.1332
  168DOPC   C2120377   1.062   6.127   9.628  0.4502  0.5009 -0.1073
  168DOPC   O2220378   1.058   6.005   9.646  0.2279 -0.1736  0.0332
  168DOPC   C2220379   1.180   6.195   9.560  0.1369  0.3864 -0.4788
  168DOPC   H2R20380   1.238   6.118   9.505 -1.2398  0.8952 -2.7334
  168DOPC   H2S20381   1.245   6.233   9.642  0.1677 -0.1775 -0.2364
  168DOPC    C320382   0.756   6.118   9.642  0.2532  0.1868  0.1215
  168DOPC    HX20383   0.806   6.037   9.585  0.8039  0.4682  0.1950
  168DOPC    HY20384   0.738   6.204   9.574  0.2045  0.1949  0.1448
  168DOPC   O3120385   0.630   6.081   9.705  0.4992  0.2789  0.4179
  168DOPC   C3120386   0.621   5.948   9.721  0.2809  0.5100 -0.2850
  168DOPC   O3220387   0.714   5.871   9.694  0.1159 -0.8833 -0.4430
  168DOPC   C3220388   0.477   5.909   9.747  0.0305  1.2575  0.0512
  168DOPC   H2X20389   0.473   5.852   9.842 -0.4523  1.3362  0.0824
  168DOPC   H2Y20390   0.408   5.996   9.754 -0.7895  0.9494 -2.7955
  168DOPC   C2320391   1.122   6.303   9.465 -0.8539  0.3898 -0.6537
  168DOPC   H3R20392   1.078   6.387   9.524  0.9905  1.1076 -0.2122
  168DOPC   H3S20393   1.050   6.250   9.400  1.3056 -0.3689 -2.5515
  168DOPC   C2420394   1.226   6.366   9.369 -0.4902  0.0331 -0.1923
  168DOPC   H4R20395   1.328   6.364   9.413 -0.9455 -1.4876  0.8741
  168DOPC   H4S20396   1.186   6.466   9.343  1.6924  0.6775 -1.2845
  168DOPC   C2520397   1.242   6.289   9.234 -0.2431  0.0682 -0.8763
  168DOPC   H5R20398   1.147   6.292   9.177 -0.6836 -1.0890 -0.2377
  168DOPC   H5S20399   1.254   6.181   9.259  2.6289 -0.0176 -2.2053
  168DOPC   C2620400   1.362   6.339   9.156  0.3863  0.2271  0.4906
  168DOPC   H6R20401   1.382   6.264   9.077 -1.8144  1.2461 -1.1296
  168DOPC   H6S20402   1.453   6.347   9.219  0.5784 -0.3709  0.2987
  168DOPC   C2720403   1.329   6.465   9.077 -0.7744 -0.2118  0.3282
  168DOPC   H7R20404   1.303   6.556   9.135  1.2993  1.5093 -1.2723
  168DOPC   H7S20405   1.246   6.444   9.006 -1.6926 -3.2525  2.1235
  168DOPC   C2820406   1.450   6.514   8.984 -0.3073 -0.2398  0.1224
  168DOPC   H8R20407   1.547   6.535   9.033 -0.9465 -0.3835  1.4830
  168DOPC   H8S20408   1.417   6.614   8.949  0.5559 -0.2561 -0.8203
  168DOPC   C2920409   1.488   6.432   8.863  0.2529 -0.2601  0.1020
  168DOPC   H9R20410   1.554   6.345   8.879 -0.9136 -1.3409 -0.6906
  168DOPC  C21020411   1.451   6.460   8.733  0.7016  0.4799  0.2076
  168DOPC  H10R20412   1.467   6.386   8.654 -1.6252  1.7510 -1.5940
  168DOPC  C21120413   1.359   6.564   8.687  0.2078 -0.7439  0.3561
  168DOPC  H11R20414   1.317   6.623   8.771  0.4701 -0.4657  0.2927
  168DOPC  H11S20415   1.272   6.517   8.636  0.4555 -1.9042  0.9579
  168DOPC  C21220416   1.437   6.658   8.595 -0.2874  0.4428  0.3565
  168DOPC  H12R20417   1.368   6.707   8.522 -1.7102  0.9270  1.9461
  168DOPC  H12S20418   1.515   6.608   8.535 -1.9370 -0.5528 -1.0644
  168DOPC  C21320419   1.512   6.774   8.668  0.3212 -0.0087 -0.0324
  168DOPC  H13R20420   1.591   6.738   8.738 -0.4702  2.8398  2.5390
  168DOPC  H13S20421   1.442   6.823   8.740  1.1299  2.9658 -1.1345
  168DOPC  C21420422   1.573   6.876   8.583 -0.3266 -0.0015 -0.2224
  168DOPC  H14R20423   1.612   6.829   8.491  0.5942 -1.3580  0.8294
  168DOPC  H14S20424   1.643   6.945   8.635 -0.8137  1.9901 -2.0819
  168DOPC  C21520425   1.468   6.977   8.535 -0.9813 -0.4030 -0.2362
  168DOPC  H15R20426   1.484   7.078   8.580 -0.8466  1.2457 -3.6532
  168DOPC  H15S20427   1.368   6.933   8.554 -1.0094  0.6171  2.5007
  168DOPC  C21620428   1.468   6.989   8.378 -0.3934 -0.3489  0.1486
  168DOPC  H16R20429   1.465   6.882   8.348  1.2386 -0.9838  2.0342
  168DOPC  H16S20430   1.564   7.035   8.347 -0.1770 -0.4484  0.6559
  168DOPC  C21720431   1.346   7.071   8.325 -0.5570  0.0173 -0.5069
  168DOPC  H17R20432   1.361   7.176   8.357 -2.0977  0.5307 -1.3692
  168DOPC  H17S20433   1.254   7.040   8.379  0.0220  2.1421  1.9022
  168DOPC  C21820434   1.328   7.049   8.181  0.7084  0.2502  0.2603
  168DOPC  H18R20435   1.401   7.110   8.124  1.2306  0.0165  0.6635
  168DOPC  H18S20436   1.228   7.078   8.142  1.3883  0.2937 -1.5403
  168DOPC  H18T20437   1.341   6.940   8.162  0.4376  0.3084 -0.2738
  168DOPC   C3320438   0.421   5.814   9.639 -0.3178 -0.0569  0.7000
  168DOPC   H3X20439   0.328   5.765   9.677 -1.4791  1.1244 -0.4811
  168DOPC   H3Y20440   0.488   5.730   9.613  0.3980  1.1860 -1.8313
  168DOPC   C3420441   0.375   5.892   9.509 -1.0096  0.0537 -0.1221
  168DOPC   H4X20442   0.470   5.928   9.463 -1.4477 -0.1656 -1.2362
  168DOPC   H4Y20443   0.308   5.972   9.548 -1.0038 -0.6710  1.4517
  168DOPC   C3520444   0.317   5.805   9.396 -0.0436 -0.8054  1.1647
  168DOPC   H5X20445   0.220   5.767   9.435 -1.6829  0.4269 -1.4438
  168DOPC   H5Y20446   0.382   5.721   9.362  0.3081 -0.5183  1.1166
  168DOPC   C3620447   0.277   5.894   9.277 -0.5658 -0.0373 -0.6597
  168DOPC   H6X20448   0.178   5.937   9.303 -1.5570 -1.5390 -1.8155
  168DOPC   H6Y20449   0.341   5.977   9.240 -2.7477  0.7709 -2.9090
  168DOPC   C3720450   0.254   5.807   9.157  0.6029 -0.2438 -0.1985
  168DOPC   H7X20451   0.199   5.712   9.178 -2.5368  1.3883 -0.3678
  168DOPC   H7Y20452   0.189   5.873   9.096  0.0833 -1.1981 -0.7045
  168DOPC   C3820453   0.385   5.786   9.078  0.2257  0.2979  0.0536
  168DOPC   H8X20454   0.470   5.789   9.149  0.0400  2.5897  0.2331
  168DOPC   H8Y20455   0.393   5.877   9.015 -3.8412  1.2939  0.7035
  168DOPC   C3920456   0.385   5.658   8.994  0.5691  0.4193  0.5717
  168DOPC   H9X20457   0.449   5.579   9.034 -0.0085 -1.5544 -2.1226
  168DOPC  C31020458   0.346   5.635   8.869 -0.0235 -0.0145 -0.2950
  168DOPC  H10X20459   0.382   5.539   8.828  1.6408  0.5112 -0.1388
  168DOPC  C31120460   0.280   5.723   8.767  0.0083 -0.1461  0.4819
  168DOPC  H11X20461   0.352   5.744   8.685 -0.0715  0.3046  0.5247
  168DOPC  H11Y20462   0.245   5.813   8.823 -3.0171 -1.0251  0.1265
  168DOPC  C31220463   0.144   5.658   8.734 -0.5018  0.3880  0.0334
  168DOPC  H12X20464   0.094   5.632   8.830 -0.2644  1.7554  0.5504
  168DOPC  H12Y20465   0.161   5.565   8.675  0.6874  1.4186 -1.3107
  168DOPC  C31320466   0.048   5.755   8.652  0.2729  0.0007 -0.8456
  168DOPC  H13X20467  -0.058   5.721   8.662  0.2901 -0.5305 -2.2335
  168DOPC  H13Y20468   0.060   5.854   8.701  1.4752 -1.4773  2.1358
  168DOPC  C31420469   0.086   5.769   8.504  0.8896  0.5041 -0.5152
  168DOPC  H14X20470   0.030   5.854   8.459  1.4644  1.5397  0.6692
  168DOPC  H14Y20471   0.193   5.791   8.484  1.0035 -0.7246 -1.3578
  168DOPC  C31520472   0.043   5.635   8.424 -0.2160  0.6195 -0.2111
  168DOPC  H15X20473  -0.068   5.629   8.428 -0.3514  2.5841  0.2031
  168DOPC  H15Y20474   0.074   5.543   8.477  0.6800  1.5782  0.9822
  168DOPC  C31620475   0.106   5.629   8.289  0.1496  0.4298 -0.2113
  168DOPC  H16X20476   0.215   5.646   8.300  1.0423 -4.5704  0.8409
  168DOPC  H16Y20477   0.093   5.524   8.257 -0.9660  0.1887  0.9419
  168DOPC  C31720478   0.049   5.726   8.185  0.1925 -0.9198 -0.6600
  168DOPC  H17X20479  -0.062   5.719   8.189 -0.0764  1.3398 -2.0189
  168DOPC  H17Y20480   0.072   5.831   8.213  0.0512 -1.5598  2.1594
  168DOPC  C31820481   0.098   5.690   8.053  0.0629  0.1493 -0.2536
  168DOPC  H18X20482   0.207   5.699   8.035  0.1470  0.1316  0.2166
  168DOPC  H18Y20483   0.057   5.594   8.016  1.9816 -0.2048 -1.5802
  168DOPC  H18Z20484   0.054   5.763   7.983  2.9441  0.4036 -1.9476
  169DOPC     N20485   6.082   0.293  10.222 -0.4987 -0.5265  0.0436
  169DOPC   C1220486   6.060   0.238  10.082 -0.7444 -0.7024  0.2796
  169DOPC  H12A20487   5.957   0.254  10.054  0.1286  3.2588 -1.4415
  169DOPC  H12B20488   6.081   0.133  10.077 -1.6648 -0.8869  0.1054
  169DOPC   C1320489   6.047   0.440  10.223 -0.1126 -0.0559 -0.0925
  169DOPC  H13A20490   6.110   0.488  10.150 -0.0443  1.0895  0.6927
  169DOPC  H13B20491   5.944   0.468  10.209  0.6205  2.7495 -0.6039
  169DOPC  H13C20492   6.069   0.490  10.316 -0.2025 -0.2015  0.0070
  169DOPC   C1420493   6.223   0.262  10.260  1.3075 -0.1393 -0.0609
  169DOPC  H14A20494   6.248   0.307  10.355 -1.7943 -0.0546  0.8428
  169DOPC  H14B20495   6.223   0.154  10.269 -1.3492 -0.1323  0.7454
  169DOPC  H14C20496   6.291   0.299  10.185  0.9742 -0.9161 -0.7561
  169DOPC   C1520497   5.996   0.225  10.325  0.2878  0.7107 -0.0170
  169DOPC  H15A20498   6.009   0.118  10.324 -0.0941  0.6559  0.4352
  169DOPC  H15B20499   5.895   0.248  10.295  0.9787  1.4645 -1.8838
  169DOPC  H15C20500   6.010   0.262  10.426  1.2788  0.3250  0.0041
  169DOPC   C1120501   6.136   0.308   9.968  0.2289 -0.1754 -0.8728
  169DOPC  H11A20502   6.100   0.264   9.872  0.1436 -0.0599 -0.8943
  169DOPC  H11B20503   6.103   0.413   9.950  1.0093  0.5012  1.3456
  169DOPC     P20504   6.368   0.186   9.943  0.6214 -0.0609  0.2268
  169DOPC   O1320505   6.284   0.067   9.911 -0.6319 -0.0534  0.1231
  169DOPC   O1420506   6.463   0.166  10.051 -0.1073  0.7119  0.3595
  169DOPC   O1220507   6.277   0.311   9.984  0.1249  0.0122 -0.1228
  169DOPC   O1120508   6.436   0.239   9.816 -0.5292 -0.0979 -0.2838
  169DOPC    C120509   6.359   0.301   9.713  0.2768  0.6192 -0.1287
  169DOPC    HA20510   6.299   0.381   9.762  0.1555 -1.3349  3.2339
  169DOPC    HB20511   6.303   0.225   9.654  0.1815  1.3316 -0.9774
  169DOPC    C220512   6.445   0.372   9.605  0.4559  0.2017  0.2203
  169DOPC    HS20513   6.369   0.439   9.561  0.3495 -0.5008 -0.6812
  169DOPC   O2120514   6.503   0.268   9.521 -0.0288 -0.6421 -1.4413
  169DOPC   C2120515   6.525   0.313   9.398 -0.1017  0.5928 -0.0676
  169DOPC   O2220516   6.494   0.425   9.359  0.0463  0.0238 -0.5512
  169DOPC   C2220517   6.596   0.204   9.314  0.0861 -0.0906  0.2191
  169DOPC   H2R20518   6.531   0.115   9.327  0.3812 -0.0466  2.4055
  169DOPC   H2S20519   6.693   0.182   9.363 -0.2258 -1.1860  0.3692
  169DOPC    C320520   6.563   0.463   9.659  0.0966 -0.0224  0.7560
  169DOPC    HX20521   6.622   0.386   9.713  2.7996  0.5561 -1.1997
  169DOPC    HY20522   6.524   0.532   9.738 -1.3904  1.1234 -0.9112
  169DOPC   O3120523   6.635   0.530   9.557  0.2971  0.5400 -0.1943
  169DOPC   C3120524   6.610   0.660   9.536 -0.1496  0.2718  0.1475
  169DOPC   O3220525   6.530   0.722   9.606 -0.1458 -0.1044 -0.0224
  169DOPC   C3220526   6.694   0.723   9.424  0.1941 -0.0375 -0.1509
  169DOPC   H2X20527   6.771   0.782   9.479 -1.8703  0.6413  2.1724
  169DOPC   H2Y20528   6.734   0.638   9.366  1.3504 -1.0631  2.0208
  169DOPC   C2320529   6.627   0.229   9.168  0.3445 -0.4427 -0.0865
  169DOPC   H3R20530   6.727   0.190   9.140  0.8411  1.1776 -0.7017
  169DOPC   H3S20531   6.640   0.338   9.152  1.5623 -0.7668 -1.4783
  169DOPC   C2420532   6.514   0.181   9.070  0.1184 -0.3492 -0.3640
  169DOPC   H4R20533   6.417   0.221   9.107 -0.3215 -0.6739 -1.1349
  169DOPC   H4S20534   6.496   0.073   9.090 -0.3464 -0.1200  0.4878
  169DOPC   C2520535   6.534   0.205   8.920  0.3940 -0.0692 -0.1180
  169DOPC   H5R20536   6.445   0.183   8.856  1.7982  1.2722 -2.7006
  169DOPC   H5S20537   6.610   0.136   8.877 -0.4274 -0.7215 -0.5624
  169DOPC   C2620538   6.579   0.340   8.877 -0.0952 -0.0692 -0.1623
  169DOPC   H6R20539   6.680   0.357   8.921 -1.1401  3.5024  1.2003
  169DOPC   H6S20540   6.514   0.417   8.923  0.3447  1.5375 -2.0743
  169DOPC   C2720541   6.584   0.376   8.732 -0.2053 -0.4214  0.5966
  169DOPC   H7R20542   6.486   0.405   8.689 -0.9157 -0.0506  2.3785
  169DOPC   H7S20543   6.632   0.297   8.671  0.8195  0.1242  0.6625
  169DOPC   C2820544   6.674   0.501   8.703 -0.7354 -0.3785 -0.0818
  169DOPC   H8R20545   6.775   0.476   8.743  0.3281  1.6166 -1.3742
  169DOPC   H8S20546   6.626   0.584   8.758  0.0658  0.0936 -0.0837
  169DOPC   C2920547   6.707   0.529   8.558 -0.0402  0.4394 -0.9946
  169DOPC   H9R20548   6.787   0.472   8.508  0.5188 -1.1909  1.6134
  169DOPC  C21020549   6.617   0.573   8.467 -0.7357  0.0350 -0.3435
  169DOPC  H10R20550   6.661   0.592   8.368  1.7056  0.5718  0.7725
  169DOPC  C21120551   6.472   0.621   8.489 -0.1521  0.5098  0.6972
  169DOPC  H11R20552   6.425   0.571   8.576  0.7788  1.8381  2.0123
  169DOPC  H11S20553   6.409   0.587   8.404  1.2098  0.7513 -0.4634
  169DOPC  C21220554   6.466   0.774   8.494 -0.6792  0.1651  0.3560
  169DOPC  H12R20555   6.361   0.807   8.506 -0.0065  1.7893  2.0442
  169DOPC  H12S20556   6.496   0.817   8.396  1.4986  0.0228  0.9202
  169DOPC  C21320557   6.560   0.845   8.599  0.1924 -1.0938 -0.1540
  169DOPC  H13R20558   6.666   0.814   8.585  1.3764  1.9885  1.1173
  169DOPC  H13S20559   6.533   0.824   8.705 -0.0492 -1.8042 -0.3557
  169DOPC  C21420560   6.558   1.001   8.589  0.2691  0.5138  0.6148
  169DOPC  H14R20561   6.448   1.017   8.585 -0.1378 -1.7797  1.2412
  169DOPC  H14S20562   6.611   1.034   8.497  0.0119  0.4644  0.4472
  169DOPC  C21520563   6.622   1.083   8.707  0.9061 -0.6238  0.5849
  169DOPC  H15R20564   6.730   1.061   8.700  1.0922  0.1807  0.9123
  169DOPC  H15S20565   6.578   1.057   8.806 -0.2552  1.2650  0.6140
  169DOPC  C21620566   6.594   1.233   8.694  0.0563 -0.6134 -0.3798
  169DOPC  H16R20567   6.486   1.234   8.719 -0.1875 -4.6430 -0.5640
  169DOPC  H16S20568   6.620   1.275   8.594  2.7740 -0.2075  0.4111
  169DOPC  C21720569   6.670   1.340   8.773  0.1253 -0.2516  0.2124
  169DOPC  H17R20570   6.639   1.443   8.745  1.3020  0.4921  1.5098
  169DOPC  H17S20571   6.778   1.329   8.749  0.7572  1.5530  1.9743
  169DOPC  C21820572   6.657   1.340   8.928  0.4069 -0.0853 -0.1126
  169DOPC  H18R20573   6.685   1.240   8.968  0.2617  0.5184  1.5623
  169DOPC  H18S20574   6.560   1.384   8.958  0.1393  0.0325 -1.1072
  169DOPC  H18T20575   6.737   1.405   8.970 -1.6408  1.4456  1.5752
  169DOPC   C3320576   6.609   0.807   9.324  0.2221 -0.1523 -0.6985
  169DOPC   H3X20577   6.546   0.883   9.375  0.5165  1.5109 -2.6762
  169DOPC   H3Y20578   6.547   0.729   9.275 -1.0915 -0.6808  1.6160
  169DOPC   C3420579   6.692   0.872   9.219  0.1278  0.3291 -0.5094
  169DOPC   H4X20580   6.757   0.943   9.274 -3.2064  3.0747  0.1853
  169DOPC   H4Y20581   6.616   0.926   9.159  1.2473  2.0729 -0.4263
  169DOPC   C3520582   6.763   0.779   9.124 -0.9491  0.7792 -0.2292
  169DOPC   H5X20583   6.694   0.702   9.083 -0.0672 -0.8007  1.1418
  169DOPC   H5Y20584   6.837   0.716   9.177 -1.0173 -0.2998 -1.3734
  169DOPC   C3620585   6.836   0.853   9.008  0.1896 -0.0110  0.1617
  169DOPC   H6X20586   6.887   0.783   8.938 -0.3160 -1.4051  1.1334
  169DOPC   H6Y20587   6.768   0.898   8.934  0.3529 -0.8259 -0.4982
  169DOPC   C3720588   6.925   0.957   9.070 -0.0538  0.4448  0.1893
  169DOPC   H7X20589   6.868   1.045   9.107 -0.2754  0.3223  0.1448
  169DOPC   H7Y20590   6.973   0.912   9.160 -0.5548  0.2370  0.3556
  169DOPC   C3820591   7.035   0.995   8.975  1.1903 -0.0229  0.0764
  169DOPC   H8X20592   7.090   0.901   8.952 -0.2637 -0.8657 -0.0491
  169DOPC   H8Y20593   7.105   1.063   9.028  0.3121 -0.1964  1.5009
  169DOPC   C3920594   6.989   1.064   8.851 -0.5670  0.7992 -0.1978
  169DOPC   H9X20595   6.894   1.025   8.812 -1.2498  0.9853  1.2147
  169DOPC  C31020596   7.056   1.155   8.782  0.3174  0.3881  0.3111
  169DOPC  H10X20597   7.010   1.191   8.689 -0.7100 -0.1352  0.5965
  169DOPC  C31120598   7.203   1.198   8.795 -0.1689  0.4342  0.2102
  169DOPC  H11X20599   7.259   1.199   8.700 -1.1702 -1.0184 -0.4287
  169DOPC  H11Y20600   7.258   1.120   8.852  0.9482 -0.9246 -2.5794
  169DOPC  C31220601   7.240   1.314   8.894  0.5448  0.0491  0.4179
  169DOPC  H12X20602   7.346   1.342   8.873  0.5102  0.2513  0.5198
  169DOPC  H12Y20603   7.244   1.290   9.002 -0.8388 -1.4124  0.1771
  169DOPC  C31320604   7.155   1.436   8.865  0.2402 -0.6286 -0.3831
  169DOPC  H13X20605   7.130   1.428   8.757  0.2358 -1.7090 -0.3118
  169DOPC  H13Y20606   7.064   1.428   8.927 -0.4287 -0.7146 -1.3428
  169DOPC  C31420607   7.211   1.572   8.903  0.0437 -0.0373 -0.0753
  169DOPC  H14X20608   7.316   1.577   8.869 -0.0131  3.3185 -0.1361
  169DOPC  H14Y20609   7.159   1.654   8.848  0.0094  0.3385  0.5034
  169DOPC  C31520610   7.217   1.594   9.053  0.3761 -0.3693 -0.1629
  169DOPC  H15X20611   7.270   1.691   9.067 -1.9377  0.9639 -0.0977
  169DOPC  H15Y20612   7.276   1.519   9.109  0.7193 -0.1158 -0.1800
  169DOPC  C31620613   7.081   1.615   9.118  0.1484 -0.1236 -0.1381
  169DOPC  H16X20614   7.026   1.692   9.059 -0.2021  1.2102  1.8576
  169DOPC  H16Y20615   7.034   1.520   9.150 -1.2892  0.8107  0.6306
  169DOPC  C31720616   7.095   1.700   9.245 -0.5683 -0.5412  0.0493
  169DOPC  H17X20617   7.181   1.660   9.301 -0.5583 -1.7110 -0.7467
  169DOPC  H17Y20618   7.123   1.800   9.205  0.5662 -1.5080 -1.7261
  169DOPC  C31820619   6.966   1.715   9.334 -0.0438  0.6446  0.2681
  169DOPC  H18X20620   6.980   1.801   9.403 -1.0769  0.2039  1.0460
  169DOPC  H18Y20621   6.878   1.737   9.271 -0.2195 -0.4670  0.0987
  169DOPC  H18Z20622   6.946   1.614   9.376 -0.2627  0.8976  0.7799
  170DOPC     N20623   5.129   5.769  10.427  0.0363  0.0096 -0.2013
  170DOPC   C1220624   5.126   5.681  10.301 -0.4244 -0.2316 -0.5696
  170DOPC  H12A20625   5.022   5.669  10.275 -0.3317 -0.1939 -0.9686
  170DOPC  H12B20626   5.172   5.584  10.314 -2.3606 -1.0915  0.2984
  170DOPC   C1320627   5.052   5.900  10.409 -0.1324  0.2772 -0.2772
  170DOPC  H13A20628   5.101   5.950  10.328  1.9360 -1.0324  0.0875
  170DOPC  H13B20629   4.948   5.884  10.384 -0.0351 -2.0767  0.5938
  170DOPC  H13C20630   5.050   5.959  10.500 -0.2080 -1.4523  0.8933
  170DOPC   C1420631   5.271   5.803  10.470  0.3554 -0.5823  0.0886
  170DOPC  H14A20632   5.318   5.878  10.408  2.7672  0.1400  2.5615
  170DOPC  H14B20633   5.270   5.830  10.575 -0.8610 -1.7745  0.4171
  170DOPC  H14C20634   5.330   5.712  10.466  1.0455 -0.2121  1.2727
  170DOPC   C1520635   5.072   5.695  10.540 -0.3211 -0.3092  0.0816
  170DOPC  H15A20636   5.129   5.605  10.556 -2.2720 -1.6755 -0.4019
  170DOPC  H15B20637   4.969   5.666  10.530  0.4449 -3.1470 -0.3628
  170DOPC  H15C20638   5.078   5.756  10.630 -0.6582 -1.2500  0.7517
  170DOPC   C1120639   5.195   5.740  10.178  0.2406  0.0154  0.6629
  170DOPC  H11A20640   5.181   5.675  10.089  1.2657  2.9561 -1.8217
  170DOPC  H11B20641   5.141   5.832  10.147  2.2746  0.9191 -0.3035
  170DOPC     P20642   5.452   5.672  10.190 -0.1470  0.0825 -0.1346
  170DOPC   O1320643   5.440   5.588  10.310 -0.3905  0.8033 -0.4355
  170DOPC   O1420644   5.576   5.750  10.172  0.6220 -0.2476  0.0111
  170DOPC   O1220645   5.331   5.778  10.185 -0.2747 -0.2831 -0.7819
  170DOPC   O1120646   5.445   5.584  10.061 -0.2032  0.0993 -0.2439
  170DOPC    C120647   5.388   5.454  10.059  0.1926  0.2159 -0.0467
  170DOPC    HA20648   5.283   5.455  10.098  0.9955 -1.2696  2.3767
  170DOPC    HB20649   5.439   5.383  10.127  2.4042  1.6235 -0.1492
  170DOPC    C220650   5.402   5.389   9.914 -0.1909 -0.1338  0.1637
  170DOPC    HS20651   5.349   5.464   9.850 -2.3893  0.8109  2.8737
  170DOPC   O2120652   5.337   5.269   9.891 -0.5735 -0.3318  0.2957
  170DOPC   C2120653   5.203   5.266   9.902 -0.4931  1.2074  0.0814
  170DOPC   O2220654   5.130   5.360   9.927 -0.1709 -0.3218 -0.0152
  170DOPC   C2220655   5.165   5.118   9.873 -0.0908 -0.5901  0.1336
  170DOPC   H2R20656   5.054   5.118   9.868 -0.1616 -0.6949  1.3809
  170DOPC   H2S20657   5.192   5.053   9.959  0.4856  1.3514  1.4891
  170DOPC    C320658   5.553   5.384   9.861 -0.3013 -0.0069  0.1289
  170DOPC    HX20659   5.607   5.315   9.930  0.2535  0.3773  0.0830
  170DOPC    HY20660   5.595   5.485   9.875 -0.0184 -0.3700  2.1906
  170DOPC   O3120661   5.558   5.326   9.729 -0.2473 -0.5650 -0.0436
  170DOPC   C3120662   5.681   5.339   9.675 -1.0189 -0.1175  0.3671
  170DOPC   O3220663   5.764   5.403   9.738  0.1524  0.2953  0.1485
  170DOPC   C3220664   5.699   5.264   9.547  0.0467  0.5472 -0.5785
  170DOPC   H2X20665   5.631   5.177   9.548 -0.0135  0.5768  1.7547
  170DOPC   H2Y20666   5.678   5.332   9.461 -0.4651 -0.9531 -1.6901
  170DOPC   C2320667   5.222   5.065   9.738  0.2580 -0.0980  0.5654
  170DOPC   H3R20668   5.209   4.954   9.739  0.4558 -0.1253  0.2030
  170DOPC   H3S20669   5.332   5.077   9.745  0.5286  0.0667 -2.6098
  170DOPC   C2420670   5.145   5.121   9.619  0.0954  0.2491  0.0891
  170DOPC   H4R20671   5.142   5.230   9.641  0.1310 -0.2395  2.8541
  170DOPC   H4S20672   5.042   5.081   9.626 -0.8713  2.2949 -1.4663
  170DOPC   C2520673   5.196   5.096   9.478 -0.3054 -0.2069  0.2411
  170DOPC   H5R20674   5.124   5.152   9.415  0.6819  0.5264 -0.2593
  170DOPC   H5S20675   5.183   4.987   9.462 -0.6084  0.0563 -1.5352
  170DOPC   C2620676   5.330   5.160   9.440  0.3123 -0.1404 -0.0874
  170DOPC   H6R20677   5.412   5.120   9.503 -1.2368 -0.6311  1.6905
  170DOPC   H6S20678   5.320   5.267   9.467  1.5511  0.1354 -0.6799
  170DOPC   C2720679   5.365   5.143   9.290  0.3577 -0.5842 -0.8133
  170DOPC   H7R20680   5.454   5.205   9.263  0.5477 -0.3719  0.2661
  170DOPC   H7S20681   5.285   5.186   9.226 -0.4923 -1.8906 -0.6505
  170DOPC   C2820682   5.408   5.004   9.242 -0.2899  0.2608  0.1677
  170DOPC   H8R20683   5.329   4.928   9.260  1.3203 -0.8002  3.8210
  170DOPC   H8S20684   5.487   4.971   9.313 -0.9589  0.8848  1.2281
  170DOPC   C2920685   5.467   4.999   9.104 -0.4952  0.2793  0.3356
  170DOPC   H9R20686   5.567   5.036   9.077 -0.1643 -1.7024 -1.3821
  170DOPC  C21020687   5.399   4.977   8.994 -0.5330 -0.4112  0.0182
  170DOPC  H10R20688   5.453   4.999   8.900  0.1685 -2.0648  0.0163
  170DOPC  C21120689   5.247   4.968   8.978  0.1816 -0.2805 -0.7701
  170DOPC  H11R20690   5.186   4.988   9.069 -1.8308  1.5019 -2.4072
  170DOPC  H11S20691   5.245   4.859   8.954  2.5559 -0.9869  1.6798
  170DOPC  C21220692   5.194   5.053   8.864 -0.5296  0.1329 -0.7557
  170DOPC  H12R20693   5.251   5.044   8.769 -0.6158  1.8568 -0.9949
  170DOPC  H12S20694   5.203   5.162   8.880 -2.1186  0.1770  0.0180
  170DOPC  C21320695   5.053   5.023   8.832  0.9996  0.3881  0.0321
  170DOPC  H13R20696   5.007   5.112   8.784  1.0757  0.9396  0.9541
  170DOPC  H13S20697   4.997   5.010   8.927  0.0218  0.1595 -0.5602
  170DOPC  C21420698   5.034   4.901   8.742  0.1743  0.1688 -0.2568
  170DOPC  H14R20699   5.044   4.803   8.792  2.0644 -0.7217 -2.2291
  170DOPC  H14S20700   5.121   4.902   8.673  1.4939  2.3950  1.3221
  170DOPC  C21520701   4.902   4.911   8.663 -0.4435 -0.2410  0.0358
  170DOPC  H15R20702   4.908   4.985   8.581  0.0480 -0.6866 -0.3372
  170DOPC  H15S20703   4.810   4.942   8.717 -0.6418  0.8144 -0.8946
  170DOPC  C21620704   4.867   4.771   8.616  0.0833 -0.1293 -0.4859
  170DOPC  H16R20705   4.891   4.698   8.696  0.7964  0.3434 -0.2669
  170DOPC  H16S20706   4.935   4.749   8.531  2.2506 -1.1064  1.4112
  170DOPC  C21720707   4.716   4.774   8.567 -0.0442  0.1974 -0.1805
  170DOPC  H17R20708   4.709   4.831   8.472 -1.7623  0.4494  0.0687
  170DOPC  H17S20709   4.662   4.825   8.650 -2.0448 -3.2747  0.8694
  170DOPC  C21820710   4.661   4.635   8.543  0.4276  0.1052  0.6229
  170DOPC  H18R20711   4.551   4.639   8.522  0.5024  0.8581  0.3381
  170DOPC  H18S20712   4.684   4.561   8.622  1.3456 -1.5947 -1.1549
  170DOPC  H18T20713   4.702   4.601   8.446 -0.9603 -0.2761  0.1423
  170DOPC   C3320714   5.845   5.228   9.536  0.8200  0.6401 -0.2356
  170DOPC   H3X20715   5.872   5.180   9.633 -1.2692  1.6129  0.8968
  170DOPC   H3Y20716   5.903   5.321   9.520  0.9700  0.2810 -1.9624
  170DOPC   C3420717   5.885   5.139   9.419  0.4032 -0.0744 -0.5856
  170DOPC   H4X20718   5.840   5.040   9.437 -2.1204  1.3254  1.5257
  170DOPC   H4Y20719   5.995   5.125   9.419  0.4975  0.5693  0.4422
  170DOPC   C3520720   5.847   5.199   9.278 -0.1933  0.1737 -0.2196
  170DOPC   H5X20721   5.905   5.293   9.269 -0.4521  0.3184 -0.4019
  170DOPC   H5Y20722   5.741   5.228   9.259  0.2473  1.0753 -1.3793
  170DOPC   C3620723   5.894   5.096   9.169 -0.4937  0.2125  0.1851
  170DOPC   H6X20724   5.997   5.070   9.201 -1.2836 -1.5847  1.4317
  170DOPC   H6Y20725   5.828   5.008   9.178 -0.2235 -0.0375 -0.2553
  170DOPC   C3720726   5.882   5.153   9.034  0.3194  0.2736 -0.1841
  170DOPC   H7X20727   5.789   5.214   9.032 -0.2118 -0.5316 -1.9813
  170DOPC   H7Y20728   5.964   5.227   9.023 -1.9718  3.0426  0.2088
  170DOPC   C3820729   5.885   5.047   8.927  0.0794 -0.3637 -0.3128
  170DOPC   H8X20730   5.795   4.985   8.944  0.4323 -1.0539 -0.9005
  170DOPC   H8Y20731   5.981   4.991   8.933 -0.1286 -1.0296 -2.5460
  170DOPC   C3920732   5.874   5.109   8.788  0.2637 -0.0991  0.1167
  170DOPC   H9X20733   5.877   5.219   8.790 -0.6219 -0.0656  0.1409
  170DOPC  C31020734   5.857   5.037   8.674 -0.2439 -0.4369  0.2622
  170DOPC  H10X20735   5.864   5.082   8.574 -0.4185 -2.5670 -0.7697
  170DOPC  C31120736   5.846   4.893   8.666  0.2042  0.3975 -0.1808
  170DOPC  H11X20737   5.844   4.854   8.770 -1.9752 -1.4112 -0.8047
  170DOPC  H11Y20738   5.933   4.842   8.621 -1.3404 -2.9172  0.2808
  170DOPC  C31220739   5.711   4.860   8.602  0.0681  0.5216  0.6482
  170DOPC  H12X20740   5.624   4.922   8.632 -0.7905  0.4417 -1.4990
  170DOPC  H12Y20741   5.689   4.755   8.632  0.4422 -0.0067 -0.8193
  170DOPC  C31320742   5.715   4.854   8.448 -0.2699  0.5314 -0.1970
  170DOPC  H13X20743   5.747   4.952   8.406  0.1090  1.2482  1.6593
  170DOPC  H13Y20744   5.779   4.769   8.419  1.4128  1.4108  0.7541
  170DOPC  C31420745   5.570   4.823   8.383  0.2800  0.2151  0.0469
  170DOPC  H14X20746   5.539   4.723   8.419 -2.5632  0.6992 -0.8398
  170DOPC  H14Y20747   5.499   4.902   8.415  2.0338  2.0192 -0.2874
  170DOPC  C31520748   5.574   4.820   8.227  0.9960 -0.5551  0.1151
  170DOPC  H15X20749   5.484   4.768   8.188  0.1408  0.9775 -0.0269
  170DOPC  H15Y20750   5.661   4.760   8.190  1.4558  0.2103 -0.0775
  170DOPC  C31620751   5.567   4.960   8.161 -0.4665 -0.0578 -1.4452
  170DOPC  H16X20752   5.483   5.007   8.217 -1.3066 -1.1383 -1.7652
  170DOPC  H16Y20753   5.661   5.019   8.173 -0.9889  0.8937 -1.9255
  170DOPC  C31720754   5.538   4.960   8.013 -0.7824  0.2031  0.2702
  170DOPC  H17X20755   5.453   4.889   8.000  0.5019 -1.5218  0.8562
  170DOPC  H17Y20756   5.521   5.064   7.977  5.2942  1.6307  0.5027
  170DOPC  C31820757   5.656   4.917   7.919 -0.3756 -1.1612 -0.1884
  170DOPC  H18X20758   5.609   4.891   7.822 -0.1884 -0.5563 -0.4437
  170DOPC  H18Y20759   5.720   5.002   7.890 -1.4985 -0.9744 -2.3477
  170DOPC  H18Z20760   5.718   4.829   7.947 -1.2662 -1.7391  0.0340
  171DOPC     N20761   0.341   1.817   5.883  0.2330  0.0378  0.2600
  171DOPC   C1220762   0.473   1.853   5.950 -0.7504  0.3786  0.2060
  171DOPC  H12A20763   0.525   1.925   5.889 -0.4209  1.0535  1.2583
  171DOPC  H12B20764   0.533   1.764   5.939 -1.2089  0.2438 -1.5116
  171DOPC   C1320765   0.246   1.931   5.893 -0.3325  0.1557  0.2182
  171DOPC  H13A20766   0.246   1.958   5.997  0.7070  0.7536  0.0813
  171DOPC  H13B20767   0.275   2.023   5.843  0.7549  0.0015  0.5341
  171DOPC  H13C20768   0.148   1.895   5.866 -0.4349  0.7836 -0.2641
  171DOPC   C1420769   0.281   1.699   5.952 -0.0572  0.6570  0.4363
  171DOPC  H14A20770   0.193   1.665   5.900  0.4035  0.9088 -0.5161
  171DOPC  H14B20771   0.349   1.615   5.954  0.3044  0.9525  0.6504
  171DOPC  H14C20772   0.243   1.726   6.050 -0.1932  1.4672  0.1677
  171DOPC   C1520773   0.365   1.781   5.743  0.1657 -0.2831  0.4315
  171DOPC  H15A20774   0.445   1.708   5.741 -0.6439 -1.2411  1.6926
  171DOPC  H15B20775   0.390   1.861   5.674  1.0134 -0.1594  0.8778
  171DOPC  H15C20776   0.282   1.724   5.703 -0.0210  0.8345 -0.8821
  171DOPC   C1120777   0.481   1.884   6.104 -0.2415 -0.2298  0.5900
  171DOPC  H11A20778   0.442   1.799   6.165  2.3107 -1.4985  0.5825
  171DOPC  H11B20779   0.591   1.885   6.122  0.0196  1.9861 -0.7811
  171DOPC     P20780   0.494   2.145   6.119  0.1329  0.0678  0.5753
  171DOPC   O1320781   0.393   2.248   6.118  0.1739 -0.1085  0.2398
  171DOPC   O1420782   0.579   2.129   6.000 -0.2242  0.1062 -0.0072
  171DOPC   O1220783   0.416   2.007   6.151 -0.5388  0.2728 -0.0038
  171DOPC   O1120784   0.588   2.156   6.244 -0.2931 -0.1120 -0.0475
  171DOPC    C120785   0.565   2.064   6.351  0.0469 -0.3004  0.0023
  171DOPC    HA20786   0.625   1.975   6.321  1.2397  0.6307 -0.4588
  171DOPC    HB20787   0.457   2.052   6.374 -0.1393  0.7831 -0.2524
  171DOPC    C220788   0.625   2.124   6.482 -0.3347 -0.0170  0.0384
  171DOPC    HS20789   0.605   2.055   6.567  0.4105 -0.7649 -0.3776
  171DOPC   O2120790   0.573   2.253   6.519  0.6616 -0.1220  0.0947
  171DOPC   C2120791   0.446   2.260   6.555  0.6476 -0.8347 -0.0390
  171DOPC   O2220792   0.364   2.171   6.565 -0.3940 -0.4766 -0.3716
  171DOPC   C2220793   0.409   2.405   6.603 -0.5308  0.0510  0.0120
  171DOPC   H2R20794   0.313   2.437   6.557 -0.1217 -0.9801 -1.6691
  171DOPC   H2S20795   0.489   2.460   6.549 -0.2152 -0.1417  0.2827
  171DOPC    C320796   0.784   2.139   6.466 -0.0070 -0.1487 -0.3672
  171DOPC    HX20797   0.801   2.225   6.398  0.6034 -0.8336 -1.1034
  171DOPC    HY20798   0.822   2.044   6.422 -2.1125 -1.1265 -0.2101
  171DOPC   O3120799   0.851   2.157   6.595  0.0620  0.0617  0.2276
  171DOPC   C3120800   0.987   2.169   6.588 -0.1143 -0.1379  0.7813
  171DOPC   O3220801   1.042   2.190   6.480  0.0259 -0.8205 -0.5389
  171DOPC   C3220802   1.041   2.145   6.733  0.4490 -0.5376  0.3332
  171DOPC   H2X20803   1.007   2.222   6.806 -1.0685  0.1578 -1.0684
  171DOPC   H2Y20804   1.007   2.044   6.766  0.3537 -0.5092  0.3191
  171DOPC   C2320805   0.426   2.444   6.752  0.3635  0.1758  0.3430
  171DOPC   H3R20806   0.431   2.555   6.755  1.4717  0.3535 -3.1732
  171DOPC   H3S20807   0.524   2.396   6.777  0.7691 -0.1817 -1.7586
  171DOPC   C2420808   0.328   2.386   6.855  0.1307  0.9315 -0.3656
  171DOPC   H4R20809   0.347   2.429   6.956  0.0760  1.4541 -0.5735
  171DOPC   H4S20810   0.342   2.276   6.864  0.7572  0.8947 -1.6303
  171DOPC   C2520811   0.184   2.414   6.833  0.3674  0.3130  0.6143
  171DOPC   H5R20812   0.157   2.383   6.730  0.1668  1.8085  0.1891
  171DOPC   H5S20813   0.183   2.525   6.842 -0.5055  0.2052  2.2203
  171DOPC   C2620814   0.082   2.345   6.931 -0.8196 -0.1673  0.2370
  171DOPC   H6R20815   0.132   2.349   7.030  0.2090 -1.1913 -0.2120
  171DOPC   H6S20816   0.069   2.238   6.904  0.3903 -0.9242  2.3782
  171DOPC   C2720817  -0.055   2.418   6.938 -1.0496 -0.3360  1.0442
  171DOPC   H7R20818  -0.106   2.381   7.029  1.5636 -0.6674  2.4887
  171DOPC   H7S20819  -0.110   2.393   6.845 -0.3567 -0.8836  0.7614
  171DOPC   C2820820  -0.043   2.571   6.951  0.4148 -0.3065  0.5328
  171DOPC   H8R20821  -0.145   2.612   6.938  0.7409  0.0882 -0.8659
  171DOPC   H8S20822  -0.004   2.620   6.860 -2.0570  1.0030  0.0886
  171DOPC   C2920823   0.027   2.620   7.069 -0.0665 -0.8058  0.4859
  171DOPC   H9R20824   0.128   2.653   7.040  0.1050 -1.6654  0.0652
  171DOPC  C21020825  -0.029   2.667   7.184  0.6726 -0.1217  0.1333
  171DOPC  H10R20826   0.036   2.718   7.257 -0.6079 -0.7672  1.7839
  171DOPC  C21120827  -0.172   2.653   7.216  0.2011 -0.5638 -0.0749
  171DOPC  H11R20828  -0.203   2.547   7.211 -0.9494 -0.2304 -0.2663
  171DOPC  H11S20829  -0.243   2.710   7.151  0.1424 -1.0659 -0.4536
  171DOPC  C21220830  -0.215   2.692   7.358 -0.1198  0.6430 -0.1945
  171DOPC  H12R20831  -0.326   2.691   7.351 -0.2286  0.7774  1.2642
  171DOPC  H12S20832  -0.177   2.794   7.375  1.8197 -0.0417 -0.1694
  171DOPC  C21320833  -0.174   2.593   7.470  0.5174  0.0080 -0.2064
  171DOPC  H13R20834  -0.064   2.599   7.463  0.6516 -0.3188  1.2707
  171DOPC  H13S20835  -0.190   2.487   7.439  0.3428 -0.1921  0.5572
  171DOPC  C21420836  -0.240   2.624   7.606 -0.3393  0.5646  0.5741
  171DOPC  H14R20837  -0.351   2.624   7.602 -0.3110  0.2879 -1.4040
  171DOPC  H14S20838  -0.218   2.729   7.635  1.6956  0.0001  1.2627
  171DOPC  C21520839  -0.183   2.534   7.719 -0.5611  0.2881  0.1443
  171DOPC  H15R20840  -0.075   2.541   7.696 -0.8178  1.5105 -0.8756
  171DOPC  H15S20841  -0.221   2.431   7.704 -1.3619  0.6814 -0.6472
  171DOPC  C21620842  -0.205   2.582   7.859 -1.0580  0.3397 -0.0811
  171DOPC  H16R20843  -0.312   2.574   7.887 -1.3670  0.8030 -1.0504
  171DOPC  H16S20844  -0.172   2.688   7.867  0.7695 -0.0220 -1.8701
  171DOPC  C21720845  -0.118   2.508   7.964 -0.1789 -0.0721 -0.2968
  171DOPC  H17R20846  -0.017   2.501   7.920  0.1322  0.6502  0.2759
  171DOPC  H17S20847  -0.147   2.401   7.971  0.6380 -0.2022  1.7276
  171DOPC  C21820848  -0.121   2.572   8.103  0.5321  0.3472  0.0792
  171DOPC  H18R20849  -0.220   2.621   8.118  0.2827  0.1855 -0.9645
  171DOPC  H18S20850  -0.046   2.653   8.119 -1.4889  2.1108  1.1238
  171DOPC  H18T20851  -0.123   2.504   8.191 -1.6884  0.4186  0.1490
  171DOPC   C3320852   1.199   2.135   6.748  0.1405 -0.0571 -0.4387
  171DOPC   H3X20853   1.220   2.124   6.856  1.0812 -0.1984 -0.6296
  171DOPC   H3Y20854   1.240   2.235   6.725 -0.1711  0.9364  2.8179
  171DOPC   C3420855   1.256   2.017   6.670 -0.8412 -0.2812 -0.7246
  171DOPC   H4X20856   1.262   2.045   6.563 -0.0033  1.1876 -0.3139
  171DOPC   H4Y20857   1.202   1.920   6.679  1.2746 -1.3763  0.7435
  171DOPC   C3520858   1.409   1.993   6.710  0.4733 -0.3557  0.5795
  171DOPC   H5X20859   1.411   1.976   6.820 -1.5799 -0.9887  0.5596
  171DOPC   H5Y20860   1.458   2.091   6.691  0.5459 -0.4265  0.3928
  171DOPC   C3620861   1.482   1.881   6.639  0.3999 -0.3460  0.3799
  171DOPC   H6X20862   1.412   1.797   6.655  0.3979 -0.4970 -0.3868
  171DOPC   H6Y20863   1.497   1.890   6.530  0.1576 -1.4553  0.2462
  171DOPC   C3720864   1.608   1.842   6.715 -0.1623 -0.0238 -0.0752
  171DOPC   H7X20865   1.584   1.830   6.823  0.3671 -0.5281 -0.0130
  171DOPC   H7Y20866   1.649   1.749   6.672  1.8738  0.7158  0.1460
  171DOPC   C3820867   1.712   1.953   6.704  0.6724 -0.4120  0.2854
  171DOPC   H8X20868   1.676   2.051   6.743 -0.3598 -0.4553 -0.5338
  171DOPC   H8Y20869   1.738   1.965   6.596  3.1407 -0.6714  0.7960
  171DOPC   C3920870   1.828   1.908   6.790  0.1004  0.2784  0.2618
  171DOPC   H9X20871   1.880   1.820   6.750 -3.0594 -1.2218 -0.8938
  171DOPC  C31020872   1.875   1.954   6.909 -0.6119 -0.9805  0.0899
  171DOPC  H10X20873   1.957   1.906   6.964 -0.3710 -1.6698 -0.8453
  171DOPC  C31120874   1.810   2.071   6.981 -0.0637  0.0598  0.4282
  171DOPC  H11X20875   1.807   2.155   6.909  1.0815 -1.0159 -0.9283
  171DOPC  H11Y20876   1.871   2.100   7.069  0.4562 -2.3344  0.9267
  171DOPC  C31220877   1.664   2.047   7.037 -0.0849 -0.5999 -0.1368
  171DOPC  H12X20878   1.662   1.980   7.126  0.3344  1.3787  1.4275
  171DOPC  H12Y20879   1.602   2.011   6.952  2.2053 -0.2823 -2.0475
  171DOPC  C31320880   1.599   2.170   7.103  0.2232 -0.1067 -0.9266
  171DOPC  H13X20881   1.493   2.158   7.136 -0.0847  2.9980 -0.4621
  171DOPC  H13Y20882   1.661   2.209   7.186  1.0273 -1.4116 -0.8946
  171DOPC  C31420883   1.583   2.288   7.010  0.8765 -0.0717  0.0216
  171DOPC  H14X20884   1.675   2.334   6.969 -0.3929  0.7446 -2.0843
  171DOPC  H14Y20885   1.528   2.255   6.920  0.3729  0.4691  0.1232
  171DOPC  C31520886   1.495   2.399   7.073 -0.3303 -0.1988 -0.3422
  171DOPC  H15X20887   1.562   2.450   7.145  0.7214 -0.7142 -0.9237
  171DOPC  H15Y20888   1.412   2.359   7.135  1.0979 -2.0109  0.5068
  171DOPC  C31620889   1.442   2.504   6.976  0.6574 -0.4027  0.1980
  171DOPC  H16X20890   1.425   2.595   7.037  1.3713 -0.5681  0.6549
  171DOPC  H16Y20891   1.513   2.523   6.893 -2.7974  1.2827 -2.6781
  171DOPC  C31720892   1.309   2.453   6.927  0.2605  0.2336 -0.9005
  171DOPC  H17X20893   1.325   2.352   6.884 -2.7020 -0.3237 -0.9459
  171DOPC  H17Y20894   1.241   2.432   7.012 -0.5749  2.3518 -0.9923
  171DOPC  C31820895   1.230   2.555   6.837  0.3686 -0.3357  0.0491
  171DOPC  H18X20896   1.304   2.603   6.769 -1.1963  0.6183 -1.0300
  171DOPC  H18Y20897   1.149   2.506   6.779  0.6017 -1.4033  0.5874
  171DOPC  H18Z20898   1.203   2.639   6.905  0.7687 -1.6565  1.9438
  172DOPC     N20899   0.472   2.764   6.109 -0.0854 -0.3486 -0.1148
  172DOPC   C1220900   0.582   2.683   6.171 -0.8512 -0.6175  0.0414
  172DOPC  H12A20901   0.635   2.629   6.095 -0.3120  1.3139 -1.0196
  172DOPC  H12B20902   0.544   2.597   6.225 -0.6856 -0.3463  0.6061
  172DOPC   C1320903   0.549   2.882   6.043  0.6514  0.2877 -0.3642
  172DOPC  H13A20904   0.594   2.845   5.952 -0.3937 -0.3248 -0.6465
  172DOPC  H13B20905   0.484   2.964   6.015 -2.1891 -1.3492  0.9829
  172DOPC  H13C20906   0.627   2.921   6.107  1.6336  0.1457 -1.4286
  172DOPC   C1420907   0.378   2.831   6.205  0.0684 -0.7565 -0.6380
  172DOPC  H14A20908   0.316   2.762   6.260  1.6925 -1.8273 -0.0847
  172DOPC  H14B20909   0.434   2.891   6.275  0.1420  2.8389 -3.4608
  172DOPC  H14C20910   0.309   2.899   6.157  0.6205  1.6870  1.7930
  172DOPC   C1520911   0.396   2.682   6.001  0.7097  0.3601 -0.0905
  172DOPC  H15A20912   0.345   2.752   5.937  0.8915  2.6506  2.1450
  172DOPC  H15B20913   0.329   2.617   6.056  0.0876  0.1302 -1.0863
  172DOPC  H15C20914   0.461   2.622   5.939  0.4460  0.2835 -0.2954
  172DOPC   C1120915   0.681   2.747   6.265 -0.5981  0.1071 -0.1043
  172DOPC  H11A20916   0.624   2.801   6.345 -1.2281  0.1397 -0.5678
  172DOPC  H11B20917   0.731   2.669   6.326  2.0240  2.0917  0.4894
  172DOPC     P20918   0.899   2.760   6.125  0.0168 -0.2881  0.1627
  172DOPC   O1320919   0.980   2.869   6.071  0.6036 -0.1050 -0.2387
  172DOPC   O1420920   0.843   2.665   6.026  0.6368  0.0620  0.6974
  172DOPC   O1220921   0.779   2.825   6.198  0.3285 -0.0640  0.2203
  172DOPC   O1120922   0.973   2.684   6.233 -0.0937  0.2000  0.5541
  172DOPC    C120923   1.045   2.750   6.338  0.1843  0.3811 -0.4397
  172DOPC    HA20924   0.984   2.832   6.380  0.4203  1.2637 -1.7411
  172DOPC    HB20925   1.142   2.796   6.307  0.6910  0.0440  0.6050
  172DOPC    C220926   1.077   2.662   6.460  0.3422 -0.7609  0.0722
  172DOPC    HS20927   1.107   2.731   6.541  0.0672  0.3016 -0.7122
  172DOPC   O2120928   1.157   2.541   6.430 -0.0793  0.2206 -0.2939
  172DOPC   C2120929   1.285   2.574   6.431 -0.3555 -0.0890  0.1433
  172DOPC   O2220930   1.337   2.684   6.422  0.7305  0.0964 -0.1708
  172DOPC   C2220931   1.365   2.442   6.408 -0.1780 -0.1631 -0.3484
  172DOPC   H2R20932   1.361   2.428   6.297 -1.0929  0.9975 -0.4790
  172DOPC   H2S20933   1.312   2.356   6.453  0.4175 -0.5151 -0.3059
  172DOPC    C320934   0.946   2.604   6.524  0.0650 -0.7195  0.2504
  172DOPC    HX20935   0.987   2.530   6.596  2.3851 -2.3132 -2.5006
  172DOPC    HY20936   0.885   2.558   6.443 -0.4352  3.3294 -1.9492
  172DOPC   O3120937   0.872   2.701   6.601  0.5059 -0.8519  0.3390
  172DOPC   C3120938   0.764   2.642   6.657 -0.0040 -0.6374  0.0820
  172DOPC   O3220939   0.733   2.528   6.639 -0.4036 -0.2033  0.1587
  172DOPC   C3220940   0.677   2.736   6.735 -0.5596  0.8210  0.4329
  172DOPC   H2X20941   0.674   2.838   6.692 -1.4975  1.5502  2.1038
  172DOPC   H2Y20942   0.574   2.703   6.712  0.9576 -2.5823 -2.2712
  172DOPC   C2320943   1.507   2.436   6.472  0.2095 -0.3873 -0.0826
  172DOPC   H3R20944   1.486   2.400   6.575 -2.8823 -1.4654 -0.9728
  172DOPC   H3S20945   1.524   2.545   6.483 -0.7414 -0.3050  0.7514
  172DOPC   C2420946   1.619   2.384   6.383 -0.4610 -0.4414  0.3600
  172DOPC   H4R20947   1.626   2.458   6.300 -0.7669 -0.1358  0.5994
  172DOPC   H4S20948   1.592   2.292   6.328 -1.8829 -0.0026  0.2691
  172DOPC   C2520949   1.753   2.363   6.449 -0.2579 -0.1325  0.4094
  172DOPC   H5R20950   1.834   2.337   6.376  1.6830 -0.3560  2.5174
  172DOPC   H5S20951   1.753   2.281   6.523  0.8971  0.5492  1.2000
  172DOPC   C2620952   1.800   2.491   6.530 -0.0034  1.1808  0.3581
  172DOPC   H6R20953   1.717   2.514   6.600 -3.5632 -0.5671 -2.9228
  172DOPC   H6S20954   1.804   2.575   6.457  3.2687 -0.4554 -1.5975
  172DOPC   C2720955   1.940   2.486   6.594 -0.2911  0.7708  0.4116
  172DOPC   H7R20956   2.011   2.484   6.508  1.3564 -0.3825  1.7220
  172DOPC   H7S20957   1.932   2.384   6.638  0.2111  0.3188 -0.5161
  172DOPC   C2820958   1.966   2.599   6.689 -0.7093 -0.2373 -0.7247
  172DOPC   H8R20959   1.869   2.601   6.743 -0.3143  0.3086 -0.0074
  172DOPC   H8S20960   1.975   2.701   6.646  0.5964 -0.7397 -1.7106
  172DOPC   C2920961   2.086   2.580   6.774 -0.4363  1.0618 -0.2836
  172DOPC   H9R20962   2.178   2.572   6.714 -0.3399  0.9152 -0.1183
  172DOPC  C21020963   2.088   2.549   6.908 -0.2809  0.4248 -0.8151
  172DOPC  H10R20964   2.181   2.549   6.967 -0.9040 -1.5781  0.2580
  172DOPC  C21120965   1.963   2.539   7.003  0.3883  0.2154  0.1312
  172DOPC  H11R20966   1.886   2.466   6.969 -0.8908  0.8094  1.6464
  172DOPC  H11S20967   1.912   2.637   7.015 -1.1780 -0.6695  0.9913
  172DOPC  C21220968   2.005   2.487   7.147  1.1391  0.0785  0.0204
  172DOPC  H12R20969   2.085   2.553   7.187  0.0577  1.6344 -0.3170
  172DOPC  H12S20970   2.042   2.382   7.135 -0.8236 -0.6344 -0.1451
  172DOPC  C21320971   1.881   2.491   7.238  0.4789 -0.6233 -0.4763
  172DOPC  H13R20972   1.810   2.423   7.186 -1.9637  0.1028  1.7207
  172DOPC  H13S20973   1.840   2.593   7.251  1.1146 -0.0933 -2.2247
  172DOPC  C21420974   1.893   2.426   7.375  0.1165  1.0088 -0.3172
  172DOPC  H14R20975   1.969   2.485   7.431  1.3234 -1.5389  0.8889
  172DOPC  H14S20976   1.935   2.326   7.356  1.3141  1.3268  0.5469
  172DOPC  C21520977   1.761   2.416   7.451 -0.2916 -0.0885  0.0775
  172DOPC  H15R20978   1.686   2.379   7.377  0.2113  0.2473 -0.5994
  172DOPC  H15S20979   1.726   2.520   7.470  0.4515  0.6272 -2.2118
  172DOPC  C21620980   1.775   2.320   7.572  0.3208 -0.5207 -0.4574
  172DOPC  H16R20981   1.687   2.340   7.637  0.7497 -2.0166  0.6367
  172DOPC  H16S20982   1.866   2.350   7.627  1.4395  0.4777 -2.7242
  172DOPC  C21720983   1.784   2.176   7.542  0.5114  0.6101  0.8297
  172DOPC  H17R20984   1.875   2.165   7.481  0.0354  2.0625 -0.1957
  172DOPC  H17S20985   1.701   2.142   7.476  1.1094  1.6044 -0.4810
  172DOPC  C21820986   1.786   2.091   7.672 -0.3299 -0.8872  0.0557
  172DOPC  H18R20987   1.805   1.985   7.644  2.4837 -0.5379  0.3716
  172DOPC  H18S20988   1.689   2.098   7.726  0.1084 -0.2068  0.7754
  172DOPC  H18T20989   1.864   2.136   7.737 -0.1255 -1.3602  0.1464
  172DOPC   C3320990   0.699   2.721   6.887  0.6692  0.2058 -0.0813
  172DOPC   H3X20991   0.693   2.612   6.910  0.8866  0.3647  0.7826
  172DOPC   H3Y20992   0.615   2.778   6.932  1.1891 -0.6904  2.1760
  172DOPC   C3420993   0.838   2.770   6.936 -0.9691  0.0211 -0.2580
  172DOPC   H4X20994   0.849   2.870   6.889 -0.5146 -1.1532 -2.8018
  172DOPC   H4Y20995   0.925   2.717   6.893 -1.7838  0.2105 -2.2353
  172DOPC   C3520996   0.864   2.781   7.087 -0.2304  0.3760  0.4366
  172DOPC   H5X20997   0.826   2.684   7.126 -0.1334  0.3510  0.4682
  172DOPC   H5Y20998   0.806   2.861   7.138 -1.7625 -0.8800  0.7549
  172DOPC   C3620999   1.022   2.770   7.129  0.1102 -0.2450  0.2950
  172DOPC   H6X21000   1.047   2.676   7.077  2.5587 -0.3138  1.4869
  172DOPC   H6Y21001   1.072   2.864   7.097  1.4121 -0.7568  0.7948
  172DOPC   C3721002   1.049   2.758   7.280  0.4112 -0.6476 -0.5505
  172DOPC   H7X21003   1.014   2.846   7.338 -0.3577 -0.5184 -1.1829
  172DOPC   H7Y21004   0.993   2.670   7.318  0.2322 -0.1134  0.4646
  172DOPC   C3821005   1.194   2.736   7.304 -0.1939  0.3450  0.1304
  172DOPC   H8X21006   1.222   2.769   7.407 -0.3437  3.3960 -0.7159
  172DOPC   H8Y21007   1.246   2.810   7.240 -0.3653  0.7312  0.4360
  172DOPC   C3921008   1.249   2.597   7.280 -0.4588 -0.4933  0.5816
  172DOPC   H9X21009   1.241   2.566   7.175  0.3043 -0.7642  0.5906
  172DOPC  C31021010   1.285   2.504   7.371 -0.0755 -0.4591 -0.0702
  172DOPC  H10X21011   1.323   2.408   7.334  1.8594 -0.4956  1.7891
  172DOPC  C31121012   1.288   2.518   7.522 -0.1006 -0.3713  0.5520
  172DOPC  H11X21013   1.233   2.439   7.578  0.0077 -0.3476  0.6953
  172DOPC  H11Y21014   1.237   2.613   7.549  0.6468 -0.0015  0.7077
  172DOPC  C31221015   1.439   2.527   7.562  0.4736 -1.2032  0.1170
  172DOPC  H12X21016   1.495   2.589   7.489  1.0107 -2.0968 -0.2556
  172DOPC  H12Y21017   1.484   2.425   7.556  0.5042 -1.1060 -2.4134
  172DOPC  C31321018   1.472   2.592   7.701 -0.5715  0.6252 -0.4663
  172DOPC  H13X21019   1.582   2.581   7.713 -0.8043 -0.8009  0.7484
  172DOPC  H13Y21020   1.432   2.694   7.681 -2.3538 -0.5142 -3.3396
  172DOPC  C31421021   1.401   2.531   7.822 -0.2047  0.4873  0.0302
  172DOPC  H14X21022   1.294   2.554   7.802 -0.5952  1.0504  2.5100
  172DOPC  H14Y21023   1.410   2.420   7.826  0.9084  0.5291 -0.7313
  172DOPC  C31521024   1.446   2.601   7.954 -0.3781 -0.1497  0.2229
  172DOPC  H15X21025   1.418   2.709   7.957  0.9308  0.2505 -0.6942
  172DOPC  H15Y21026   1.556   2.598   7.968 -0.2445  1.6138 -0.1944
  172DOPC  C31621027   1.386   2.527   8.077 -0.3504  0.3845  1.2508
  172DOPC  H16X21028   1.277   2.510   8.068 -0.0730 -1.1377  0.4341
  172DOPC  H16Y21029   1.428   2.425   8.083 -0.1753  0.4029  0.4118
  172DOPC  C31721030   1.433   2.579   8.214 -0.0007 -0.2013 -0.6536
  172DOPC  H17X21031   1.542   2.594   8.227 -0.2646  0.5322  0.9045
  172DOPC  H17Y21032   1.395   2.682   8.225  1.6611  0.7476 -2.8887
  172DOPC  C31821033   1.383   2.498   8.340 -0.7036 -0.2182 -0.0695
  172DOPC  H18X21034   1.449   2.521   8.426 -2.4749 -1.3044  1.6528
  172DOPC  H18Y21035   1.280   2.537   8.354 -0.6623  1.1729 -2.8578
  172DOPC  H18Z21036   1.385   2.388   8.328  2.2412 -0.1959 -0.4884
  173DOPC     N21037   7.661   0.317   6.306 -0.6168  0.4066  0.1091
  173DOPC   C1221038   7.583   0.325   6.176 -0.0957 -0.6299 -0.4973
  173DOPC  H12A21039   7.521   0.237   6.163 -2.0950  0.8094 -1.2095
  173DOPC  H12B21040   7.658   0.331   6.098  1.5089  0.1170  1.0383
  173DOPC   C1321041   7.575   0.289   6.427 -0.1460  0.1386  0.0266
  173DOPC  H13A21042   7.644   0.286   6.511 -1.1363 -1.0114  0.8436
  173DOPC  H13B21043   7.502   0.365   6.451 -1.1900 -0.8185 -0.0348
  173DOPC  H13C21044   7.533   0.191   6.413  0.1826  0.0627 -0.4369
  173DOPC   C1421045   7.737   0.446   6.332 -0.3648 -0.1940  0.7384
  173DOPC  H14A21046   7.805   0.438   6.415 -0.4129 -0.6197  0.7354
  173DOPC  H14B21047   7.789   0.466   6.240  0.4021 -1.1658  0.9544
  173DOPC  H14C21048   7.658   0.517   6.353 -2.3129 -1.3178 -2.1324
  173DOPC   C1521049   7.755   0.204   6.284 -0.0553 -0.1962  0.6417
  173DOPC  H15A21050   7.818   0.177   6.367 -0.1395 -0.4157  0.6351
  173DOPC  H15B21051   7.823   0.222   6.202 -0.1391 -0.4578  0.5140
  173DOPC  H15C21052   7.697   0.117   6.257 -2.1445  1.1574  0.4799
  173DOPC   C1121053   7.484   0.445   6.162  0.4031 -0.1437 -0.4469
  173DOPC  H11A21054   7.429   0.446   6.066 -1.0299  0.5801  0.3403
  173DOPC  H11B21055   7.414   0.415   6.243  0.2391  2.2739  0.3881
  173DOPC     P21056   7.531   0.700   6.103 -0.3142  0.6722  0.0466
  173DOPC   O1321057   7.527   0.634   5.969 -0.2156  0.0957  0.6130
  173DOPC   O1421058   7.649   0.786   6.131 -0.5923  0.1940 -0.0925
  173DOPC   O1221059   7.540   0.573   6.197  0.2401 -0.1033  0.0313
  173DOPC   O1121060   7.398   0.775   6.131  0.6661 -0.4505 -0.1943
  173DOPC    C121061   7.390   0.875   6.235  0.6583 -0.7739  0.9472
  173DOPC    HA21062   7.301   0.938   6.216  1.8337  0.0499 -2.5452
  173DOPC    HB21063   7.481   0.940   6.233  1.2238 -1.5722 -0.9556
  173DOPC    C221064   7.361   0.813   6.375 -0.5334 -0.2689  0.3563
  173DOPC    HS21065   7.329   0.900   6.435 -0.1145  0.5100 -0.5297
  173DOPC   O2121066   7.479   0.754   6.421 -0.0752  0.0095 -0.0027
  173DOPC   C2121067   7.565   0.827   6.483  0.6019 -0.9517 -0.4767
  173DOPC   O2221068   7.546   0.942   6.516 -0.2420 -0.5693 -0.5916
  173DOPC   C2221069   7.684   0.742   6.516  0.3287  0.5057 -0.1036
  173DOPC   H2R21070   7.728   0.695   6.426  0.4305 -0.6832  0.5384
  173DOPC   H2S21071   7.658   0.656   6.582 -1.7433  0.1111 -1.3740
  173DOPC    C321072   7.255   0.708   6.368 -0.6703  0.1868 -0.2930
  173DOPC    HX21073   7.298   0.615   6.325  2.0588  0.8912  0.7123
  173DOPC    HY21074   7.169   0.757   6.318 -1.5193 -0.4483  0.5019
  173DOPC   O3121075   7.215   0.668   6.501 -0.0112 -0.2429  0.4993
  173DOPC   C3121076   7.139   0.757   6.566 -0.5948 -0.0026 -0.1010
  173DOPC   O3221077   7.111   0.872   6.534  0.0670  0.1232 -0.3032
  173DOPC   C3221078   7.084   0.690   6.687 -0.4382 -0.2275  0.0147
  173DOPC   H2X21079   7.010   0.754   6.739 -0.2602 -0.7287  0.9215
  173DOPC   H2Y21080   7.036   0.595   6.655  2.1526 -1.7040  0.2031
  173DOPC   C2321081   7.795   0.815   6.587  0.2048 -0.6092 -0.6699
  173DOPC   H3R21082   7.816   0.914   6.542 -0.1153 -0.4922 -0.5659
  173DOPC   H3S21083   7.891   0.762   6.570  1.0583 -0.1265  2.0417
  173DOPC   C2421084   7.785   0.827   6.740 -0.1810 -0.2853  0.0441
  173DOPC   H4R21085   7.787   0.724   6.783  1.1459 -1.0899 -1.8145
  173DOPC   H4S21086   7.693   0.887   6.761 -0.5810 -0.9819  0.3220
  173DOPC   C2521087   7.893   0.914   6.808  0.1493  0.5285 -0.3778
  173DOPC   H5R21088   7.897   1.012   6.757 -1.6305  1.2072  0.6845
  173DOPC   H5S21089   7.983   0.854   6.784  0.8797  1.6753 -0.5945
  173DOPC   C2621090   7.854   0.946   6.954  0.1253  0.0798 -0.1396
  173DOPC   H6R21091   7.746   0.932   6.973 -0.0423  0.2888 -0.9150
  173DOPC   H6S21092   7.865   1.055   6.974  0.7289 -0.1080  0.6246
  173DOPC   C2721093   7.934   0.869   7.058  0.1375 -0.2475  0.6623
  173DOPC   H7R21094   7.930   0.761   7.031 -0.8226 -0.4644  1.6102
  173DOPC   H7S21095   7.881   0.873   7.156 -0.2078 -1.2779  0.5337
  173DOPC   C2821096   8.077   0.922   7.074 -0.3547  0.0823 -0.0063
  173DOPC   H8R21097   8.127   0.934   6.975  0.4344  2.2304  0.5771
  173DOPC   H8S21098   8.135   0.857   7.143  0.9476  0.2875 -0.8511
  173DOPC   C2921099   8.081   1.061   7.136 -0.1260 -0.4032 -0.2440
  173DOPC   H9R21100   8.096   1.145   7.066 -1.0970 -0.3957 -0.4520
  173DOPC  C21021101   8.094   1.090   7.261  0.6382  0.1556 -0.4754
  173DOPC  H10R21102   8.125   1.190   7.293  0.9972  0.0729 -0.5578
  173DOPC  C21121103   8.065   0.998   7.377  0.2678 -0.2291 -0.5887
  173DOPC  H11R21104   8.047   0.893   7.344 -2.8114 -0.1497  0.5539
  173DOPC  H11S21105   7.981   1.043   7.434 -0.2414 -0.1590 -1.3863
  173DOPC  C21221106   8.181   0.997   7.484  0.1503  0.1775 -0.8043
  173DOPC  H12R21107   8.264   0.948   7.427  0.7987 -1.2229  1.2092
  173DOPC  H12S21108   8.153   0.917   7.556 -0.1085  0.4675 -0.5869
  173DOPC  C21321109   8.229   1.126   7.548  0.9183 -0.3948  0.4149
  173DOPC  H13R21110   8.141   1.167   7.602 -0.8216 -0.2906 -2.2816
  173DOPC  H13S21111   8.246   1.190   7.459 -1.8948 -2.1772 -1.5756
  173DOPC  C21421112   8.350   1.132   7.644 -0.3358  0.0598 -0.3371
  173DOPC  H14R21113   8.407   1.039   7.622  2.0833  0.7639  2.4226
  173DOPC  H14S21114   8.306   1.131   7.746  1.4937  1.7411  0.5211
  173DOPC  C21521115   8.438   1.260   7.626  0.1714  0.3807 -0.3493
  173DOPC  H15R21116   8.374   1.348   7.647  1.0000  0.8635  0.2060
  173DOPC  H15S21117   8.477   1.265   7.521 -0.2932 -0.0244 -0.5424
  173DOPC  C21621118   8.553   1.279   7.734 -0.0233  0.9159  1.1624
  173DOPC  H16R21119   8.505   1.255   7.831 -1.9615 -1.4934 -0.2924
  173DOPC  H16S21120   8.583   1.386   7.730 -0.4708  1.0170  0.2122
  173DOPC  C21721121   8.679   1.205   7.705  0.2671  0.2249  0.4582
  173DOPC  H17R21122   8.746   1.227   7.790  1.2419 -1.6007  0.2160
  173DOPC  H17S21123   8.728   1.233   7.610 -1.9003 -0.7923 -1.0622
  173DOPC  C21821124   8.683   1.055   7.699  0.1789 -0.0287 -0.8706
  173DOPC  H18R21125   8.620   1.020   7.614 -1.1155  0.2640 -0.0709
  173DOPC  H18S21126   8.632   1.022   7.792  0.0747 -0.1566 -0.9722
  173DOPC  H18T21127   8.787   1.019   7.700  0.5259  0.8185  1.8108
  173DOPC   C3321128   7.201   0.650   6.785 -0.7318 -0.3561  0.0684
  173DOPC   H3X21129   7.284   0.604   6.728  0.5375  2.4975 -0.5272
  173DOPC   H3Y21130   7.163   0.573   6.856 -1.3725 -0.2617 -0.1637
  173DOPC   C3421131   7.260   0.773   6.865  0.2770 -0.2933  0.1386
  173DOPC   H4X21132   7.193   0.823   6.938  0.0067 -1.0183  0.3984
  173DOPC   H4Y21133   7.282   0.856   6.794 -3.0614 -0.1875 -0.9223
  173DOPC   C3521134   7.383   0.725   6.940  0.1561  0.3906  0.0203
  173DOPC   H5X21135   7.465   0.695   6.872 -1.8562 -1.3063 -1.8009
  173DOPC   H5Y21136   7.368   0.633   7.001  2.4684 -0.6277 -0.8344
  173DOPC   C3621137   7.430   0.833   7.045  0.4201  0.4100  0.9696
  173DOPC   H6X21138   7.511   0.780   7.098 -0.7560 -1.4760  0.9941
  173DOPC   H6Y21139   7.471   0.921   6.992 -1.6350  0.9574  0.1878
  173DOPC   C3721140   7.322   0.876   7.141 -0.0046 -1.0584  0.5788
  173DOPC   H7X21141   7.249   0.949   7.100  0.9465  0.4986  1.5515
  173DOPC   H7Y21142   7.271   0.786   7.180  0.8201 -1.1856  1.4158
  173DOPC   C3821143   7.379   0.941   7.270  0.4154 -0.2285  1.1383
  173DOPC   H8X21144   7.407   1.046   7.247 -1.4774  0.2165  0.7400
  173DOPC   H8Y21145   7.466   0.891   7.317  1.8440  2.8840  2.0708
  173DOPC   C3921146   7.277   0.933   7.376  0.2756 -0.6781  0.0991
  173DOPC   H9X21147   7.310   0.861   7.453  1.0071 -0.7580 -0.2799
  173DOPC  C31021148   7.182   1.019   7.410 -0.3086  0.1187 -0.3294
  173DOPC  H10X21149   7.099   1.001   7.479 -1.2478  4.6146 -0.0026
  173DOPC  C31121150   7.150   1.142   7.331 -0.0948 -0.0974  0.6898
  173DOPC  H11X21151   7.194   1.135   7.229 -1.2075 -1.2603  0.2633
  173DOPC  H11Y21152   7.181   1.238   7.378 -0.1319  0.1053  0.2972
  173DOPC  C31221153   7.002   1.147   7.297  1.2726 -0.0991  0.6369
  173DOPC  H12X21154   6.993   1.236   7.231  0.4777 -1.9302 -1.8875
  173DOPC  H12Y21155   6.936   1.170   7.384  0.1460  3.3027 -0.9277
  173DOPC  C31321156   6.948   1.025   7.222 -0.2529  0.7318 -0.0186
  173DOPC  H13X21157   7.011   1.005   7.133 -1.6733 -0.0624 -0.8853
  173DOPC  H13Y21158   6.969   0.932   7.279  3.4971  0.2921 -1.7873
  173DOPC  C31421159   6.808   1.048   7.163 -0.2977  0.2006 -0.4327
  173DOPC  H14X21160   6.739   1.075   7.246  1.6263  1.3831  0.8530
  173DOPC  H14Y21161   6.813   1.137   7.096 -0.9547  0.9526  0.4742
  173DOPC  C31521162   6.751   0.929   7.090 -0.0727  0.1351  0.1140
  173DOPC  H15X21163   6.694   0.859   7.154  0.2430  0.0606  0.3159
  173DOPC  H15Y21164   6.828   0.858   7.052 -0.1751  0.9917 -1.7903
  173DOPC  C31621165   6.643   0.967   6.984 -0.3094 -0.3909  0.3820
  173DOPC  H16X21166   6.566   1.020   7.043 -1.4627  1.7576 -2.8133
  173DOPC  H16Y21167   6.685   1.047   6.920 -1.0299  0.9699  1.5570
  173DOPC  C31721168   6.574   0.853   6.906  0.5424 -0.0030  0.9014
  173DOPC  H17X21169   6.525   0.779   6.972 -0.1279 -0.1783  0.2149
  173DOPC  H17Y21170   6.498   0.902   6.842  0.4311 -1.9978 -0.5624
  173DOPC  C31821171   6.668   0.769   6.817  0.7328  0.1199 -0.9358
  173DOPC  H18X21172   6.747   0.718   6.876  0.2648 -0.1687 -0.5556
  173DOPC  H18Y21173   6.607   0.693   6.764  0.2168 -0.8532  0.9486
  173DOPC  H18Z21174   6.727   0.815   6.734 -0.1370 -1.8478 -2.7427
  174DOPC     N21175   2.072   1.427   6.026  0.6154 -0.5057 -0.2035
  174DOPC   C1221176   2.013   1.426   6.165  0.0088 -0.2106 -0.5105
  174DOPC  H12A21177   1.914   1.383   6.157  0.6881 -1.5630 -2.2134
  174DOPC  H12B21178   2.018   1.529   6.199 -3.5963 -0.5218  1.5099
  174DOPC   C1321179   2.042   1.293   5.973  0.5714 -0.5359  0.0621
  174DOPC  H13A21180   2.113   1.216   5.999  1.0406 -0.5225 -1.1094
  174DOPC  H13B21181   1.940   1.258   5.985  1.1606 -2.4473 -0.1781
  174DOPC  H13C21182   2.057   1.300   5.866  0.7980  1.3341  0.1763
  174DOPC   C1421183   2.220   1.463   6.010 -1.0143  0.6707 -0.2372
  174DOPC  H14A21184   2.277   1.402   6.080  2.6245  2.0302 -1.7926
  174DOPC  H14B21185   2.257   1.437   5.912 -2.2737 -0.0510 -0.5519
  174DOPC  H14C21186   2.248   1.565   6.030 -0.5149  0.1971  1.7240
  174DOPC   C1521187   1.995   1.528   5.944  0.7990  0.2132 -0.3317
  174DOPC  H15A21188   2.013   1.510   5.839 -1.1615 -4.6184 -0.0954
  174DOPC  H15B21189   2.016   1.628   5.979 -2.1754  0.1055  2.1744
  174DOPC  H15C21190   1.888   1.516   5.954  0.8044 -2.2870 -2.2711
  174DOPC   C1121191   2.078   1.343   6.278 -0.4711 -0.1102 -0.2294
  174DOPC  H11A21192   2.018   1.344   6.371 -2.3295 -0.1064 -1.3661
  174DOPC  H11B21193   2.076   1.238   6.241 -0.7022 -0.8519  1.7867
  174DOPC     P21194   2.231   1.513   6.397  0.2628 -0.0780 -0.0121
  174DOPC   O1321195   2.106   1.595   6.411 -0.0942  0.1971 -0.0993
  174DOPC   O1421196   2.355   1.584   6.361  0.2422 -0.3920 -0.3490
  174DOPC   O1221197   2.212   1.388   6.292  0.2209 -0.1966 -0.3615
  174DOPC   O1121198   2.248   1.421   6.528  0.2667 -0.6899  0.1099
  174DOPC    C121199   2.334   1.313   6.526 -0.5609 -0.4649 -0.2608
  174DOPC    HA21200   2.397   1.319   6.435 -1.1990 -0.0687 -0.6821
  174DOPC    HB21201   2.277   1.219   6.508 -0.0472 -0.6051 -1.2104
  174DOPC    C221202   2.412   1.281   6.660 -0.5781 -0.5077  0.6973
  174DOPC    HS21203   2.464   1.184   6.641  0.5633  0.3579 -0.8575
  174DOPC   O2121204   2.320   1.277   6.769 -0.4314  0.0257  0.5278
  174DOPC   C2121205   2.354   1.196   6.870  0.1160 -0.4575 -0.1485
  174DOPC   O2221206   2.452   1.120   6.869  0.3710  0.3029 -0.0312
  174DOPC   C2221207   2.233   1.200   6.967 -0.3614 -0.0257  0.6733
  174DOPC   H2R21208   2.253   1.133   7.053  0.3010 -0.0943  0.4664
  174DOPC   H2S21209   2.138   1.178   6.914 -1.1916 -0.0445  2.1120
  174DOPC    C321210   2.513   1.394   6.687  0.1255  0.1444  0.2012
  174DOPC    HX21211   2.461   1.492   6.694  0.7422  0.6679 -1.9340
  174DOPC    HY21212   2.572   1.400   6.593  0.1013  0.9225  0.2321
  174DOPC   O3121213   2.591   1.368   6.809  0.6726  0.1840 -0.5491
  174DOPC   C3121214   2.707   1.306   6.789  0.0270 -0.5256  0.6084
  174DOPC   O3221215   2.766   1.298   6.682 -0.1813 -0.5531  0.3088
  174DOPC   C3221216   2.752   1.241   6.918 -0.1731 -0.5623 -0.7679
  174DOPC   H2X21217   2.720   1.311   6.999  1.6243 -1.6274  0.9460
  174DOPC   H2Y21218   2.718   1.136   6.923  1.0517 -0.9283  1.7713
  174DOPC   C2321219   2.211   1.337   7.023  0.1233 -0.0982  0.1019
  174DOPC   H3R21220   2.126   1.322   7.094 -0.6648  1.7304 -0.3959
  174DOPC   H3S21221   2.187   1.410   6.943  0.5241 -0.6234 -0.5063
  174DOPC   C2421222   2.322   1.407   7.096 -0.3142  0.5984 -0.6827
  174DOPC   H4R21223   2.292   1.512   7.119  0.1603  0.7081 -0.5471
  174DOPC   H4S21224   2.416   1.412   7.036 -0.3917 -1.2664 -1.0098
  174DOPC   C2521225   2.356   1.346   7.232  0.0013  0.0854 -0.0621
  174DOPC   H5R21226   2.358   1.235   7.239 -1.3159  0.1368  1.6966
  174DOPC   H5S21227   2.284   1.379   7.310  0.7238  0.7002  0.3534
  174DOPC   C2621228   2.499   1.385   7.282 -0.8085 -0.7820  0.4917
  174DOPC   H6R21229   2.519   1.492   7.260  2.0809 -1.1891  0.7365
  174DOPC   H6S21230   2.564   1.333   7.208 -1.4050  0.0858 -0.6807
  174DOPC   C2721231   2.529   1.346   7.429  0.0082 -0.0631 -1.1672
  174DOPC   H7R21232   2.514   1.236   7.432 -1.6278  0.0520 -2.9987
  174DOPC   H7S21233   2.446   1.391   7.488 -0.0081 -2.1926  0.5701
  174DOPC   C2821234   2.658   1.399   7.490 -0.4842  0.1924  0.1184
  174DOPC   H8R21235   2.647   1.509   7.492  3.5806  0.7352  2.1747
  174DOPC   H8S21236   2.745   1.379   7.424  0.1392 -1.3556  1.3383
  174DOPC   C2921237   2.688   1.344   7.629  1.4040  0.0258 -0.2328
  174DOPC   H9R21238   2.709   1.236   7.637  2.3181  0.0196 -2.2325
  174DOPC  C21021239   2.684   1.412   7.746 -0.3708  0.4509  0.4352
  174DOPC  H10R21240   2.715   1.350   7.832  3.2226 -1.2978 -1.8594
  174DOPC  C21121241   2.658   1.560   7.773  0.4045  0.1250 -0.1360
  174DOPC  H11R21242   2.652   1.613   7.676  0.4934  0.1248 -0.1405
  174DOPC  H11S21243   2.742   1.606   7.828  0.6972  0.0119 -0.4849
  174DOPC  C21221244   2.524   1.571   7.838  0.1040  0.4588 -0.2429
  174DOPC  H12R21245   2.446   1.535   7.767  0.9214 -1.1402 -0.3531
  174DOPC  H12S21246   2.499   1.676   7.863 -0.3093  0.3084 -0.0132
  174DOPC  C21321247   2.516   1.500   7.973 -0.1141  0.6200 -0.4035
  174DOPC  H13R21248   2.614   1.487   8.023  0.5980  0.6765 -1.7219
  174DOPC  H13S21249   2.474   1.398   7.958 -0.1210  0.4218  0.8778
  174DOPC  C21421250   2.427   1.578   8.065  0.0669  0.3625 -0.8118
  174DOPC  H14R21251   2.328   1.610   8.026  1.8750  0.6288 -5.8204
  174DOPC  H14S21252   2.472   1.676   8.091  0.8338  0.1940 -1.4891
  174DOPC  C21521253   2.395   1.504   8.191 -0.2966  0.3223  0.2444
  174DOPC  H15R21254   2.489   1.475   8.243  1.5662  1.5643 -2.2239
  174DOPC  H15S21255   2.342   1.409   8.171  1.4323 -0.7412  0.5014
  174DOPC  C21621256   2.304   1.588   8.283 -1.1495  0.2146  0.7002
  174DOPC  H16R21257   2.206   1.609   8.235 -0.0558 -0.2425 -1.8482
  174DOPC  H16S21258   2.358   1.685   8.296 -0.0439 -0.5356  1.9594
  174DOPC  C21721259   2.278   1.529   8.419 -0.3362 -0.3279 -0.4587
  174DOPC  H17R21260   2.228   1.603   8.485  0.5319 -1.6070  1.7583
  174DOPC  H17S21261   2.379   1.511   8.463 -0.1673  2.3539  0.4408
  174DOPC  C21821262   2.186   1.403   8.424 -0.2551 -0.5739  0.3806
  174DOPC  H18R21263   2.088   1.427   8.379  0.6132  0.2858 -1.1449
  174DOPC  H18S21264   2.179   1.373   8.531 -1.4032  0.5957  0.6545
  174DOPC  H18T21265   2.235   1.322   8.365  1.7204  1.7619 -1.4047
  174DOPC   C3321266   2.904   1.249   6.914 -0.0964 -0.0122  0.1517
  174DOPC   H3X21267   2.942   1.350   6.887 -0.4917  0.1134  0.0627
  174DOPC   H3Y21268   2.935   1.180   6.833 -2.6289 -0.1906 -0.7453
  174DOPC   C3421269   2.975   1.195   7.041  0.1099 -0.1481  0.4401
  174DOPC   H4X21270   3.082   1.209   7.015 -0.5015  1.6695 -1.4286
  174DOPC   H4Y21271   2.945   1.091   7.065 -0.0815 -0.0908  0.4494
  174DOPC   C3521272   2.946   1.285   7.157  0.0449 -0.2322  0.0278
  174DOPC   H5X21273   2.837   1.291   7.182 -0.1266  1.6332 -1.0095
  174DOPC   H5Y21274   2.962   1.391   7.130 -0.0399 -0.2247  0.0052
  174DOPC   C3621275   3.018   1.263   7.286 -0.1365 -0.3638 -1.0228
  174DOPC   H6X21276   3.126   1.254   7.261  0.7351  2.6211  1.1307
  174DOPC   H6Y21277   3.004   1.352   7.351  0.1118 -1.5815  0.7864
  174DOPC   C3721278   2.964   1.146   7.364  0.7918  0.0324  0.1288
  174DOPC   H7X21279   2.854   1.156   7.368  0.5843 -1.1294 -1.4591
  174DOPC   H7Y21280   2.981   1.056   7.301 -2.2147 -0.5598  0.0023
  174DOPC   C3821281   3.017   1.140   7.509  0.2691  0.0812  0.0579
  174DOPC   H8X21282   2.981   1.233   7.557  1.4343  0.0768  0.9639
  174DOPC   H8Y21283   3.127   1.129   7.503  0.3004  0.1941  0.4189
  174DOPC   C3921284   2.979   1.007   7.566  0.3483  0.0643  0.2381
  174DOPC   H9X21285   2.991   0.921   7.499 -2.2339  1.0707 -1.7162
  174DOPC  C31021286   2.927   0.983   7.684  0.2203  0.2526 -0.4275
  174DOPC  H10X21287   2.900   0.881   7.712 -0.2556  0.3837 -0.3894
  174DOPC  C31121288   2.889   1.084   7.796 -0.2755  1.0353 -0.4490
  174DOPC  H11X21289   2.780   1.105   7.790 -0.9963 -2.0570  0.1930
  174DOPC  H11Y21290   2.934   1.185   7.786  2.8724 -0.2872 -1.0309
  174DOPC  C31221291   2.914   1.019   7.938 -0.3005  1.2751  0.6915
  174DOPC  H12X21292   3.022   0.996   7.945 -0.2626  0.2049 -2.1912
  174DOPC  H12Y21293   2.838   0.940   7.955 -0.7791  1.7837  0.9948
  174DOPC  C31321294   2.895   1.124   8.052 -0.1419 -0.4648 -0.2152
  174DOPC  H13X21295   2.954   1.214   8.026 -0.5214 -0.4138 -0.9281
  174DOPC  H13Y21296   2.788   1.155   8.057  0.1228  0.5129 -0.3452
  174DOPC  C31421297   2.923   1.063   8.190 -0.1496  0.5789 -0.2103
  174DOPC  H14X21298   2.856   0.975   8.199  0.0740  0.3391 -0.8452
  174DOPC  H14Y21299   3.026   1.025   8.206 -0.5058 -0.3878 -0.1279
  174DOPC  C31521300   2.907   1.162   8.309  0.2965  0.1149  0.7766
  174DOPC  H15X21301   2.968   1.254   8.299 -0.5243  0.5308 -0.8194
  174DOPC  H15Y21302   2.946   1.113   8.400  0.1660 -0.5748  0.4620
  174DOPC  C31621303   2.755   1.194   8.341  0.1440 -0.8830 -0.3377
  174DOPC  H16X21304   2.752   1.260   8.430  2.8113 -0.8597 -0.1843
  174DOPC  H16Y21305   2.706   1.245   8.255 -1.9396  1.5567  2.1583
  174DOPC  C31721306   2.657   1.076   8.373 -0.1306  0.1861 -0.3374
  174DOPC  H17X21307   2.551   1.107   8.388 -0.8748 -1.3848 -1.9537
  174DOPC  H17Y21308   2.657   1.011   8.283  0.4611  0.2481 -0.3884
  174DOPC  C31821309   2.697   0.993   8.499 -0.1386  0.0629  0.1401
  174DOPC  H18X21310   2.688   1.060   8.587 -0.3369 -0.6506  0.6751
  174DOPC  H18Y21311   2.636   0.904   8.528 -1.1184  0.9989  1.0194
  174DOPC  H18Z21312   2.805   0.969   8.488 -0.4010 -0.3877 -1.7713
  175DOPC     N21313   2.148   2.774   6.191 -0.0413  0.5710  0.1841
  175DOPC   C1221314   2.229   2.853   6.279 -0.0213  0.9027 -0.1305
  175DOPC  H12A21315   2.313   2.897   6.228  1.7672  0.7524  2.4785
  175DOPC  H12B21316   2.274   2.789   6.353 -1.5947  1.1349  1.1034
  175DOPC   C1321317   2.027   2.700   6.250  0.5197 -0.1456  0.1154
  175DOPC  H13A21318   1.991   2.626   6.181 -0.0578  0.2503 -0.0193
  175DOPC  H13B21319   2.061   2.641   6.333  0.9419 -0.1123 -0.0289
  175DOPC  H13C21320   1.947   2.767   6.278 -0.1438 -0.1148 -1.7046
  175DOPC   C1421321   2.244   2.668   6.138  0.7533  0.4890 -0.4774
  175DOPC  H14A21322   2.331   2.714   6.094  1.5031  0.5224  1.0020
  175DOPC  H14B21323   2.264   2.591   6.210  2.9009  0.7589 -0.7320
  175DOPC  H14C21324   2.204   2.605   6.059  1.1517 -3.0454  1.9151
  175DOPC   C1521325   2.098   2.858   6.074 -0.0274 -0.5928 -0.0449
  175DOPC  H15A21326   2.179   2.896   6.013 -0.2619  0.6865  0.3948
  175DOPC  H15B21327   2.042   2.944   6.109  1.4646  0.5856 -0.4094
  175DOPC  H15C21328   2.041   2.793   6.010  0.5207 -1.1937  0.0733
  175DOPC   C1121329   2.162   2.969   6.362 -0.1171  0.3345  0.2306
  175DOPC  H11A21330   2.092   2.944   6.444 -1.4566  0.2931 -0.8774
  175DOPC  H11B21331   2.249   3.013   6.414 -2.4460  1.2453  3.7000
  175DOPC     P21332   2.141   3.203   6.248  0.1823 -0.0374 -0.1134
  175DOPC   O1321333   2.042   3.274   6.165 -0.3483 -0.1452  0.1300
  175DOPC   O1421334   2.274   3.178   6.189 -0.1342 -0.1277 -0.2173
  175DOPC   O1221335   2.086   3.056   6.281 -0.1745  0.7028  0.3796
  175DOPC   O1121336   2.155   3.281   6.389  0.7537  0.4391  0.3016
  175DOPC    C121337   2.038   3.339   6.439 -0.6716 -0.5240  0.1865
  175DOPC    HA21338   1.957   3.267   6.417 -0.4334 -0.7732  0.1154
  175DOPC    HB21339   2.005   3.434   6.392  0.5338  0.4377  1.2125
  175DOPC    C221340   2.044   3.368   6.591  1.0738  0.7306  0.6738
  175DOPC    HS21341   1.939   3.398   6.609  1.1647  0.4940  1.6539
  175DOPC   O2121342   2.146   3.473   6.616 -0.2897 -0.0199 -0.3690
  175DOPC   C2121343   2.113   3.554   6.713 -0.1517  0.8359  0.6495
  175DOPC   O2221344   2.012   3.541   6.780  0.3287  0.2081  0.2493
  175DOPC   C2221345   2.231   3.651   6.731  0.0125 -1.0036 -0.0515
  175DOPC   H2R21346   2.205   3.759   6.739 -3.0938 -1.7475  2.1050
  175DOPC   H2S21347   2.298   3.648   6.643 -0.3867  3.4140 -0.7416
  175DOPC    C321348   2.072   3.241   6.670 -0.1971  0.0638  0.8556
  175DOPC    HX21349   2.171   3.218   6.624 -0.3076 -0.7760  1.0236
  175DOPC    HY21350   2.004   3.157   6.648  0.2873 -0.0266 -0.3745
  175DOPC   O3121351   2.092   3.262   6.813 -0.1885  0.5505  0.0275
  175DOPC   C3121352   1.976   3.240   6.889 -0.4736  0.0513  0.0477
  175DOPC   O3221353   1.888   3.165   6.860  0.2561  0.0813  0.1824
  175DOPC   C3221354   1.979   3.317   7.020 -0.3604 -0.4508 -0.3288
  175DOPC   H2X21355   2.085   3.307   7.050 -0.0549  0.9436 -0.8637
  175DOPC   H2Y21356   1.967   3.423   6.991 -2.1804 -0.8465 -1.1950
  175DOPC   C2321357   2.303   3.632   6.867 -0.2296  0.2721 -0.5218
  175DOPC   H3R21358   2.406   3.672   6.863 -0.6120  1.3138 -0.4126
  175DOPC   H3S21359   2.309   3.524   6.893  1.4683  0.7112  1.1506
  175DOPC   C2421360   2.226   3.691   6.988  0.0129  1.0207 -0.4484
  175DOPC   H4R21361   2.132   3.633   7.000  1.7269 -1.5816  1.8738
  175DOPC   H4S21362   2.206   3.797   6.965 -0.1959  0.6679 -1.9733
  175DOPC   C2521363   2.310   3.689   7.119  0.0696  0.1903  0.1031
  175DOPC   H5R21364   2.401   3.751   7.108 -1.2741  2.6865  1.9372
  175DOPC   H5S21365   2.349   3.589   7.146  1.4233 -0.0773 -2.5876
  175DOPC   C2621366   2.232   3.750   7.238  0.0486  1.2434 -0.7954
  175DOPC   H6R21367   2.136   3.697   7.259 -0.5637  0.9993 -3.7353
  175DOPC   H6S21368   2.209   3.856   7.216  1.0279  1.3945 -1.1321
  175DOPC   C2721369   2.322   3.755   7.365 -0.3963 -1.2056 -0.2547
  175DOPC   H7R21370   2.406   3.814   7.324 -1.2994 -0.0900 -0.5408
  175DOPC   H7S21371   2.352   3.654   7.401 -0.7547 -0.6873  1.6169
  175DOPC   C2821372   2.265   3.825   7.491 -0.1574  0.6778  0.4362
  175DOPC   H8R21373   2.343   3.805   7.568  0.3768  0.3408 -0.1892
  175DOPC   H8S21374   2.164   3.791   7.522 -0.3018  1.6120  1.0459
  175DOPC   C2921375   2.249   3.973   7.462  0.2688  0.0347 -0.6598
  175DOPC   H9R21376   2.197   3.987   7.366 -1.3960 -3.3582 -0.3879
  175DOPC  C21021377   2.301   4.072   7.534  0.0754  0.0062  0.3031
  175DOPC  H10R21378   2.295   4.172   7.489  0.0093 -1.0460 -2.1513
  175DOPC  C21121379   2.386   4.062   7.658  0.3558  1.0623 -0.3490
  175DOPC  H11R21380   2.493   4.079   7.633  0.8013 -0.7506  0.1949
  175DOPC  H11S21381   2.372   3.972   7.721  2.1585  1.6795  1.0066
  175DOPC  C21221382   2.356   4.183   7.749 -0.3194  0.5778  0.0822
  175DOPC  H12R21383   2.412   4.270   7.708  2.5671 -0.3213  1.7787
  175DOPC  H12S21384   2.403   4.160   7.847 -3.8177  1.3458  2.0875
  175DOPC  C21321385   2.206   4.220   7.773 -0.6685  0.2452  0.7995
  175DOPC  H13R21386   2.149   4.131   7.807  2.0823 -1.1869  2.0295
  175DOPC  H13S21387   2.176   4.270   7.679  0.4860  1.2716  0.9480
  175DOPC  C21421388   2.175   4.338   7.867 -0.3198  0.3847 -1.0378
  175DOPC  H14R21389   2.237   4.424   7.831  0.0011 -0.2333 -1.9979
  175DOPC  H14S21390   2.217   4.319   7.968  0.9542 -0.0419 -1.6200
  175DOPC  C21521391   2.029   4.375   7.880  0.3048 -0.5914 -0.4370
  175DOPC  H15R21392   1.973   4.280   7.888 -0.3906 -0.2148 -0.7330
  175DOPC  H15S21393   1.998   4.431   7.789 -0.2608  0.5195  0.4038
  175DOPC  C21621394   1.993   4.474   8.002 -0.5004  0.7469 -0.0183
  175DOPC  H16R21395   2.051   4.569   8.003 -0.5825  0.7976  1.3311
  175DOPC  H16S21396   2.023   4.426   8.097 -0.6258 -0.3217 -0.5022
  175DOPC  C21721397   1.843   4.517   7.990 -0.5310 -0.1832  0.3660
  175DOPC  H17R21398   1.795   4.418   7.977 -1.1621  0.3628 -1.9683
  175DOPC  H17S21399   1.826   4.567   7.892 -1.1559 -1.8931 -0.4373
  175DOPC  C21821400   1.772   4.585   8.106 -0.4110  0.6382  0.1944
  175DOPC  H18R21401   1.823   4.683   8.117 -1.4471  1.4168 -1.6124
  175DOPC  H18S21402   1.768   4.527   8.201 -0.4651 -0.0341 -0.2091
  175DOPC  H18T21403   1.670   4.610   8.071 -0.6287  1.4444  1.3341
  175DOPC   C3321404   1.864   3.277   7.110  0.0401  0.0093 -1.0437
  175DOPC   H3X21405   1.874   3.168   7.129 -2.6239 -0.1077  0.1811
  175DOPC   H3Y21406   1.759   3.300   7.081 -0.5835  0.4269  1.3222
  175DOPC   C3421407   1.871   3.363   7.244 -0.0313 -0.5151  0.2265
  175DOPC   H4X21408   1.838   3.466   7.215 -0.5783 -0.2289  1.7675
  175DOPC   H4Y21409   1.971   3.369   7.291 -1.3436  0.0538  3.1524
  175DOPC   C3521410   1.773   3.315   7.337  0.3488  0.2379 -0.0176
  175DOPC   H5X21411   1.803   3.222   7.390 -1.8310  0.1737  1.2399
  175DOPC   H5Y21412   1.681   3.293   7.279  2.4524 -1.2821 -3.0424
  175DOPC   C3621413   1.738   3.417   7.449 -1.1058  0.2580  0.0940
  175DOPC   H6X21414   1.694   3.506   7.400 -1.8384 -0.8352 -1.3097
  175DOPC   H6Y21415   1.661   3.369   7.513 -1.0031  1.9068  1.5024
  175DOPC   C3721416   1.860   3.444   7.542 -0.2435 -0.5690 -0.2729
  175DOPC   H7X21417   1.928   3.357   7.550  0.4705 -0.0416 -0.4335
  175DOPC   H7Y21418   1.925   3.523   7.497 -1.4120  0.5554 -0.0626
  175DOPC   C3821419   1.820   3.491   7.686 -0.2821  0.1462  0.7664
  175DOPC   H8X21420   1.898   3.474   7.763 -0.8836 -1.1839  1.1189
  175DOPC   H8Y21421   1.741   3.419   7.718 -1.6273  1.6586  0.9995
  175DOPC   C3921422   1.764   3.635   7.684 -0.1835  0.3653  0.1786
  175DOPC   H9X21423   1.742   3.667   7.581  0.4060  1.1687  0.2987
  175DOPC  C31021424   1.777   3.727   7.784 -0.1684  0.5477  0.1802
  175DOPC  H10X21425   1.724   3.823   7.774 -1.9361 -0.2722  1.3140
  175DOPC  C31121426   1.815   3.699   7.926 -0.6979  0.1782 -0.2481
  175DOPC  H11X21427   1.924   3.718   7.940 -0.5497 -0.3504 -0.6503
  175DOPC  H11Y21428   1.809   3.590   7.948 -1.7166  0.3179  0.2128
  175DOPC  C31221429   1.749   3.770   8.046 -0.6166 -0.0825  0.1307
  175DOPC  H12X21430   1.811   3.765   8.138 -0.0596  0.4190 -0.2104
  175DOPC  H12Y21431   1.655   3.719   8.076 -0.2881 -0.8470 -0.1110
  175DOPC  C31321432   1.736   3.923   8.037 -0.3332  0.1155  0.1552
  175DOPC  H13X21433   1.664   3.930   7.952  1.1022 -1.2953 -1.2541
  175DOPC  H13Y21434   1.689   3.970   8.126 -1.0404 -0.3835  0.0569
  175DOPC  C31421435   1.868   3.999   8.002  0.0479 -0.7531  0.5454
  175DOPC  H14X21436   1.918   3.955   7.913  1.1765 -0.4422  1.0039
  175DOPC  H14Y21437   1.841   4.106   7.985  0.5709 -0.0458  3.5370
  175DOPC  C31521438   1.972   3.988   8.116 -0.0296 -0.3374  0.0464
  175DOPC  H15X21439   1.987   3.878   8.121 -0.9482 -0.4730 -0.0008
  175DOPC  H15Y21440   1.917   4.022   8.206 -4.5840  1.3994 -3.0099
  175DOPC  C31621441   2.102   4.065   8.098  0.5773  0.3662  0.1752
  175DOPC  H16X21442   2.150   4.045   7.999  0.0102 -0.2000  0.0016
  175DOPC  H16Y21443   2.084   4.173   8.080 -0.3492  0.4602  1.5556
  175DOPC  C31721444   2.192   4.050   8.220  0.9308 -0.2512 -0.3377
  175DOPC  H17X21445   2.138   4.078   8.313  1.0290  0.3817 -0.4653
  175DOPC  H17Y21446   2.215   3.945   8.246  0.1272 -0.5622 -0.8432
  175DOPC  C31821447   2.329   4.120   8.217 -0.0879  0.5682  0.3047
  175DOPC  H18X21448   2.376   4.073   8.129 -0.5759  1.7962 -0.6379
  175DOPC  H18Y21449   2.311   4.229   8.202  0.6868  0.5638 -0.7940
  175DOPC  H18Z21450   2.382   4.107   8.314  0.6634  1.1019 -0.0217
  176DOPC     N21451   1.518   6.840   5.961  0.4336 -0.3229 -0.6996
  176DOPC   C1221452   1.501   6.725   6.067  0.1847 -0.3000 -0.2070
  176DOPC  H12A21453   1.529   6.632   6.019 -1.6674 -0.7101 -0.5668
  176DOPC  H12B21454   1.395   6.706   6.076  0.0017  0.1793 -1.2091
  176DOPC   C1321455   1.435   6.828   5.840 -0.2943  0.4224 -0.9338
  176DOPC  H13A21456   1.472   6.752   5.772  1.0156 -0.3839  0.6253
  176DOPC  H13B21457   1.336   6.792   5.867  0.0542  0.4294  0.4090
  176DOPC  H13C21458   1.434   6.926   5.795  1.4802  0.4211 -1.0246
  176DOPC   C1421459   1.665   6.838   5.920  0.1739  0.3972  0.5423
  176DOPC  H14A21460   1.718   6.868   6.009  0.6468  1.7173 -0.1556
  176DOPC  H14B21461   1.697   6.736   5.901  1.8478  1.1838 -1.1089
  176DOPC  H14C21462   1.667   6.896   5.829 -2.8771  0.6389  0.5081
  176DOPC   C1521463   1.485   6.975   6.024  0.1908  0.0995 -0.4244
  176DOPC  H15A21464   1.501   7.053   5.952  1.0690 -0.9550 -1.3983
  176DOPC  H15B21465   1.548   6.983   6.112  1.8740  1.0231 -1.6590
  176DOPC  H15C21466   1.381   6.966   6.053  0.6740 -1.0037  1.1493
  176DOPC   C1121467   1.580   6.730   6.207  0.7321 -0.3780 -0.7045
  176DOPC  H11A21468   1.602   6.627   6.241  1.0440  0.2341  1.0625
  176DOPC  H11B21469   1.673   6.788   6.186  2.0987 -2.1798  0.0949
  176DOPC     P21470   1.373   6.743   6.365 -0.3300  0.3726 -0.2471
  176DOPC   O1321471   1.330   6.623   6.293  0.6024  0.7472 -0.2796
  176DOPC   O1421472   1.279   6.855   6.381 -0.2647  0.2089 -0.3670
  176DOPC   O1221473   1.501   6.801   6.302  0.1525 -0.3137  0.6796
  176DOPC   O1121474   1.429   6.701   6.506 -0.5145  0.4529 -0.1867
  176DOPC    C121475   1.355   6.699   6.629  0.8577  0.4727  0.6187
  176DOPC    HA21476   1.406   6.621   6.689 -1.2402 -0.8915  0.7128
  176DOPC    HB21477   1.249   6.666   6.627  0.8698  0.4788 -0.9453
  176DOPC    C221478   1.379   6.826   6.699  0.5841  0.0966 -0.3340
  176DOPC    HS21479   1.320   6.900   6.642  0.3513 -1.1140 -1.7285
  176DOPC   O2121480   1.521   6.858   6.709  0.6307  0.3858  0.5732
  176DOPC   C2121481   1.537   6.985   6.687 -1.0710 -0.2314  0.1289
  176DOPC   O2221482   1.451   7.069   6.653  0.0797  0.7030  0.7388
  176DOPC   C2221483   1.677   7.030   6.719 -0.1224 -0.4898 -0.3006
  176DOPC   H2R21484   1.750   7.005   6.639  2.7427  3.1375  0.9007
  176DOPC   H2S21485   1.702   6.974   6.812  2.1998 -3.2363 -2.3990
  176DOPC    C321486   1.329   6.814   6.843  0.6474  0.2013 -0.4433
  176DOPC    HX21487   1.390   6.735   6.893  0.6660  0.4018 -0.1439
  176DOPC    HY21488   1.228   6.769   6.842 -0.0129  1.6200 -0.3843
  176DOPC   O3121489   1.338   6.938   6.924  0.2103  0.4282 -0.2150
  176DOPC   C3121490   1.220   6.996   6.963 -0.9686 -0.0027  0.7041
  176DOPC   O3221491   1.110   6.946   6.948 -0.2600 -0.0324 -0.3337
  176DOPC   C3221492   1.252   7.134   7.032  0.0965 -0.1507 -0.0972
  176DOPC   H2X21493   1.341   7.121   7.097 -1.0726 -0.2070  1.5560
  176DOPC   H2Y21494   1.258   7.192   6.938 -0.8899  0.6348  0.3007
  176DOPC   C2321495   1.681   7.182   6.736  0.4629 -0.4358 -0.0562
  176DOPC   H3R21496   1.629   7.237   6.655 -1.7031 -3.7248 -1.0870
  176DOPC   H3S21497   1.789   7.206   6.727  1.0287 -2.3941  0.9305
  176DOPC   C2421498   1.630   7.221   6.874 -0.1752 -0.5953 -0.3039
  176DOPC   H4R21499   1.690   7.164   6.948  1.2523 -0.1093 -1.0493
  176DOPC   H4S21500   1.525   7.188   6.890 -0.3799  0.3258  0.3690
  176DOPC   C2521501   1.641   7.373   6.905 -0.6645  0.2394  0.3622
  176DOPC   H5R21502   1.560   7.420   6.844 -1.8142 -1.6172  0.3813
  176DOPC   H5S21503   1.730   7.419   6.858 -2.6980  3.0121 -1.0800
  176DOPC   C2621504   1.628   7.406   7.055 -0.2160  0.0806 -0.8874
  176DOPC   H6R21505   1.686   7.499   7.067  0.7280 -0.0649 -3.5920
  176DOPC   H6S21506   1.682   7.330   7.116 -0.8288  0.8827  0.7018
  176DOPC   C2721507   1.494   7.442   7.112  0.3408  0.8305  0.1444
  176DOPC   H7R21508   1.413   7.382   7.066 -1.2861  2.2490  1.0700
  176DOPC   H7S21509   1.462   7.535   7.062 -2.2308  0.9384  1.8295
  176DOPC   C2821510   1.480   7.472   7.261 -0.3739  0.1855 -0.0930
  176DOPC   H8R21511   1.380   7.499   7.300 -0.1300 -0.3141  0.8967
  176DOPC   H8S21512   1.543   7.562   7.281 -0.7260  0.1176  1.4123
  176DOPC   C2921513   1.518   7.353   7.353 -0.1492  0.3795  0.2613
  176DOPC   H9R21514   1.472   7.256   7.332  0.6659 -0.0389  0.3628
  176DOPC  C21021515   1.600   7.353   7.463 -0.2676 -0.2753  0.6262
  176DOPC  H10R21516   1.617   7.260   7.518 -0.6101 -0.7567 -0.0614
  176DOPC  C21121517   1.674   7.464   7.524  0.2148  0.7425 -0.4500
  176DOPC  H11R21518   1.689   7.541   7.445 -0.0099  0.3848 -0.8438
  176DOPC  H11S21519   1.777   7.439   7.558 -0.5740 -0.8896  0.8129
  176DOPC  C21221520   1.609   7.520   7.653 -0.1577 -0.2437  0.5276
  176DOPC  H12R21521   1.612   7.430   7.719  0.5940 -1.2196 -0.7737
  176DOPC  H12S21522   1.507   7.550   7.623  0.0585  0.7701  0.7723
  176DOPC  C21321523   1.680   7.637   7.709 -0.0020 -0.3217 -0.9341
  176DOPC  H13R21524   1.684   7.720   7.636  0.6512 -0.1827 -0.7449
  176DOPC  H13S21525   1.778   7.590   7.734 -0.3121  0.0195  1.1230
  176DOPC  C21421526   1.614   7.674   7.844 -0.9955 -1.0588  0.2213
  176DOPC  H14R21527   1.625   7.592   7.919 -0.1855 -0.5862  0.6244
  176DOPC  H14S21528   1.510   7.702   7.817 -0.9361 -2.1199 -1.2175
  176DOPC  C21521529   1.679   7.807   7.896 -0.0529 -0.6953 -0.4389
  176DOPC  H15R21530   1.686   7.887   7.819 -1.4117 -0.5619 -0.4610
  176DOPC  H15S21531   1.777   7.783   7.941 -0.4772 -1.3119  0.1857
  176DOPC  C21621532   1.602   7.873   8.012  0.2285 -0.2422  0.3030
  176DOPC  H16R21533   1.620   7.822   8.109  0.2607  1.2036  1.0851
  176DOPC  H16S21534   1.493   7.879   7.991  0.5619  2.0537 -1.0664
  176DOPC  C21721535   1.634   8.019   8.034 -0.1402 -0.0761  0.9781
  176DOPC  H17R21536   1.635   8.067   7.934  1.4770 -0.4975  0.7566
  176DOPC  H17S21537   1.735   8.030   8.079  0.7429  1.7372 -1.2309
  176DOPC  C21821538   1.533   8.089   8.120  0.4170 -0.3356  0.2076
  176DOPC  H18R21539   1.530   8.200   8.122 -2.4866 -0.3069 -0.5504
  176DOPC  H18S21540   1.531   8.061   8.228 -3.3299 -1.3813  0.0298
  176DOPC  H18T21541   1.431   8.065   8.082  0.2547 -1.3260  1.1986
  176DOPC   C3321542   1.132   7.194   7.117 -0.1362  0.4167 -0.0864
  176DOPC   H3X21543   1.100   7.130   7.202 -0.0543  2.4749  1.5602
  176DOPC   H3Y21544   1.038   7.195   7.059 -0.3844  0.5846  0.3183
  176DOPC   C3421545   1.154   7.335   7.170  0.2065  0.7338  0.3592
  176DOPC   H4X21546   1.126   7.408   7.091 -0.7666  0.9974  0.9302
  176DOPC   H4Y21547   1.262   7.343   7.196  0.3370 -2.1902  1.0131
  176DOPC   C3521548   1.072   7.366   7.289 -0.2034 -0.5101  0.0525
  176DOPC   H5X21549   0.973   7.316   7.285 -0.3922 -0.3219  1.6895
  176DOPC   H5Y21550   1.055   7.476   7.283 -0.4650 -0.5639 -0.2539
  176DOPC   C3621551   1.139   7.331   7.424  0.4782  0.2018 -0.1473
  176DOPC   H6X21552   1.190   7.233   7.412  1.8428  1.1482 -3.0003
  176DOPC   H6Y21553   1.218   7.409   7.429  1.7614 -1.1008  0.8571
  176DOPC   C3721554   1.044   7.348   7.538 -0.2397  0.0538  0.1361
  176DOPC   H7X21555   0.983   7.441   7.532  1.9575  1.5784 -0.0367
  176DOPC   H7Y21556   0.980   7.258   7.543  0.8903 -0.7524  4.0964
  176DOPC   C3821557   1.112   7.320   7.673 -0.3720  0.4326  0.2924
  176DOPC   H8X21558   1.194   7.393   7.689  2.0830 -2.4039  1.6317
  176DOPC   H8Y21559   1.184   7.235   7.673 -0.2136  0.5522  1.1802
  176DOPC   C3921560   1.022   7.305   7.792  0.1350 -0.0220  0.3140
  176DOPC   H9X21561   0.977   7.205   7.795 -0.8948  0.4416  0.6055
  176DOPC  C31021562   1.024   7.389   7.901  0.4628 -0.3578 -0.2739
  176DOPC  H10X21563   0.970   7.361   7.993 -0.0559  1.0520 -0.1301
  176DOPC  C31121564   1.098   7.519   7.903  0.1739 -0.7107 -0.1065
  176DOPC  H11X21565   1.046   7.591   7.969 -0.0961 -1.2109  0.2360
  176DOPC  H11Y21566   1.099   7.558   7.799  1.0666 -2.1056 -0.6480
  176DOPC  C31221567   1.249   7.527   7.947  0.1665  0.2279 -0.5916
  176DOPC  H12X21568   1.292   7.628   7.932  1.0086 -0.2163 -1.2648
  176DOPC  H12Y21569   1.304   7.443   7.899 -1.4356 -1.0169 -0.3070
  176DOPC  C31321570   1.258   7.512   8.096 -0.3503 -0.9040 -0.4106
  176DOPC  H13X21571   1.203   7.596   8.143 -0.8232 -0.5048 -1.6215
  176DOPC  H13Y21572   1.201   7.422   8.128  0.0847 -1.9381 -2.3606
  176DOPC  C31421573   1.397   7.518   8.153 -0.1979 -0.7368  0.4998
  176DOPC  H14X21574   1.447   7.425   8.118  1.3424  0.2706 -0.0937
  176DOPC  H14Y21575   1.457   7.607   8.122  0.2743 -1.3247 -0.3181
  176DOPC  C31521576   1.383   7.504   8.305  0.2569  0.4651  0.1865
  176DOPC  H15X21577   1.327   7.412   8.332  0.5256  0.1172 -0.4276
  176DOPC  H15Y21578   1.332   7.595   8.343 -0.3169  0.3809 -0.3615
  176DOPC  C31621579   1.515   7.485   8.384  0.6526 -0.0894  0.1697
  176DOPC  H16X21580   1.503   7.470   8.493  0.9673 -2.8761 -0.1098
  176DOPC  H16Y21581   1.558   7.392   8.342 -0.3222  0.4515 -2.2304
  176DOPC  C31721582   1.612   7.590   8.360  0.2599 -0.2170  0.0967
  176DOPC  H17X21583   1.698   7.560   8.423  0.1997 -1.6737 -0.4831
  176DOPC  H17Y21584   1.658   7.580   8.260  0.8862  0.2178  0.3353
  176DOPC  C31821585   1.556   7.725   8.386 -0.4305  0.1036  0.1270
  176DOPC  H18X21586   1.631   7.806   8.369 -0.6363  0.1483 -0.6290
  176DOPC  H18Y21587   1.466   7.739   8.323 -1.3208 -0.3170  1.2869
  176DOPC  H18Z21588   1.525   7.729   8.492  2.0215 -0.9230  0.9570
  177DOPC     N21589   2.341   4.068   6.311 -1.0473  0.0603 -0.4705
  177DOPC   C1221590   2.422   4.191   6.367  0.2021  0.2278 -0.0675
  177DOPC  H12A21591   2.357   4.278   6.366 -2.0725 -1.3862 -0.4520
  177DOPC  H12B21592   2.497   4.219   6.295  0.5759  2.1514  1.0019
  177DOPC   C1321593   2.422   3.943   6.290  0.3854 -0.1525 -0.2021
  177DOPC  H13A21594   2.483   3.954   6.202 -1.0985 -0.8944 -1.3841
  177DOPC  H13B21595   2.488   3.934   6.375  0.1820  0.3166  0.0105
  177DOPC  H13C21596   2.359   3.859   6.265  0.5489 -0.9381  1.8972
  177DOPC   C1421597   2.281   4.106   6.177 -0.1229  0.2320  0.1198
  177DOPC  H14A21598   2.251   4.022   6.116 -2.6403  1.8353 -1.0243
  177DOPC  H14B21599   2.188   4.158   6.194  1.0902  1.9982  1.7093
  177DOPC  H14C21600   2.350   4.170   6.124  1.3802  0.0834  1.8010
  177DOPC   C1521601   2.227   4.033   6.403 -0.2024 -0.1154 -0.1171
  177DOPC  H15A21602   2.148   4.107   6.398  0.2612  0.4462  0.7563
  177DOPC  H15B21603   2.263   4.027   6.504  0.5005  1.9187 -0.2015
  177DOPC  H15C21604   2.182   3.943   6.366 -0.6166 -0.0512  0.2199
  177DOPC   C1121605   2.481   4.176   6.509  0.5094 -0.0375  0.6988
  177DOPC  H11A21606   2.530   4.269   6.545  1.8208 -0.6643  0.5803
  177DOPC  H11B21607   2.396   4.150   6.576 -1.4817  0.8734 -1.3522
  177DOPC     P21608   2.721   4.097   6.463 -0.3605 -0.3895 -0.2220
  177DOPC   O1321609   2.721   4.163   6.332 -0.0702 -0.6269  0.3557
  177DOPC   O1421610   2.793   3.969   6.471  0.9629 -0.0514 -0.2106
  177DOPC   O1221611   2.573   4.068   6.513 -0.4426  0.0409 -0.1424
  177DOPC   O1121612   2.774   4.203   6.568 -0.1178 -0.5935  0.0807
  177DOPC    C121613   2.781   4.170   6.707  0.8613  0.1602 -0.1318
  177DOPC    HA21614   2.868   4.108   6.736  0.4357  0.5557  2.1580
  177DOPC    HB21615   2.690   4.108   6.724 -0.2556  1.9494  0.6470
  177DOPC    C221616   2.765   4.295   6.806  0.2178 -0.1756 -0.2187
  177DOPC    HS21617   2.734   4.256   6.904  1.0746 -0.8507 -0.2021
  177DOPC   O2121618   2.677   4.393   6.751 -0.2911 -0.1772 -0.2215
  177DOPC   C2121619   2.540   4.371   6.779 -1.0309 -0.4556  1.4104
  177DOPC   O2221620   2.501   4.277   6.837  0.5279 -0.6047  0.0898
  177DOPC   C2221621   2.459   4.469   6.701 -0.0769 -1.0003  0.1471
  177DOPC   H2R21622   2.352   4.442   6.694 -0.1148 -0.5450 -1.8544
  177DOPC   H2S21623   2.495   4.476   6.596 -1.2571 -0.7523 -0.2482
  177DOPC    C321624   2.888   4.380   6.830 -0.6865 -0.3958  0.6442
  177DOPC    HX21625   2.897   4.450   6.744 -1.1250  0.1586  1.0378
  177DOPC    HY21626   2.977   4.314   6.836  0.4550  0.9609 -0.5817
  177DOPC   O3121627   2.873   4.453   6.954 -0.3678 -0.3034 -0.1011
  177DOPC   C3121628   2.951   4.559   6.980 -0.3814  0.4202  0.6843
  177DOPC   O3221629   3.044   4.597   6.912 -0.1164 -0.2113 -0.0323
  177DOPC   C3221630   2.892   4.624   7.113  0.0711  0.0753 -0.3692
  177DOPC   H2X21631   2.795   4.672   7.085  0.4006  2.1756  1.8077
  177DOPC   H2Y21632   2.856   4.539   7.175 -2.9705  1.4153 -0.0929
  177DOPC   C2321633   2.458   4.614   6.747  0.4321 -0.3678 -0.3415
  177DOPC   H3R21634   2.386   4.668   6.681  1.7960  3.5210  1.0405
  177DOPC   H3S21635   2.557   4.658   6.721  0.2994 -0.2354 -0.6306
  177DOPC   C2421636   2.419   4.636   6.891  0.6220  0.4963 -0.0041
  177DOPC   H4R21637   2.493   4.599   6.965  0.0569 -2.6377 -0.8263
  177DOPC   H4S21638   2.334   4.567   6.909 -1.6035  2.7148 -1.4129
  177DOPC   C2521639   2.386   4.784   6.919  0.1429 -0.6483  0.2094
  177DOPC   H5R21640   2.305   4.819   6.852  0.5598 -0.4977 -0.2255
  177DOPC   H5S21641   2.483   4.837   6.913 -0.6652  0.9790  1.0607
  177DOPC   C2621642   2.325   4.806   7.063 -0.3283 -0.6698 -0.0458
  177DOPC   H6R21643   2.411   4.791   7.132 -0.1536 -0.0935 -0.1344
  177DOPC   H6S21644   2.246   4.729   7.074 -1.0899 -0.0325 -0.9041
  177DOPC   C2721645   2.277   4.940   7.081  0.1768 -0.0279  0.2863
  177DOPC   H7R21646   2.186   4.956   7.020  0.9137 -0.1849 -0.8923
  177DOPC   H7S21647   2.347   5.025   7.063 -0.9204  1.0465  0.9453
  177DOPC   C2821648   2.246   4.962   7.231  0.6805 -0.0430 -0.4439
  177DOPC   H8R21649   2.269   5.069   7.248  0.1969 -0.2118  1.5588
  177DOPC   H8S21650   2.315   4.909   7.300  0.1518  0.5070  0.5202
  177DOPC   C2921651   2.105   4.916   7.260  0.1687  0.5176 -0.3410
  177DOPC   H9R21652   2.070   4.828   7.204  2.7805  0.3000 -1.7639
  177DOPC  C21021653   2.040   4.953   7.373  0.0789  0.4166 -0.2753
  177DOPC  H10R21654   1.941   4.908   7.391 -0.0456 -0.1558 -2.1638
  177DOPC  C21121655   2.090   5.042   7.476  0.3444  0.2488  0.1019
  177DOPC  H11R21656   2.182   5.096   7.445  0.0953  1.1729  0.9438
  177DOPC  H11S21657   2.117   4.985   7.568 -0.1980 -0.3248 -0.0886
  177DOPC  C21221658   1.992   5.155   7.505  0.3268 -0.3393  0.0878
  177DOPC  H12R21659   1.890   5.113   7.520  0.1123  0.7212  1.9143
  177DOPC  H12S21660   1.991   5.218   7.413 -0.7546  0.3770  0.5637
  177DOPC  C21321661   2.023   5.236   7.633  0.2034 -0.3275  0.2407
  177DOPC  H13R21662   2.000   5.343   7.612  1.0894  0.2573  2.0615
  177DOPC  H13S21663   2.134   5.236   7.641  0.2326 -1.2081 -0.0650
  177DOPC  C21421664   1.937   5.205   7.754 -0.2099 -0.7380 -0.0517
  177DOPC  H14R21665   1.831   5.196   7.723 -0.9112  3.2495  0.6245
  177DOPC  H14S21666   1.925   5.295   7.818  1.7179 -1.5299  1.5441
  177DOPC  C21521667   1.984   5.080   7.826 -0.0737  0.0966 -0.2936
  177DOPC  H15R21668   2.093   5.094   7.847  0.7424 -2.8937 -1.9068
  177DOPC  H15S21669   1.970   4.999   7.751 -0.9002  0.5762 -0.6680
  177DOPC  C21621670   1.905   5.061   7.954 -0.7677 -0.2312 -0.3645
  177DOPC  H16R21671   1.796   5.047   7.938 -0.6316 -0.2575 -1.3708
  177DOPC  H16S21672   1.924   5.146   8.022 -2.8438 -1.3787  1.7983
  177DOPC  C21721673   1.944   4.940   8.041  0.4857  0.1201  0.2711
  177DOPC  H17R21674   2.055   4.938   8.045  0.5392  0.8333 -0.5384
  177DOPC  H17S21675   1.918   4.843   7.995  2.9185 -0.0076 -0.9997
  177DOPC  C21821676   1.886   4.944   8.185 -0.3698 -0.5295  1.1052
  177DOPC  H18R21677   1.900   4.848   8.238  0.2236 -1.0895 -0.0220
  177DOPC  H18S21678   1.779   4.965   8.166 -0.0291 -0.7695 -1.4298
  177DOPC  H18T21679   1.928   5.033   8.237  1.1591  0.5208 -1.6970
  177DOPC   C3321680   2.988   4.714   7.189  0.8402 -0.8890 -0.1262
  177DOPC   H3X21681   3.015   4.809   7.138  1.1656 -1.1930 -0.5361
  177DOPC   H3Y21682   3.080   4.653   7.203  1.3108 -0.0121  0.6821
  177DOPC   C3421683   2.930   4.754   7.332  0.2578  0.0564  0.4078
  177DOPC   H4X21684   2.906   4.658   7.382 -1.3485  0.3231  0.2120
  177DOPC   H4Y21685   2.836   4.813   7.335  1.0723  1.4437  0.0290
  177DOPC   C3521686   3.037   4.818   7.423 -0.0166  0.7035  0.5777
  177DOPC   H5X21687   3.080   4.907   7.371  0.5309  1.3348  2.0449
  177DOPC   H5Y21688   3.124   4.749   7.431 -0.9227 -0.7927 -1.5468
  177DOPC   C3621689   2.989   4.859   7.562  0.4393  0.4102 -0.0781
  177DOPC   H6X21690   2.937   4.764   7.586 -0.7801  0.4983 -2.1073
  177DOPC   H6Y21691   3.077   4.875   7.628  0.7223  1.5284 -0.7036
  177DOPC   C3721692   2.900   4.980   7.577 -0.4763 -0.8431 -0.1611
  177DOPC   H7X21693   2.954   5.064   7.528 -2.2130 -0.2162 -1.0820
  177DOPC   H7Y21694   2.807   4.970   7.517 -0.0057 -0.7181 -0.9338
  177DOPC   C3821695   2.877   5.012   7.725 -0.1050 -0.5283 -0.1217
  177DOPC   H8X21696   2.863   5.121   7.743 -3.1361 -0.7777 -0.4657
  177DOPC   H8Y21697   2.972   4.984   7.776  0.2345  0.9835  0.1346
  177DOPC   C3921698   2.758   4.942   7.779  0.1487  0.4105 -0.5241
  177DOPC   H9X21699   2.679   4.918   7.707 -1.0540  0.6592  0.6611
  177DOPC  C31021700   2.740   4.895   7.906  0.3120 -0.4248 -0.0265
  177DOPC  H10X21701   2.646   4.839   7.913 -0.4752  0.9388  0.6582
  177DOPC  C31121702   2.836   4.892   8.016 -0.2853  0.2658  0.5142
  177DOPC  H11X21703   2.939   4.923   7.985 -0.6724  0.2159 -0.8704
  177DOPC  H11Y21704   2.839   4.787   8.050  2.1716 -0.6240 -2.0225
  177DOPC  C31221705   2.795   4.977   8.137 -0.5939  0.2227  0.5270
  177DOPC  H12X21706   2.858   4.960   8.227 -0.5583  2.3881  0.9715
  177DOPC  H12Y21707   2.688   4.961   8.163 -1.2780  0.5865 -1.7888
  177DOPC  C31321708   2.824   5.130   8.113 -0.1672  0.1031  0.2150
  177DOPC  H13X21709   2.928   5.146   8.075 -0.2895 -0.4801 -0.3931
  177DOPC  H13Y21710   2.754   5.165   8.035  0.2299 -0.0447 -0.2151
  177DOPC  C31421711   2.820   5.218   8.236  0.5987 -0.0459  0.2667
  177DOPC  H14X21712   2.729   5.193   8.293  0.7615 -0.9863  0.1315
  177DOPC  H14Y21713   2.901   5.181   8.303  0.4656 -0.0069  0.4463
  177DOPC  C31521714   2.839   5.364   8.197  0.0561  0.3448  0.2384
  177DOPC  H15X21715   2.782   5.383   8.103  0.3455  0.8484  0.1579
  177DOPC  H15Y21716   2.942   5.392   8.166 -0.5045  1.5250 -0.6797
  177DOPC  C31621717   2.784   5.474   8.301 -0.4839  0.5375 -0.1147
  177DOPC  H16X21718   2.681   5.452   8.336 -0.8453  0.3086 -1.2584
  177DOPC  H16Y21719   2.859   5.462   8.381  0.3652  0.7916 -0.8518
  177DOPC  C31721720   2.788   5.607   8.233 -0.0143 -0.6146 -0.3419
  177DOPC  H17X21721   2.726   5.596   8.142  1.3367  0.0463 -1.3749
  177DOPC  H17Y21722   2.740   5.683   8.299 -0.6467 -0.8202 -0.5501
  177DOPC  C31821723   2.927   5.650   8.193 -1.0243 -0.5323  0.6274
  177DOPC  H18X21724   2.998   5.634   8.277 -1.7745 -1.8047  1.0511
  177DOPC  H18Y21725   2.969   5.594   8.107 -1.4008 -2.1857  1.4883
  177DOPC  H18Z21726   2.918   5.757   8.164 -3.6500 -1.1911 -1.4162
  178DOPC     N21727   0.427   4.964   6.227  0.0584  0.4427 -0.5709
  178DOPC   C1221728   0.433   4.809   6.235 -0.1623  0.1198 -0.2114
  178DOPC  H12A21729   0.335   4.762   6.238 -0.1852 -0.0055 -2.0081
  178DOPC  H12B21730   0.468   4.779   6.333 -0.7258 -1.2735 -0.4066
  178DOPC   C1321731   0.350   5.012   6.112  0.1947  0.0738  0.1407
  178DOPC  H13A21732   0.258   4.954   6.110 -0.2548  0.7866 -0.8641
  178DOPC  H13B21733   0.327   5.117   6.109 -2.3194 -0.4200 -0.4629
  178DOPC  H13C21734   0.396   4.986   6.018 -1.5099 -1.4561 -0.3556
  178DOPC   C1421735   0.567   5.020   6.219 -0.2696  0.2037  0.2649
  178DOPC  H14A21736   0.568   5.116   6.170  2.3384  0.2201  0.2067
  178DOPC  H14B21737   0.616   5.031   6.314 -0.8590  1.3343  0.4438
  178DOPC  H14C21738   0.629   4.953   6.161 -2.2884 -0.6003 -1.0726
  178DOPC   C1521739   0.359   5.021   6.352 -0.1293 -0.0299  0.7047
  178DOPC  H15A21740   0.412   4.987   6.440  2.1827  0.7839 -0.2795
  178DOPC  H15B21741   0.255   4.992   6.360 -0.1197  0.1172  1.4393
  178DOPC  H15C21742   0.371   5.128   6.361 -0.7182 -0.1540  4.3256
  178DOPC   C1121743   0.508   4.729   6.130  0.4428  0.0146 -0.0195
  178DOPC  H11A21744   0.488   4.621   6.142 -1.6134  0.6414  3.1390
  178DOPC  H11B21745   0.466   4.762   6.032 -2.0423  1.4242  1.4225
  178DOPC     P21746   0.743   4.699   6.248  0.1571 -0.2886 -0.7515
  178DOPC   O1321747   0.845   4.799   6.276  0.6308 -0.1148 -0.0551
  178DOPC   O1421748   0.792   4.568   6.202  0.4982 -0.0357  0.5826
  178DOPC   O1221749   0.650   4.756   6.135  0.3843 -0.1144  0.6412
  178DOPC   O1121750   0.640   4.681   6.382  0.2322 -0.0348  0.6320
  178DOPC    C121751   0.650   4.775   6.484 -1.1375 -0.4654 -0.2046
  178DOPC    HA21752   0.549   4.798   6.522 -1.1287  0.2053 -0.5867
  178DOPC    HB21753   0.690   4.870   6.444 -1.4662  0.1867  0.9782
  178DOPC    C221754   0.731   4.718   6.605 -0.1654 -0.7787  0.3738
  178DOPC    HS21755   0.723   4.784   6.694  1.2711 -0.2021  0.1050
  178DOPC   O2121756   0.876   4.703   6.577  0.4846 -0.4099  0.0605
  178DOPC   C2121757   0.947   4.816   6.596  0.3327 -0.1688 -0.0273
  178DOPC   O2221758   0.905   4.922   6.630  0.5481 -0.2806 -0.2179
  178DOPC   C2221759   1.093   4.796   6.570  0.0080  0.6054 -0.0317
  178DOPC   H2R21760   1.116   4.860   6.482  2.3197 -0.5760 -0.3717
  178DOPC   H2S21761   1.113   4.688   6.551 -2.0482 -0.5918  3.5445
  178DOPC    C321762   0.671   4.585   6.647 -0.0558  0.1979  1.1415
  178DOPC    HX21763   0.679   4.513   6.563 -0.2038 -0.0265  1.3185
  178DOPC    HY21764   0.562   4.587   6.668 -0.1747 -3.0171  1.3388
  178DOPC   O3121765   0.734   4.534   6.766  0.8480 -0.1819 -0.7315
  178DOPC   C3121766   0.813   4.435   6.741 -0.3336  0.5374 -0.2086
  178DOPC   O3221767   0.850   4.402   6.630 -0.0834  0.3382 -0.2064
  178DOPC   C3221768   0.859   4.378   6.869 -0.3699  0.3824 -0.4678
  178DOPC   H2X21769   0.791   4.406   6.952 -1.2846 -2.2600 -0.2201
  178DOPC   H2Y21770   0.860   4.267   6.872  1.4744  0.3907  0.9102
  178DOPC   C2321771   1.187   4.838   6.689  1.1272  0.7658  0.0344
  178DOPC   H3R21772   1.164   4.935   6.737  1.0689  0.7639  0.0120
  178DOPC   H3S21773   1.293   4.840   6.657  0.3046  1.5553 -2.9516
  178DOPC   C2421774   1.160   4.742   6.811  0.2115 -0.0977 -0.2940
  178DOPC   H4R21775   1.182   4.636   6.782 -2.4504 -0.3108 -1.9015
  178DOPC   H4S21776   1.050   4.748   6.825  0.1323  2.0447 -1.3971
  178DOPC   C2521777   1.253   4.785   6.929 -0.2550 -0.5917  0.6112
  178DOPC   H5R21778   1.246   4.896   6.929  0.0631 -0.4564 -3.0328
  178DOPC   H5S21779   1.356   4.765   6.892 -0.0498 -0.0946  0.8971
  178DOPC   C2621780   1.223   4.723   7.068  0.2638 -0.8847  1.1374
  178DOPC   H6R21781   1.210   4.613   7.061  2.1028 -1.0986  0.4987
  178DOPC   H6S21782   1.142   4.775   7.122 -1.5534 -2.6154  0.1785
  178DOPC   C2721783   1.350   4.728   7.159  0.4150  0.1526  0.9705
  178DOPC   H7R21784   1.435   4.679   7.106  0.5217 -0.6784  1.8954
  178DOPC   H7S21785   1.329   4.671   7.252  2.5259 -2.1740  0.1519
  178DOPC   C2821786   1.393   4.871   7.196 -0.2062  0.5422 -0.4541
  178DOPC   H8R21787   1.320   4.898   7.275  1.7021  0.3722  1.4298
  178DOPC   H8S21788   1.380   4.940   7.110 -1.0426  0.2775 -0.5543
  178DOPC   C2921789   1.533   4.866   7.241 -0.0949 -0.0446  0.2633
  178DOPC   H9R21790   1.556   4.775   7.297 -0.7608 -1.4307 -1.5955
  178DOPC  C21021791   1.628   4.958   7.218  0.2523 -0.1881  0.4553
  178DOPC  H10R21792   1.731   4.925   7.241  1.1269  1.1232 -1.3631
  178DOPC  C21121793   1.599   5.091   7.146 -0.8364 -0.5966  0.1513
  178DOPC  H11R21794   1.495   5.105   7.109 -0.6469 -1.4229 -0.7097
  178DOPC  H11S21795   1.656   5.111   7.053 -2.2898 -1.4829 -0.9820
  178DOPC  C21221796   1.620   5.203   7.248  0.0898 -0.0112 -0.4876
  178DOPC  H12R21797   1.725   5.208   7.283  0.8180  2.1109 -2.6511
  178DOPC  H12S21798   1.546   5.177   7.327  0.3657  0.4748 -0.0609
  178DOPC  C21321799   1.602   5.345   7.191  0.2874  0.1769 -0.2378
  178DOPC  H13R21800   1.500   5.346   7.147  0.4134 -0.2925 -0.5470
  178DOPC  H13S21801   1.679   5.352   7.111 -0.2776  0.2561 -0.7889
  178DOPC  C21421802   1.620   5.467   7.290 -0.1846  0.5563  0.2559
  178DOPC  H14R21803   1.717   5.458   7.344  0.1340  2.3150  0.0577
  178DOPC  H14S21804   1.540   5.460   7.366 -1.9096 -0.3824 -1.5794
  178DOPC  C21521805   1.623   5.609   7.232 -0.2079  0.0900  0.1242
  178DOPC  H15R21806   1.628   5.679   7.319 -0.1908 -0.5247  0.6277
  178DOPC  H15S21807   1.528   5.627   7.177 -0.2676 -0.2845  0.1063
  178DOPC  C21621808   1.755   5.625   7.155  0.0409  0.0632  0.5664
  178DOPC  H16R21809   1.760   5.551   7.072 -0.9949 -1.1010  1.5132
  178DOPC  H16S21810   1.838   5.587   7.218  0.0684 -2.0022 -0.6327
  178DOPC  C21721811   1.778   5.766   7.109  0.0313  0.0618  0.1403
  178DOPC  H17R21812   1.766   5.822   7.204 -2.3179 -2.9112  1.7786
  178DOPC  H17S21813   1.705   5.792   7.029 -0.2062 -0.7951  0.0651
  178DOPC  C21821814   1.913   5.772   7.043  0.2433 -0.3927  0.0746
  178DOPC  H18R21815   1.920   5.710   6.951  0.6534 -1.2897  0.6957
  178DOPC  H18S21816   1.989   5.728   7.112  2.4966  0.6085 -1.6470
  178DOPC  H18T21817   1.948   5.874   7.016  1.6143 -1.2598 -1.6143
  178DOPC   C3321818   1.002   4.415   6.908  0.8645 -0.0693  0.0559
  178DOPC   H3X21819   1.013   4.526   6.913 -0.3912  0.1462 -1.3884
  178DOPC   H3Y21820   1.066   4.380   6.825 -1.9551  0.0993 -2.3351
  178DOPC   C3421821   1.047   4.351   7.035  0.1725  0.4518 -0.4471
  178DOPC   H4X21822   1.152   4.381   7.055 -0.3225  1.1504  1.3141
  178DOPC   H4Y21823   1.051   4.240   7.028  1.3787  0.3700  0.9524
  178DOPC   C3521824   0.972   4.398   7.164 -0.2066 -0.2065 -0.5075
  178DOPC   H5X21825   0.871   4.353   7.159  0.4985 -1.8050 -0.9707
  178DOPC   H5Y21826   0.960   4.509   7.159 -0.2630 -0.1396  0.9398
  178DOPC   C3621827   1.045   4.361   7.298  0.3515  0.0800 -0.1998
  178DOPC   H6X21828   1.154   4.352   7.278  1.0042  0.0537  2.9065
  178DOPC   H6Y21829   1.036   4.431   7.384  2.1799  0.5241 -0.3179
  178DOPC   C3721830   0.982   4.231   7.341  0.0552  1.2547 -0.6258
  178DOPC   H7X21831   0.872   4.242   7.355  0.0523  3.5233 -1.8347
  178DOPC   H7Y21832   1.003   4.164   7.256  0.5811  1.6769 -0.8340
  178DOPC   C3821833   1.051   4.149   7.456  0.1400 -0.7627  0.1706
  178DOPC   H8X21834   1.160   4.140   7.437  0.3045  1.2157 -0.0727
  178DOPC   H8Y21835   1.007   4.047   7.456 -2.6518  0.3232  0.8968
  178DOPC   C3921836   1.015   4.227   7.592 -0.2383 -0.3499  1.1343
  178DOPC   H9X21837   1.040   4.334   7.586  0.7198 -0.6252 -1.0114
  178DOPC  C31021838   0.961   4.172   7.698  0.5271 -0.2321 -0.0401
  178DOPC  H10X21839   0.936   4.224   7.792  1.3490 -1.3826  0.8518
  178DOPC  C31121840   0.906   4.037   7.709  0.1209 -0.1621 -0.2607
  178DOPC  H11X21841   0.956   3.960   7.646  1.6547  1.5256 -1.2170
  178DOPC  H11Y21842   0.803   4.042   7.667  0.4907 -1.8997 -1.4817
  178DOPC  C31221843   0.887   3.979   7.847 -0.0042  0.5415 -0.6848
  178DOPC  H12X21844   0.836   3.883   7.826  1.4305 -0.1313 -1.2470
  178DOPC  H12Y21845   0.824   4.038   7.917  0.2868  2.1460 -1.7051
  178DOPC  C31321846   1.019   3.940   7.920  0.0392 -0.3130  0.4012
  178DOPC  H13X21847   1.092   3.891   7.852 -0.7566  1.5436 -1.9268
  178DOPC  H13Y21848   1.060   4.034   7.962  0.1333 -1.1396  2.2551
  178DOPC  C31421849   0.994   3.835   8.033 -0.0817 -0.1238 -0.0067
  178DOPC  H14X21850   1.090   3.822   8.088 -0.1167  0.6147  0.2433
  178DOPC  H14Y21851   0.909   3.874   8.094 -0.3689  0.4710 -0.7815
  178DOPC  C31521852   0.953   3.698   7.982  0.1528 -0.1641 -0.3936
  178DOPC  H15X21853   1.019   3.661   7.900  1.3877  0.5641  0.2633
  178DOPC  H15Y21854   0.853   3.705   7.934  1.3307  0.9037 -2.8480
  178DOPC  C31621855   0.950   3.588   8.093  0.5067  0.0649  0.1389
  178DOPC  H16X21856   1.058   3.576   8.117  0.9365  2.1012 -0.5324
  178DOPC  H16Y21857   0.892   3.620   8.182 -0.4576  0.1846 -0.5173
  178DOPC  C31721858   0.891   3.453   8.040  0.2011  0.0569  0.6081
  178DOPC  H17X21859   0.888   3.377   8.120 -1.9558  1.2861  1.7837
  178DOPC  H17Y21860   0.787   3.475   8.007  1.1303  2.0030 -1.2534
  178DOPC  C31821861   0.970   3.381   7.931 -0.0560 -0.3628  0.1748
  178DOPC  H18X21862   1.074   3.386   7.972  0.1391  0.1964 -0.3717
  178DOPC  H18Y21863   0.946   3.273   7.921 -1.0737 -0.4940  3.1163
  178DOPC  H18Z21864   0.969   3.431   7.832  2.4229  0.5000  0.5064
  179DOPC     N21865   5.171   3.123   5.717  0.2591  0.2633  0.3824
  179DOPC   C1221866   5.163   3.073   5.857 -0.8691 -0.1512  0.3338
  179DOPC  H12A21867   5.252   3.018   5.882 -1.5647 -1.3483  0.2420
  179DOPC  H12B21868   5.082   3.001   5.857  0.5023 -1.7535  0.4382
  179DOPC   C1321869   5.282   3.222   5.701  0.4671  0.5809 -0.9287
  179DOPC  H13A21870   5.375   3.179   5.733 -0.4194 -0.8101 -0.1330
  179DOPC  H13B21871   5.288   3.263   5.601 -2.4148  1.6599 -0.7666
  179DOPC  H13C21872   5.267   3.313   5.758  0.3652  0.1522 -0.2648
  179DOPC   C1421873   5.054   3.191   5.666  0.5341 -0.8019  0.3304
  179DOPC  H14A21874   5.029   3.280   5.723 -1.8645 -1.3150  0.1807
  179DOPC  H14B21875   5.072   3.228   5.566  1.0103 -0.3842  0.5597
  179DOPC  H14C21876   4.964   3.131   5.665  1.2516 -1.9086 -1.1643
  179DOPC   C1521877   5.193   3.006   5.621 -0.7622  0.6218 -0.3555
  179DOPC  H15A21878   5.287   2.957   5.642 -0.9851 -0.3632 -1.5241
  179DOPC  H15B21879   5.205   3.048   5.522 -1.8686 -0.1813 -0.8411
  179DOPC  H15C21880   5.107   2.942   5.619  1.7839 -3.1483  0.3938
  179DOPC   C1121881   5.133   3.173   5.969  0.1906 -0.3035 -0.5414
  179DOPC  H11A21882   5.137   3.112   6.062  1.8649 -0.3245 -0.6001
  179DOPC  H11B21883   5.211   3.252   5.968 -1.4325  1.3908 -0.5708
  179DOPC     P21884   4.974   3.377   6.014  0.0041 -0.2896  0.3797
  179DOPC   O1321885   4.841   3.431   5.993 -0.1795 -0.5063 -0.0548
  179DOPC   O1421886   5.077   3.457   5.951 -0.5276 -0.4034  0.7579
  179DOPC   O1221887   4.992   3.229   5.962  0.2339  0.5318 -0.2141
  179DOPC   O1121888   5.001   3.364   6.166  0.3199 -0.0141 -0.0487
  179DOPC    C121889   4.923   3.256   6.230 -0.2332 -0.0398  0.1841
  179DOPC    HA21890   4.972   3.157   6.219  1.5527  0.7217  0.8613
  179DOPC    HB21891   4.819   3.243   6.195  0.1557  0.1303 -1.1004
  179DOPC    C221892   4.912   3.296   6.377  0.0815  0.6081  0.2169
  179DOPC    HS21893   4.862   3.395   6.369  0.1571  0.7817  1.6399
  179DOPC   O2121894   5.045   3.287   6.429  0.1045 -0.2431 -0.0609
  179DOPC   C2121895   5.086   3.400   6.493  0.3127 -0.0905 -0.0917
  179DOPC   O2221896   5.018   3.503   6.503 -0.0232  0.1892 -0.5590
  179DOPC   C2221897   5.230   3.377   6.545 -0.0090  0.3029  0.4440
  179DOPC   H2R21898   5.289   3.392   6.452 -0.3657  0.4990  0.2483
  179DOPC   H2S21899   5.236   3.270   6.573  0.6335  0.5645  1.3559
  179DOPC    C321900   4.801   3.212   6.461  0.0848 -0.1742  0.0159
  179DOPC    HX21901   4.831   3.105   6.456  0.6469 -0.0041 -0.3448
  179DOPC    HY21902   4.709   3.225   6.401  0.7314  1.3020 -0.7290
  179DOPC   O3121903   4.788   3.261   6.598  0.0429 -0.5700  0.5443
  179DOPC   C3121904   4.681   3.343   6.625 -0.8607 -0.9360  0.8182
  179DOPC   O3221905   4.616   3.407   6.543 -0.5051 -0.6524 -0.1386
  179DOPC   C3221906   4.645   3.341   6.769 -0.1449 -0.1435 -0.3135
  179DOPC   H2X21907   4.654   3.237   6.808  0.7507 -0.1781 -0.5886
  179DOPC   H2Y21908   4.716   3.392   6.837 -2.0572  1.0465  0.9136
  179DOPC   C2321909   5.278   3.482   6.652  0.8904 -0.6932  0.9021
  179DOPC   H3R21910   5.229   3.574   6.612  0.8799 -1.0022  0.2050
  179DOPC   H3S21911   5.388   3.491   6.640  0.7890 -1.4528 -0.9137
  179DOPC   C2421912   5.237   3.439   6.787  0.4729  0.0959 -0.6800
  179DOPC   H4R21913   5.126   3.442   6.792  0.4028 -2.3436  1.3080
  179DOPC   H4S21914   5.268   3.517   6.861  1.1338  0.6546 -1.5256
  179DOPC   C2521915   5.279   3.296   6.831  0.1513  0.8390  0.0057
  179DOPC   H5R21916   5.389   3.291   6.841 -0.0327 -1.3369  1.3881
  179DOPC   H5S21917   5.238   3.212   6.771  1.0366 -1.1995  2.1047
  179DOPC   C2621918   5.218   3.262   6.971 -0.2075  0.2241 -0.2982
  179DOPC   H6R21919   5.107   3.261   6.978 -0.1267  0.6731  1.3220
  179DOPC   H6S21920   5.254   3.339   7.043 -0.2671 -2.7688  3.1884
  179DOPC   C2721921   5.272   3.127   7.022  0.3389 -0.0268 -0.0778
  179DOPC   H7R21922   5.380   3.128   6.995  0.6746 -1.8131  1.0543
  179DOPC   H7S21923   5.229   3.043   6.964 -0.4082 -0.7151  1.4228
  179DOPC   C2821924   5.253   3.091   7.173  0.4218 -0.4006  0.4694
  179DOPC   H8R21925   5.271   2.983   7.194 -0.8194 -0.6483  0.3149
  179DOPC   H8S21926   5.148   3.120   7.189 -0.3959 -2.6818 -0.3230
  179DOPC   C2921927   5.337   3.180   7.265 -0.2893  0.1821  0.2757
  179DOPC   H9R21928   5.305   3.284   7.249  1.1621  0.8077  1.2676
  179DOPC  C21021929   5.435   3.153   7.351  0.1298  0.9760 -0.0081
  179DOPC  H10R21930   5.486   3.234   7.404  2.9905  0.6454 -2.0219
  179DOPC  C21121931   5.479   3.007   7.374 -0.0884 -0.1336 -0.1680
  179DOPC  H11R21932   5.584   2.988   7.343  0.4170 -1.2713  2.0284
  179DOPC  H11S21933   5.421   2.948   7.300 -1.6282 -0.5096  1.2856
  179DOPC  C21221934   5.460   2.956   7.515  0.4732 -0.5180 -0.5839
  179DOPC  H12R21935   5.350   2.962   7.530  0.2179 -0.7733 -2.1735
  179DOPC  H12S21936   5.518   3.025   7.581  1.8835  0.1590 -2.4546
  179DOPC  C21321937   5.504   2.811   7.542  0.2479  0.0108  0.1029
  179DOPC  H13R21938   5.601   2.787   7.492  0.6618  0.8479  0.4895
  179DOPC  H13S21939   5.424   2.748   7.497  1.1541 -1.6917  0.7560
  179DOPC  C21421940   5.514   2.785   7.687  0.6594  0.7783 -0.2103
  179DOPC  H14R21941   5.411   2.796   7.726  0.0072 -1.2272 -1.2116
  179DOPC  H14S21942   5.584   2.851   7.742  1.9517 -0.1670 -0.6618
  179DOPC  C21521943   5.555   2.638   7.717 -0.0740  0.2860  0.3015
  179DOPC  H15R21944   5.662   2.621   7.690 -0.0551  0.5579  0.1977
  179DOPC  H15S21945   5.487   2.579   7.652 -2.9389  0.6512  2.7707
  179DOPC  C21621946   5.546   2.597   7.865  0.0081  0.3283  0.5646
  179DOPC  H16R21947   5.440   2.614   7.896  0.4279  1.7186  1.3311
  179DOPC  H16S21948   5.603   2.667   7.930 -0.0217  0.1103  0.8272
  179DOPC  C21721949   5.604   2.459   7.894  0.8521  0.4768  0.4388
  179DOPC  H17R21950   5.713   2.458   7.870  0.3421  1.7619 -2.2429
  179DOPC  H17S21951   5.541   2.394   7.831 -1.2809  3.8278 -1.1587
  179DOPC  C21821952   5.585   2.413   8.042 -0.0642  0.5413  0.3705
  179DOPC  H18R21953   5.638   2.319   8.071  0.8112  0.9066 -0.0129
  179DOPC  H18S21954   5.480   2.386   8.068  0.2747  0.9842  2.3559
  179DOPC  H18T21955   5.623   2.491   8.111  1.5514  1.9710 -1.9756
  179DOPC   C3321956   4.503   3.397   6.792 -0.1318  0.3407 -0.0873
  179DOPC   H3X21957   4.428   3.358   6.720 -3.3182  1.0354  2.5958
  179DOPC   H3Y21958   4.500   3.508   6.781 -0.7023  0.4351  0.8672
  179DOPC   C3421959   4.453   3.362   6.934  0.0874  0.5260 -0.2496
  179DOPC   H4X21960   4.456   3.251   6.944  3.1167  0.5123 -0.3359
  179DOPC   H4Y21961   4.347   3.396   6.931 -1.0055 -2.5563 -0.3979
  179DOPC   C3521962   4.521   3.415   7.058  0.0427 -0.4573 -0.0067
  179DOPC   H5X21963   4.551   3.521   7.052 -0.2537 -0.3122  0.9738
  179DOPC   H5Y21964   4.620   3.365   7.066  0.7447  0.6851 -1.1180
  179DOPC   C3621965   4.429   3.385   7.180 -0.2603 -0.3581 -0.1166
  179DOPC   H6X21966   4.333   3.436   7.158 -1.6064 -1.0602  3.3977
  179DOPC   H6Y21967   4.419   3.274   7.191 -0.7535 -0.2980  0.0574
  179DOPC   C3721968   4.487   3.435   7.314  0.5720  0.1386  0.5403
  179DOPC   H7X21969   4.594   3.404   7.318  0.5095  0.0184  3.5898
  179DOPC   H7Y21970   4.501   3.545   7.304 -0.0600  0.3194  1.6016
  179DOPC   C3821971   4.413   3.398   7.443 -0.3049 -0.6038 -0.1404
  179DOPC   H8X21972   4.412   3.288   7.450  0.3556 -0.5300  1.5899
  179DOPC   H8Y21973   4.308   3.432   7.454 -0.5416 -0.9617 -1.2319
  179DOPC   C3921974   4.488   3.433   7.567  0.1491  0.2681 -0.4290
  179DOPC   H9X21975   4.544   3.353   7.618 -0.6239 -1.9651 -2.8927
  179DOPC  C31021976   4.494   3.558   7.612 -0.2682 -0.2644 -0.2097
  179DOPC  H10X21977   4.544   3.585   7.706  1.4943  3.4020 -1.9682
  179DOPC  C31121978   4.431   3.674   7.542  0.0007  0.5666 -0.3324
  179DOPC  H11X21979   4.363   3.731   7.608 -2.1114 -2.2581  0.1305
  179DOPC  H11Y21980   4.362   3.637   7.462 -1.8413  1.6502  0.6875
  179DOPC  C31221981   4.550   3.758   7.484 -0.3693 -0.0317 -0.7985
  179DOPC  H12X21982   4.610   3.687   7.424  0.0581  1.1706 -1.8618
  179DOPC  H12Y21983   4.607   3.797   7.571 -0.7184  0.4667 -0.7891
  179DOPC  C31321984   4.523   3.858   7.371 -0.0957 -0.0304  0.8330
  179DOPC  H13X21985   4.437   3.917   7.411 -0.1396  0.5626 -0.1203
  179DOPC  H13Y21986   4.614   3.920   7.359 -0.7344  0.6237 -0.9919
  179DOPC  C31421987   4.481   3.806   7.234 -0.1175 -0.2182  0.2120
  179DOPC  H14X21988   4.540   3.716   7.206  0.0211 -1.4233  3.9233
  179DOPC  H14Y21989   4.375   3.775   7.241 -0.0484 -0.2580  1.1374
  179DOPC  C31521990   4.503   3.914   7.127  0.1172 -0.2057 -0.0004
  179DOPC  H15X21991   4.602   3.958   7.150  0.4231  0.1263 -1.8288
  179DOPC  H15Y21992   4.432   3.999   7.139  1.7308  1.2412 -0.2542
  179DOPC  C31621993   4.499   3.856   6.981 -0.8832 -0.2027  0.4561
  179DOPC  H16X21994   4.559   3.915   6.908 -1.5593  0.3077  0.2975
  179DOPC  H16Y21995   4.540   3.753   6.974 -3.0413 -0.9976 -2.8939
  179DOPC  C31721996   4.360   3.841   6.917  0.1833  0.7532 -0.1000
  179DOPC  H17X21997   4.299   3.779   6.986  0.6083  0.1408 -0.2678
  179DOPC  H17Y21998   4.309   3.939   6.927 -0.7240  0.2823 -0.0040
  179DOPC  C31821999   4.356   3.787   6.774 -0.4314  0.6827 -0.1418
  179DOPC  H18X22000   4.357   3.873   6.703 -0.6767  0.3246 -0.5783
  179DOPC  H18Y22001   4.448   3.728   6.756 -0.4081  1.2192 -1.9060
  179DOPC  H18Z22002   4.268   3.723   6.755 -0.3390  1.0887 -2.0713
  180DOPC     N22003   3.976   1.529   6.233 -0.0626 -0.4065  0.2802
  180DOPC   C1222004   3.977   1.588   6.373  0.5821 -0.3705 -0.2532
  180DOPC  H12A22005   3.882   1.634   6.393  0.1085 -0.9004 -1.1919
  180DOPC  H12B22006   4.049   1.668   6.377 -0.1965  0.3988 -1.2391
  180DOPC   C1322007   3.830   1.489   6.196 -0.0114  0.6824 -0.2477
  180DOPC  H13A22008   3.762   1.574   6.201 -2.4578 -1.1449 -0.3883
  180DOPC  H13B22009   3.823   1.444   6.099  1.3740 -0.3643  0.1202
  180DOPC  H13C22010   3.794   1.415   6.266 -1.8018 -0.3955 -2.1886
  180DOPC   C1422011   4.068   1.414   6.223  0.2247  0.1905  0.1350
  180DOPC  H14A22012   4.042   1.338   6.296  0.0411  1.0377  0.9715
  180DOPC  H14B22013   4.060   1.362   6.129 -2.8008 -0.8139  0.8166
  180DOPC  H14C22014   4.168   1.449   6.241 -0.0810  1.1113  0.1013
  180DOPC   C1522015   4.017   1.631   6.128 -0.3733 -0.2523  0.0402
  180DOPC  H15A22016   4.117   1.667   6.149 -1.3206  1.0346  2.9003
  180DOPC  H15B22017   3.952   1.717   6.138 -0.5314 -0.3632 -0.0383
  180DOPC  H15C22018   4.020   1.598   6.026 -1.1006 -1.7150  0.4717
  180DOPC   C1122019   4.000   1.493   6.492  0.0568  0.0767  0.4199
  180DOPC  H11A22020   3.948   1.395   6.485  0.1683 -0.2920  3.2207
  180DOPC  H11B22021   4.109   1.470   6.498  0.3914  1.6076  0.7703
  180DOPC     P22022   3.818   1.582   6.651  0.2008 -0.2845 -0.1019
  180DOPC   O1322023   3.765   1.447   6.662 -0.4861 -0.0898  0.2435
  180DOPC   O1422024   3.757   1.680   6.561 -0.1249 -0.7275  0.0610
  180DOPC   O1222025   3.967   1.573   6.610 -0.3104  0.2344  0.0539
  180DOPC   O1122026   3.823   1.650   6.790 -0.6714  0.2299  0.8289
  180DOPC    C122027   3.921   1.626   6.894 -0.0728 -0.5630  0.1250
  180DOPC    HA22028   3.978   1.719   6.912 -1.8652  1.2316 -2.6768
  180DOPC    HB22029   3.996   1.545   6.881  0.4723 -0.4065  2.0583
  180DOPC    C222030   3.847   1.586   7.024  0.1083  0.3176  0.1796
  180DOPC    HS22031   3.923   1.527   7.080  0.2707 -2.1603 -2.4435
  180DOPC   O2122032   3.732   1.503   6.997  0.0999  0.0014  0.1326
  180DOPC   C2122033   3.758   1.376   6.968 -0.0754 -0.4547  0.0790
  180DOPC   O2222034   3.872   1.327   6.955 -0.1287 -0.6841 -0.1628
  180DOPC   C2222035   3.628   1.306   6.931  0.0540 -0.7483 -0.7428
  180DOPC   H2R22036   3.647   1.254   6.835  0.4516  0.5892 -1.4151
  180DOPC   H2S22037   3.538   1.372   6.935  1.1389  0.7337  0.8295
  180DOPC    C322038   3.793   1.707   7.099  0.7900 -0.0895 -0.3474
  180DOPC    HX22039   3.703   1.683   7.160 -0.7403  3.2552 -1.0942
  180DOPC    HY22040   3.739   1.769   7.025 -1.0293 -2.8291 -1.4840
  180DOPC   O3122041   3.895   1.768   7.181  0.0617  0.0379  0.0365
  180DOPC   C3122042   3.917   1.900   7.159  0.3189  0.3435  0.4109
  180DOPC   O3222043   3.855   1.972   7.088  0.0124 -0.4124  0.0208
  180DOPC   C3222044   4.031   1.938   7.255 -0.0948 -0.3108 -0.0573
  180DOPC   H2X22045   4.069   1.854   7.318 -1.6336  0.5158  2.1056
  180DOPC   H2Y22046   4.112   1.985   7.194 -3.3862  2.9263 -2.4068
  180DOPC   C2322047   3.589   1.191   7.038 -0.7531  0.3113  0.4198
  180DOPC   H3R22048   3.680   1.146   7.083 -1.2964 -2.4158 -0.9372
  180DOPC   H3S22049   3.549   1.119   6.963 -0.2762  2.3427 -1.9138
  180DOPC   C2422050   3.485   1.230   7.141 -0.1660  0.1963 -0.7280
  180DOPC   H4R22051   3.426   1.139   7.166 -2.1459  0.7654 -2.9290
  180DOPC   H4S22052   3.422   1.303   7.086 -0.9009  1.1267  1.2661
  180DOPC   C2522053   3.548   1.298   7.260 -0.5672  0.2411 -0.4879
  180DOPC   H5R22054   3.609   1.386   7.229 -1.9569  1.2580 -0.4191
  180DOPC   H5S22055   3.616   1.227   7.313 -1.4596 -1.4101 -1.4614
  180DOPC   C2622056   3.442   1.352   7.360 -0.2593 -0.3118  0.1530
  180DOPC   H6R22057   3.399   1.260   7.405 -0.2069 -0.0018  0.8373
  180DOPC   H6S22058   3.353   1.403   7.315 -1.2707  0.9217  3.3025
  180DOPC   C2722059   3.500   1.450   7.474  0.5713  0.3850  1.2238
  180DOPC   H7R22060   3.412   1.456   7.542  0.3851 -1.2762  1.1598
  180DOPC   H7S22061   3.520   1.551   7.431 -3.4851  1.1753  0.8635
  180DOPC   C2822062   3.635   1.409   7.532 -0.1192  0.0314 -0.3398
  180DOPC   H8R22063   3.690   1.500   7.563 -2.5650  1.4232  0.1634
  180DOPC   H8S22064   3.702   1.369   7.453  0.4023 -1.0154  0.6022
  180DOPC   C2922065   3.624   1.294   7.634 -0.0404 -0.3294  0.2119
  180DOPC   H9R22066   3.562   1.212   7.595  0.0163 -1.5630  2.5096
  180DOPC  C21022067   3.676   1.290   7.757  0.5217 -0.0738  0.2499
  180DOPC  H10R22068   3.665   1.194   7.809 -1.9984 -0.9284 -1.6375
  180DOPC  C21122069   3.744   1.405   7.823  0.0524 -0.2635  0.3845
  180DOPC  H11R22070   3.752   1.495   7.759  1.3857  0.1846  1.1443
  180DOPC  H11S22071   3.844   1.368   7.853 -0.6212 -3.4621 -0.8334
  180DOPC  C21222072   3.675   1.452   7.949 -0.1626 -0.3782  0.3277
  180DOPC  H12R22073   3.567   1.465   7.926 -0.5147  0.5195  2.2892
  180DOPC  H12S22074   3.716   1.549   7.984 -3.6131  1.1156  0.5422
  180DOPC  C21322075   3.675   1.360   8.071 -0.1974  0.2318  0.8096
  180DOPC  H13R22076   3.614   1.275   8.033 -1.6030  1.0559  1.1143
  180DOPC  H13S22077   3.613   1.404   8.152  0.2919  0.3209  1.1387
  180DOPC  C21422078   3.811   1.319   8.123 -1.0229 -0.4382 -0.4782
  180DOPC  H14R22079   3.864   1.393   8.187  0.4223 -1.3066 -0.6234
  180DOPC  H14S22080   3.875   1.292   8.037  0.9028  4.0743 -0.7585
  180DOPC  C21522081   3.799   1.196   8.211 -0.1485  0.2223 -0.2641
  180DOPC  H15R22082   3.746   1.111   8.162 -0.6141  0.8410 -0.8436
  180DOPC  H15S22083   3.731   1.221   8.295  1.0016 -0.3957  0.9083
  180DOPC  C21622084   3.933   1.142   8.258 -0.1293  0.9936 -0.0173
  180DOPC  H16R22085   3.996   1.222   8.302  0.0747  0.5429  0.5229
  180DOPC  H16S22086   3.989   1.103   8.170  0.7121 -1.0991  1.3555
  180DOPC  C21722087   3.938   1.032   8.368  0.6075  0.2585  0.0120
  180DOPC  H17R22088   3.888   1.060   8.463  0.8907 -3.0162  1.2692
  180DOPC  H17S22089   4.043   1.004   8.392  0.3085 -0.1431  0.8690
  180DOPC  C21822090   3.873   0.898   8.322 -0.5472  0.0163  0.8048
  180DOPC  H18R22091   3.894   0.819   8.397 -0.5489 -1.1129 -0.3720
  180DOPC  H18S22092   3.903   0.861   8.222 -0.2463 -1.9339  1.5815
  180DOPC  H18T22093   3.762   0.907   8.312 -0.3362  0.3313 -1.9930
  180DOPC   C3322094   3.991   2.064   7.357 -0.1375  0.5408  0.4428
  180DOPC   H3X22095   4.013   2.158   7.302  0.4796  0.3773  0.4040
  180DOPC   H3Y22096   4.045   2.050   7.453 -0.8104 -0.6281  0.6642
  180DOPC   C3422097   3.849   2.069   7.405  0.0198  0.2802  0.1982
  180DOPC   H4X22098   3.777   2.085   7.322 -1.5604  1.5315  1.7216
  180DOPC   H4Y22099   3.842   2.146   7.485  0.7839  0.5006  0.0623
  180DOPC   C3522100   3.806   1.939   7.476 -0.3703  0.1529 -0.2003
  180DOPC   H5X22101   3.878   1.893   7.547  0.7634  1.8903 -0.1608
  180DOPC   H5Y22102   3.790   1.856   7.404 -1.2054 -0.1496  0.3135
  180DOPC   C3622103   3.678   1.962   7.548 -0.4084 -0.0905  0.6938
  180DOPC   H6X22104   3.708   2.015   7.641 -2.4735  1.6811  0.4023
  180DOPC   H6Y22105   3.602   2.022   7.495  0.7131  1.0217  0.2827
  180DOPC   C3722106   3.609   1.835   7.603  0.1079 -0.1953 -0.2190
  180DOPC   H7X22107   3.561   1.784   7.517 -0.1986 -0.7251  0.2551
  180DOPC   H7Y22108   3.688   1.773   7.652 -0.7009  0.9967  2.8813
  180DOPC   C3822109   3.506   1.849   7.717  0.2744 -0.1386  0.1011
  180DOPC   H8X22110   3.556   1.878   7.811 -0.2365  3.1927 -0.5347
  180DOPC   H8Y22111   3.474   1.742   7.719 -0.4714  0.0172 -1.5911
  180DOPC   C3922112   3.392   1.943   7.690  0.9489 -0.3036  0.2803
  180DOPC   H9X22113   3.397   2.010   7.603 -0.4682  3.2482  2.7259
  180DOPC  C31022114   3.292   1.964   7.777  0.1418  1.0112 -0.7790
  180DOPC  H10X22115   3.205   2.027   7.754 -0.8583 -0.4649 -1.1985
  180DOPC  C31122116   3.266   1.891   7.914  0.5320 -0.4688  0.0002
  180DOPC  H11X22117   3.313   1.791   7.909 -1.0273 -1.2057 -0.6063
  180DOPC  H11Y22118   3.156   1.882   7.929  0.2805  1.2842 -0.5794
  180DOPC  C31222119   3.322   1.980   8.024 -0.0496  0.3198  0.3658
  180DOPC  H12X22120   3.267   2.076   8.014 -3.2443 -1.2053  1.9663
  180DOPC  H12Y22121   3.432   1.987   8.007 -0.2999  0.4696 -1.3989
  180DOPC  C31322122   3.290   1.924   8.173  0.0846  0.6514 -0.4808
  180DOPC  H13X22123   3.313   1.816   8.184 -1.5943  0.2546 -0.6152
  180DOPC  H13Y22124   3.367   1.968   8.241  1.5752 -2.6240  0.1461
  180DOPC  C31422125   3.150   1.961   8.230 -0.2381  0.5496  0.7936
  180DOPC  H14X22126   3.121   2.068   8.229 -2.7524 -0.0012  2.7029
  180DOPC  H14Y22127   3.075   1.902   8.174 -1.1169  2.0555  0.3494
  180DOPC  C31522128   3.144   1.946   8.380 -0.4793  0.5696 -1.2706
  180DOPC  H15X22129   3.225   2.011   8.420 -0.0853  1.2190 -3.0087
  180DOPC  H15Y22130   3.162   1.839   8.401  1.8945  1.1000 -0.2955
  180DOPC  C31622131   3.012   2.005   8.427 -0.3480  0.3235  0.1615
  180DOPC  H16X22132   3.008   2.112   8.395 -0.7797 -0.2250 -1.7195
  180DOPC  H16Y22133   2.926   1.947   8.389  1.0091 -1.5052 -0.2384
  180DOPC  C31722134   2.995   1.992   8.579  0.4565  0.6101  0.6893
  180DOPC  H17X22135   2.988   1.885   8.609 -1.5495  0.7831  0.9997
  180DOPC  H17Y22136   3.086   2.026   8.634  0.0454 -0.2615  1.9493
  180DOPC  C31822137   2.873   2.050   8.639  0.0694 -0.7180  0.1911
  180DOPC  H18X22138   2.867   2.157   8.611 -0.9083 -0.9424 -0.4993
  180DOPC  H18Y22139   2.785   1.994   8.600  0.3811 -0.5275 -0.8155
  180DOPC  H18Z22140   2.876   2.047   8.750  2.1188 -2.6268  0.1611
  181DOPC     N22141   6.625   3.729   5.973  0.1691 -1.2526 -0.2530
  181DOPC   C1222142   6.536   3.722   6.090 -0.1555 -0.0465 -0.5774
  181DOPC  H12A22143   6.432   3.717   6.062 -0.0645  0.9149 -1.1321
  181DOPC  H12B22144   6.540   3.818   6.138 -1.2138 -0.0111 -0.5410
  181DOPC   C1322145   6.766   3.766   6.006  0.7502 -0.3205  0.3570
  181DOPC  H13A22146   6.829   3.777   5.919  1.7569  0.7030  1.1755
  181DOPC  H13B22147   6.771   3.862   6.055  2.9170 -1.2510  2.1223
  181DOPC  H13C22148   6.819   3.697   6.069 -0.1995 -0.9886  0.4401
  181DOPC   C1422149   6.566   3.840   5.882  0.0495  0.2316  0.5025
  181DOPC  H14A22150   6.598   3.934   5.924  0.8146  0.1265  0.1830
  181DOPC  H14B22151   6.603   3.831   5.781  0.0497 -1.1998  0.6174
  181DOPC  H14C22152   6.459   3.845   5.891  0.1109  0.1342  1.3032
  181DOPC   C1522153   6.625   3.600   5.901  0.2825  1.2501  0.0393
  181DOPC  H15A22154   6.528   3.570   5.864  0.1970  0.9379  0.5113
  181DOPC  H15B22155   6.651   3.520   5.969 -0.6289  1.6129  0.8361
  181DOPC  H15C22156   6.699   3.592   5.823 -0.1396 -1.3736 -0.1848
  181DOPC   C1122157   6.576   3.628   6.194 -0.3745  0.2628  0.1604
  181DOPC  H11A22158   6.540   3.523   6.184  0.9206 -0.5436  2.8510
  181DOPC  H11B22159   6.687   3.619   6.192 -0.2914  1.2191 -0.7356
  181DOPC     P22160   6.612   3.778   6.409 -0.2358 -0.2555  0.2219
  181DOPC   O1322161   6.752   3.795   6.362  0.2856 -0.1390 -0.0709
  181DOPC   O1422162   6.592   3.749   6.553  0.3985  0.2725  0.2850
  181DOPC   O1222163   6.539   3.669   6.324 -0.6626 -0.0609 -0.4047
  181DOPC   O1122164   6.530   3.903   6.371 -0.0357  1.0043  0.3285
  181DOPC    C122165   6.390   3.905   6.336 -0.9865 -0.2844  0.3569
  181DOPC    HA22166   6.347   3.805   6.313  0.6241 -0.7127 -1.0199
  181DOPC    HB22167   6.376   3.963   6.242 -0.9065  1.8034  1.5746
  181DOPC    C222168   6.301   3.982   6.439 -0.0511  0.4408 -0.2057
  181DOPC    HS22169   6.346   4.082   6.454 -1.0103  1.2731 -2.4352
  181DOPC   O2122170   6.279   3.908   6.559 -0.4816  0.0016 -0.7054
  181DOPC   C2122171   6.363   3.939   6.657  0.3766  0.0692  0.7411
  181DOPC   O2222172   6.446   4.027   6.657  0.0158  0.5220  1.0856
  181DOPC   C2222173   6.349   3.849   6.775  0.2084 -0.7628 -0.3283
  181DOPC   H2R22174   6.364   3.746   6.736 -0.2454 -0.5079 -1.2075
  181DOPC   H2S22175   6.244   3.861   6.812  1.2132  1.9642  2.0633
  181DOPC    C322176   6.161   4.014   6.375 -0.0643  0.5198 -0.3381
  181DOPC    HX22177   6.123   3.912   6.349  0.6268  0.4440 -1.0995
  181DOPC    HY22178   6.175   4.067   6.278 -1.1720  0.3906 -0.5875
  181DOPC   O3122179   6.063   4.086   6.466 -0.2191  0.3997 -0.1243
  181DOPC   C3122180   6.083   4.219   6.467 -0.3624  0.3407  0.1303
  181DOPC   O3222181   6.171   4.277   6.405 -0.1018  0.4217 -0.2103
  181DOPC   C3222182   5.990   4.288   6.566 -0.3763  0.5655  1.3694
  181DOPC   H2X22183   6.041   4.383   6.592 -1.0040  1.4199 -0.3499
  181DOPC   H2Y22184   5.896   4.302   6.508 -1.1713 -2.1654  1.8269
  181DOPC   C2322185   6.450   3.883   6.893  0.2015  0.2397  0.6159
  181DOPC   H3R22186   6.424   3.977   6.946 -1.0480 -1.0963  2.4931
  181DOPC   H3S22187   6.549   3.891   6.844 -0.1379  2.5142  0.1549
  181DOPC   C2422188   6.448   3.777   7.012  0.2004  0.0034  0.7738
  181DOPC   H4R22189   6.453   3.672   6.975 -1.9858 -0.8812  2.7589
  181DOPC   H4S22190   6.357   3.791   7.073  0.0425 -1.3040  0.8806
  181DOPC   C2522191   6.572   3.800   7.103  0.2916  0.1096  0.3038
  181DOPC   H5R22192   6.552   3.738   7.194  3.4048 -0.6866  0.5566
  181DOPC   H5S22193   6.572   3.899   7.154  1.0605  0.1444  0.2430
  181DOPC   C2622194   6.711   3.753   7.060 -0.2644  0.2457  0.2679
  181DOPC   H6R22195   6.737   3.826   6.981  1.4433 -0.1479  0.4359
  181DOPC   H6S22196   6.723   3.650   7.020  0.9589  0.2983  0.4636
  181DOPC   C2722197   6.826   3.782   7.168  0.1450  0.4201  0.6919
  181DOPC   H7R22198   6.796   3.880   7.211  1.6002  0.9947  0.4798
  181DOPC   H7S22199   6.912   3.802   7.100 -2.4680  2.2379 -2.3572
  181DOPC   C2822200   6.851   3.668   7.264 -0.1652  1.4977  0.3750
  181DOPC   H8R22201   6.958   3.668   7.295 -0.7445  1.0354  2.4789
  181DOPC   H8S22202   6.855   3.578   7.199  0.1775  2.1414 -0.5212
  181DOPC   C2922203   6.757   3.646   7.376 -0.1684  0.5036  0.3549
  181DOPC   H9R22204   6.729   3.738   7.430 -1.5335 -0.3300  1.1561
  181DOPC  C21022205   6.679   3.540   7.405  0.2243 -0.3982 -0.6369
  181DOPC  H10R22206   6.601   3.572   7.476 -0.4944  0.0750 -1.6140
  181DOPC  C21122207   6.672   3.401   7.344 -0.2731 -0.1621 -0.1836
  181DOPC  H11R22208   6.752   3.390   7.267 -1.1699  0.7290 -1.2735
  181DOPC  H11S22209   6.571   3.390   7.300  0.3155 -2.4091 -1.1548
  181DOPC  C21222210   6.686   3.284   7.444 -0.3365  0.0823  0.3266
  181DOPC  H12R22211   6.665   3.190   7.388  2.9591 -1.4234  1.3474
  181DOPC  H12S22212   6.601   3.288   7.516  0.7933  0.8657  1.6821
  181DOPC  C21322213   6.823   3.267   7.519 -0.4623  0.3708  0.6980
  181DOPC  H13R22214   6.850   3.366   7.561 -0.8459  0.7608  0.0346
  181DOPC  H13S22215   6.898   3.236   7.443 -1.1782 -3.4200  1.3216
  181DOPC  C21422216   6.824   3.158   7.623  0.5141  0.5953  0.1055
  181DOPC  H14R22217   6.820   3.062   7.568  2.0153  0.4109  0.2916
  181DOPC  H14S22218   6.734   3.163   7.688 -0.4878  0.3254 -1.2252
  181DOPC  C21522219   6.941   3.156   7.722  0.3780  0.2509 -0.0460
  181DOPC  H15R22220   7.041   3.151   7.674  0.3827  0.2359 -0.0346
  181DOPC  H15S22221   6.926   3.070   7.790 -4.3706  1.9037  1.4235
  181DOPC  C21622222   6.947   3.289   7.806  0.5801  1.0145  1.0284
  181DOPC  H16R22223   6.851   3.288   7.862  0.1991 -1.6401  0.4889
  181DOPC  H16S22224   6.956   3.377   7.739  0.4473  0.7275  0.6245
  181DOPC  C21722225   7.066   3.280   7.896 -0.7868  0.2040 -0.2343
  181DOPC  H17R22226   7.165   3.254   7.852  0.7066  0.0870  2.8902
  181DOPC  H17S22227   7.048   3.200   7.972 -2.1712  0.0295 -0.7246
  181DOPC  C21822228   7.081   3.412   7.974 -0.8672  1.0117  0.2442
  181DOPC  H18R22229   7.081   3.498   7.903  0.9770 -0.1041 -1.1985
  181DOPC  H18S22230   7.183   3.413   8.019 -0.1197  3.7996 -1.2515
  181DOPC  H18T22231   7.001   3.432   8.048 -2.9880  0.1492 -1.7077
  181DOPC   C3322232   5.959   4.202   6.694 -0.0130 -0.1499  0.1911
  181DOPC   H3X22233   5.979   4.093   6.694 -2.9818 -0.7969 -0.2074
  181DOPC   H3Y22234   5.848   4.196   6.689  0.0660 -2.5747  0.1584
  181DOPC   C3422235   6.002   4.267   6.826 -0.1182 -0.0784  0.6141
  181DOPC   H4X22236   5.945   4.210   6.904  2.1694 -1.1606  1.5909
  181DOPC   H4Y22237   5.976   4.375   6.820  0.2509 -0.0475 -0.6865
  181DOPC   C3522238   6.151   4.229   6.867 -0.0373 -0.3577 -0.0068
  181DOPC   H5X22239   6.209   4.281   6.787  1.8444 -1.1154  0.8109
  181DOPC   H5Y22240   6.172   4.122   6.848  2.2693 -0.1542  1.0034
  181DOPC   C3622241   6.202   4.266   7.008  0.3258 -0.3781  0.4754
  181DOPC   H6X22242   6.137   4.342   7.055  2.1422  0.3909  1.8580
  181DOPC   H6Y22243   6.199   4.187   7.086  1.1554  2.8827  4.1147
  181DOPC   C3722244   6.350   4.314   7.004 -0.4260  0.4976  0.4483
  181DOPC   H7X22245   6.387   4.220   6.957 -0.3630  0.2174  1.0461
  181DOPC   H7Y22246   6.363   4.400   6.935 -1.0825 -0.2178 -0.5926
  181DOPC   C3822247   6.412   4.341   7.143 -0.0432 -0.7356  0.5722
  181DOPC   H8X22248   6.418   4.243   7.194 -0.0024 -2.0315 -1.7709
  181DOPC   H8Y22249   6.328   4.403   7.182  0.5777  0.0032  0.7620
  181DOPC   C3922250   6.545   4.416   7.131 -0.2397 -0.1852 -1.1530
  181DOPC   H9X22251   6.539   4.516   7.086 -0.2183  0.6227  0.5740
  181DOPC  C31022252   6.665   4.371   7.163  0.8438 -0.1718 -0.0044
  181DOPC  H10X22253   6.746   4.445   7.172  0.6898 -0.1282  1.2652
  181DOPC  C31122254   6.709   4.232   7.209 -0.1909 -0.1515  0.4123
  181DOPC  H11X22255   6.800   4.199   7.154  0.5959  0.8427  1.0641
  181DOPC  H11Y22256   6.621   4.167   7.193 -1.0932  0.4566  2.5199
  181DOPC  C31222257   6.742   4.249   7.355 -0.1451  0.0475  0.4147
  181DOPC  H12X22258   6.672   4.318   7.406  1.5268  1.4401  0.9134
  181DOPC  H12Y22259   6.838   4.304   7.364 -0.9139  1.5907 -0.5044
  181DOPC  C31322260   6.738   4.122   7.438 -0.2941 -1.0003 -0.1491
  181DOPC  H13X22261   6.633   4.088   7.444 -1.3839  1.9773 -0.6583
  181DOPC  H13Y22262   6.800   4.043   7.390  3.4613  1.9950 -0.7451
  181DOPC  C31422263   6.799   4.142   7.581 -0.6551 -0.4749 -0.3562
  181DOPC  H14X22264   6.908   4.158   7.568 -0.9755  0.2591 -2.6483
  181DOPC  H14Y22265   6.758   4.234   7.628  0.0049 -0.6324  0.5516
  181DOPC  C31522266   6.774   4.020   7.679 -0.5208  0.0303  0.9761
  181DOPC  H15X22267   6.803   3.928   7.624  1.3591  2.0407 -1.6638
  181DOPC  H15Y22268   6.663   4.025   7.687 -0.4471  1.1780  1.5527
  181DOPC  C31622269   6.841   4.013   7.813  0.2428  0.0964  0.4072
  181DOPC  H16X22270   6.800   3.927   7.871 -2.8087  1.3160  0.2307
  181DOPC  H16Y22271   6.951   4.009   7.799  0.1436 -1.4716 -0.1944
  181DOPC  C31722272   6.814   4.142   7.891 -0.2409  0.1866 -0.0272
  181DOPC  H17X22273   6.844   4.225   7.825  0.0087  0.9193  0.9892
  181DOPC  H17Y22274   6.705   4.158   7.905 -0.1041 -0.0983  1.5630
  181DOPC  C31822275   6.887   4.154   8.024  0.2737 -0.0418 -0.0830
  181DOPC  H18X22276   6.840   4.088   8.101 -2.0646  0.2243 -1.2142
  181DOPC  H18Y22277   6.995   4.126   8.021 -0.1121 -2.0857  1.9210
  181DOPC  H18Z22278   6.881   4.256   8.066 -2.4255 -0.7003  1.3465
  182DOPC     N22279   2.763   6.828   5.883 -0.4319  0.3096 -0.4338
  182DOPC   C1222280   2.727   6.959   5.937 -0.3544 -0.0077 -0.5716
  182DOPC  H12A22281   2.726   7.026   5.853 -0.2322 -2.0675 -2.3070
  182DOPC  H12B22282   2.808   6.996   5.997  0.4753 -1.3497 -0.8179
  182DOPC   C1322283   2.652   6.763   5.802 -0.0849 -0.6788 -0.0346
  182DOPC  H13A22284   2.618   6.838   5.732  0.1201 -1.7198 -1.2803
  182DOPC  H13B22285   2.689   6.670   5.763  3.2519 -0.2140  1.7026
  182DOPC  H13C22286   2.584   6.735   5.882  1.2826 -0.4405  1.2604
  182DOPC   C1422287   2.803   6.725   5.985 -0.9601 -0.0648 -0.1020
  182DOPC  H14A22288   2.727   6.681   6.048 -2.2915  0.6149 -1.1747
  182DOPC  H14B22289   2.867   6.652   5.937  0.5637  1.7039 -0.9007
  182DOPC  H14C22290   2.878   6.776   6.043 -1.9495  3.6753 -1.8276
  182DOPC   C1522291   2.880   6.842   5.794 -0.3084 -0.0188 -0.1550
  182DOPC  H15A22292   2.960   6.903   5.834  0.0186 -0.8632  0.5107
  182DOPC  H15B22293   2.860   6.882   5.695  0.1930 -2.1793 -1.1929
  182DOPC  H15C22294   2.932   6.751   5.771 -0.3304  0.2895 -1.5562
  182DOPC   C1122295   2.596   6.972   6.011  0.0832  0.1468  0.0363
  182DOPC  H11A22296   2.580   6.878   6.067 -4.0926 -0.5574 -1.8813
  182DOPC  H11B22297   2.614   7.055   6.083  1.6542 -0.2716  0.1578
  182DOPC     P22298   2.461   7.131   5.854 -0.0370  0.0393 -0.0454
  182DOPC   O1322299   2.342   7.110   5.768 -0.5151 -0.3127 -0.3711
  182DOPC   O1422300   2.585   7.179   5.787 -0.0724 -0.3160  0.4671
  182DOPC   O1222301   2.481   6.998   5.924  0.4306 -0.0725  0.1524
  182DOPC   O1122302   2.422   7.225   5.970 -0.5608  0.3728 -0.2775
  182DOPC    C122303   2.298   7.210   6.043  0.2226  0.0375 -0.0554
  182DOPC    HA22304   2.226   7.142   5.992 -0.7028  0.0359  1.1998
  182DOPC    HB22305   2.252   7.311   6.044  1.0575  0.4290  1.3968
  182DOPC    C222306   2.334   7.183   6.187  0.1225 -0.2851  0.4714
  182DOPC    HS22307   2.374   7.080   6.187 -0.6950 -0.6696 -1.6893
  182DOPC   O2122308   2.211   7.193   6.265 -0.0554  0.3378  0.1252
  182DOPC   C2122309   2.185   7.103   6.362 -0.4705 -0.9709 -0.3845
  182DOPC   O2222310   2.257   7.008   6.389 -0.3442  0.4211 -0.0072
  182DOPC   C2222311   2.038   7.121   6.412 -0.5938  0.9730  0.1747
  182DOPC   H2R22312   2.030   7.041   6.488  1.0164  1.2739  0.7067
  182DOPC   H2S22313   1.985   7.082   6.322  1.4354 -3.2734  0.5654
  182DOPC    C322314   2.445   7.268   6.242 -0.1928 -0.5410  0.3921
  182DOPC    HX22315   2.424   7.369   6.201 -1.0662  0.7280  3.6478
  182DOPC    HY22316   2.544   7.246   6.197 -0.1976 -0.5379  0.3802
  182DOPC   O3122317   2.452   7.271   6.392  0.1910 -0.1466  0.1378
  182DOPC   C3122318   2.511   7.169   6.449 -0.0680  0.2501  0.3888
  182DOPC   O3222319   2.596   7.094   6.399  0.3160  0.0202  0.1836
  182DOPC   C3222320   2.473   7.167   6.604  0.2749 -0.6563  0.1443
  182DOPC   H2X22321   2.500   7.264   6.650 -2.5089 -0.2182  1.0654
  182DOPC   H2Y22322   2.363   7.161   6.618  0.3725  1.0066  1.9818
  182DOPC   C2322323   2.007   7.259   6.473  0.1896 -0.1656 -0.3368
  182DOPC   H3R22324   1.898   7.268   6.492  0.4107 -0.6961  1.3727
  182DOPC   H3S22325   2.045   7.343   6.411  1.8305  0.8654  1.9347
  182DOPC   C2422326   2.077   7.282   6.608 -0.8376 -0.3964 -0.1152
  182DOPC   H4R22327   2.185   7.273   6.585 -1.3072 -0.4284 -2.6211
  182DOPC   H4S22328   2.037   7.213   6.685 -1.2920 -1.0726 -0.9378
  182DOPC   C2522329   2.072   7.427   6.659  1.0658 -0.8377 -0.4409
  182DOPC   H5R22330   1.985   7.440   6.728 -0.9639 -1.0517 -2.8181
  182DOPC   H5S22331   2.070   7.507   6.583  0.5430  0.5514  0.9636
  182DOPC   C2622332   2.193   7.453   6.750 -0.3865 -0.2393  0.0958
  182DOPC   H6R22333   2.176   7.562   6.766  0.7414 -0.1903  1.1347
  182DOPC   H6S22334   2.285   7.434   6.690 -0.5050 -0.9992  0.1387
  182DOPC   C2722335   2.201   7.391   6.894 -0.0954  0.4829  0.3025
  182DOPC   H7R22336   2.288   7.434   6.948  0.6657 -2.5476  1.7083
  182DOPC   H7S22337   2.232   7.285   6.884 -1.3170  0.3213 -2.7063
  182DOPC   C2822338   2.069   7.399   6.974 -0.1861 -0.5944  0.0525
  182DOPC   H8R22339   1.988   7.344   6.920 -0.6182  0.2555 -0.1717
  182DOPC   H8S22340   2.052   7.508   6.983  1.0064 -0.4469  0.7457
  182DOPC   C2922341   2.096   7.336   7.115  0.5009  0.3796 -0.0244
  182DOPC   H9R22342   2.180   7.266   7.111 -1.5240 -2.1836  0.0183
  182DOPC  C21022343   2.042   7.387   7.229 -0.0393 -0.7045  0.2732
  182DOPC  H10R22344   2.079   7.341   7.322 -0.0663 -3.9199 -1.1685
  182DOPC  C21122345   1.934   7.490   7.243 -0.1979  0.8826  1.0134
  182DOPC  H11R22346   1.849   7.452   7.305  0.0788 -1.5349  0.0098
  182DOPC  H11S22347   1.886   7.511   7.145 -0.0713 -0.8502  0.5375
  182DOPC  C21222348   1.984   7.633   7.279 -0.0886 -0.2152  0.3263
  182DOPC  H12R22349   2.058   7.662   7.201  2.7140 -2.6966  1.8827
  182DOPC  H12S22350   2.030   7.620   7.379  0.5745 -3.4701 -0.2949
  182DOPC  C21322351   1.875   7.736   7.283 -0.2673 -1.1798  0.9549
  182DOPC  H13R22352   1.796   7.704   7.354  0.6231 -1.7303  1.7156
  182DOPC  H13S22353   1.814   7.733   7.190 -2.1055 -0.1660  2.0760
  182DOPC  C21422354   1.922   7.876   7.313 -0.9164 -0.4481 -0.4333
  182DOPC  H14R22355   2.004   7.899   7.241  2.1059 -2.4680  2.1183
  182DOPC  H14S22356   1.970   7.872   7.413 -1.4479 -0.9689 -0.1951
  182DOPC  C21522357   1.816   7.984   7.323  0.5700  0.0517  0.3212
  182DOPC  H15R22358   1.750   7.958   7.408 -0.4845 -3.2313 -1.3195
  182DOPC  H15S22359   1.753   7.976   7.232  0.6651 -1.0563  0.3420
  182DOPC  C21622360   1.869   8.126   7.310  0.0243  0.0646 -0.4053
  182DOPC  H16R22361   1.929   8.132   7.217  0.6140 -0.6853 -0.0809
  182DOPC  H16S22362   1.933   8.145   7.399  1.5296  1.4962 -1.7392
  182DOPC  C21722363   1.757   8.236   7.298 -0.1488 -0.1224  0.4619
  182DOPC  H17R22364   1.672   8.195   7.239 -0.8908 -0.6063  1.8426
  182DOPC  H17S22365   1.789   8.330   7.248 -2.1853  1.0121  1.1846
  182DOPC  C21822366   1.698   8.282   7.435  0.1280  0.0892  0.5799
  182DOPC  H18R22367   1.784   8.326   7.489 -0.5441 -0.1398  1.8578
  182DOPC  H18S22368   1.662   8.200   7.501 -0.4124  1.5526  2.1474
  182DOPC  H18T22369   1.622   8.362   7.421  0.2906  0.2788  0.8006
  182DOPC   C3322370   2.534   7.053   6.668 -0.8975 -0.0932 -0.0589
  182DOPC   H3X22371   2.643   7.055   6.649 -1.3779  0.2197 -3.3668
  182DOPC   H3Y22372   2.493   6.962   6.618 -2.9758  0.7976 -0.0737
  182DOPC   C3422373   2.519   7.049   6.824  0.0891 -0.6716 -0.0699
  182DOPC   H4X22374   2.509   7.149   6.872 -0.9616  0.0727 -1.7808
  182DOPC   H4Y22375   2.597   6.996   6.884  0.4195  1.8841  1.9375
  182DOPC   C3522376   2.382   6.979   6.867 -0.1491  0.2065 -0.1466
  182DOPC   H5X22377   2.387   6.873   6.836 -2.5691  0.2847 -0.9768
  182DOPC   H5Y22378   2.299   7.036   6.819 -1.6946 -1.3388  0.6175
  182DOPC   C3622379   2.346   6.988   7.014 -0.2906 -0.2615 -0.3862
  182DOPC   H6X22380   2.421   6.936   7.077 -0.3581  0.7853  0.6013
  182DOPC   H6Y22381   2.349   7.094   7.046  0.3992 -0.2423 -0.4994
  182DOPC   C3722382   2.201   6.954   7.044 -0.1095  0.2110 -0.1951
  182DOPC   H7X22383   2.143   7.006   6.964 -0.7250  1.0501  0.7808
  182DOPC   H7Y22384   2.180   6.847   7.027 -0.0748 -0.2899  2.5213
  182DOPC   C3822385   2.160   6.983   7.190 -0.4508  0.4909 -0.6089
  182DOPC   H8X22386   2.173   7.090   7.219  0.1280  0.2159  0.2098
  182DOPC   H8Y22387   2.224   6.917   7.253  2.1066  2.7738 -0.6367
  182DOPC   C3922388   2.018   6.946   7.220 -0.1019  0.3792  0.0778
  182DOPC   H9X22389   1.956   6.900   7.141 -0.8212 -0.4495  1.1075
  182DOPC  C31022390   1.962   6.976   7.343  0.0474 -0.2816  0.6909
  182DOPC  H10X22391   1.855   6.951   7.355 -0.0680 -0.1336  0.0222
  182DOPC  C31122392   2.043   7.033   7.458  0.0830 -0.2644  0.6115
  182DOPC  H11X22393   2.009   7.135   7.487  0.9233  0.3956 -0.6257
  182DOPC  H11Y22394   2.149   7.027   7.423 -0.9860 -2.1551 -2.7543
  182DOPC  C31222395   2.038   6.964   7.593 -0.2561  0.4327 -0.3028
  182DOPC  H12X22396   2.128   7.010   7.640  1.0106  2.1201 -3.9670
  182DOPC  H12Y22397   2.068   6.858   7.581  2.1836  1.2883 -3.2612
  182DOPC  C31322398   1.928   6.986   7.693  0.3053 -0.8690  0.5918
  182DOPC  H13X22399   1.915   7.096   7.707  0.9395 -0.5815 -0.9288
  182DOPC  H13Y22400   1.835   6.947   7.647  0.8888 -1.0098 -0.5070
  182DOPC  C31422401   1.955   6.918   7.823  0.3298 -0.2523  0.6683
  182DOPC  H14X22402   1.933   6.810   7.804 -3.5493  0.4338  0.4260
  182DOPC  H14Y22403   2.059   6.925   7.860  0.5821 -1.7192  0.3134
  182DOPC  C31522404   1.856   6.967   7.926 -0.1113 -0.3895  0.2846
  182DOPC  H15X22405   1.838   6.893   8.007  0.2022  1.5784  2.2474
  182DOPC  H15Y22406   1.760   6.979   7.871  1.6606 -0.5751 -3.1033
  182DOPC  C31622407   1.899   7.091   8.006  0.0255  0.3769  0.1819
  182DOPC  H16X22408   1.980   7.066   8.078 -0.6753 -0.2610  0.7773
  182DOPC  H16Y22409   1.941   7.173   7.945  3.1053  0.1706  1.8241
  182DOPC  C31722410   1.774   7.150   8.081 -0.4990  0.3497  0.0301
  182DOPC  H17X22411   1.711   7.060   8.093  1.2190 -1.0160 -0.7967
  182DOPC  H17Y22412   1.805   7.172   8.186  0.4518 -2.1195  0.3143
  182DOPC  C31822413   1.704   7.264   8.008  0.1676 -0.0976 -0.2925
  182DOPC  H18X22414   1.635   7.322   8.073 -1.7481 -0.3487 -1.9840
  182DOPC  H18Y22415   1.777   7.334   7.962 -1.6220  1.0231 -1.5996
  182DOPC  H18Z22416   1.657   7.223   7.916  3.0456 -2.0158 -1.0457
  183DOPC     N22417   6.224   5.008   6.016  0.2978 -0.1860 -0.2403
  183DOPC   C1222418   6.311   4.879   6.019  0.0415  0.4190 -0.3192
  183DOPC  H12A22419   6.320   4.846   5.916  1.6884 -1.0051  0.2440
  183DOPC  H12B22420   6.277   4.795   6.078 -1.1654 -0.0587 -1.6288
  183DOPC   C1322421   6.206   5.049   6.162  0.1590 -0.3548 -0.1210
  183DOPC  H13A22422   6.303   5.069   6.205 -0.3471  2.8899 -0.2326
  183DOPC  H13B22423   6.144   5.137   6.174 -0.1676 -0.6396  0.2702
  183DOPC  H13C22424   6.154   4.969   6.211 -2.1984  1.7442  1.0468
  183DOPC   C1422425   6.090   4.971   5.958  0.4224 -0.3834 -0.1720
  183DOPC  H14A22426   6.049   4.895   6.023 -1.8525 -0.6157 -1.7669
  183DOPC  H14B22427   6.027   5.059   5.958 -0.4558 -0.9910 -0.2277
  183DOPC  H14C22428   6.108   4.930   5.860  0.3751  1.9141 -1.2068
  183DOPC   C1522429   6.295   5.110   5.934  0.6095 -0.0569  0.3977
  183DOPC  H15A22430   6.262   5.211   5.955 -0.2007 -0.1504 -0.3664
  183DOPC  H15B22431   6.294   5.095   5.827  1.3231  2.4390 -0.0091
  183DOPC  H15C22432   6.400   5.105   5.959  0.5647 -0.1397  0.5736
  183DOPC   C1122433   6.451   4.905   6.081 -0.8960 -0.1488  0.4334
  183DOPC  H11A22434   6.520   4.831   6.034  1.6144  3.3842 -2.0106
  183DOPC  H11B22435   6.496   5.004   6.058 -0.4488 -0.1956  1.0788
  183DOPC     P22436   6.581   4.827   6.302 -0.3989 -0.2632  0.2706
  183DOPC   O1322437   6.691   4.922   6.322  0.4133 -0.2828 -0.1045
  183DOPC   O1422438   6.613   4.695   6.242 -0.8803 -0.0657  0.1943
  183DOPC   O1222439   6.458   4.885   6.221 -0.3141  0.3543  0.4498
  183DOPC   O1122440   6.527   4.787   6.444 -0.0901 -0.5242  0.4850
  183DOPC    C122441   6.390   4.805   6.473  0.0325 -0.5410  0.3861
  183DOPC    HA22442   6.364   4.721   6.542 -4.6529  0.0605 -0.3499
  183DOPC    HB22443   6.320   4.781   6.390 -0.9909 -0.9397  1.3374
  183DOPC    C222444   6.366   4.946   6.519  0.6308 -0.9918 -0.2102
  183DOPC    HS22445   6.393   5.021   6.441  0.9943 -0.9569 -0.0535
  183DOPC   O2122446   6.439   4.974   6.645 -0.0237  1.6428  0.1536
  183DOPC   C2122447   6.456   5.100   6.674 -0.0759  0.5783 -0.4729
  183DOPC   O2222448   6.434   5.195   6.604 -0.4113  0.7817  0.1694
  183DOPC   C2222449   6.495   5.108   6.822 -0.1267 -0.0012  0.3880
  183DOPC   H2R22450   6.604   5.090   6.826 -0.4128 -2.0609 -0.2037
  183DOPC   H2S22451   6.449   5.031   6.887 -0.3101 -0.8670 -0.7283
  183DOPC    C322452   6.215   4.962   6.549 -0.8477 -0.2048 -0.2060
  183DOPC    HX22453   6.160   4.946   6.454 -1.3839  2.1714 -0.3768
  183DOPC    HY22454   6.201   5.068   6.581  2.0835  0.2214 -0.0546
  183DOPC   O3122455   6.178   4.876   6.662 -0.4472  0.4471  0.1928
  183DOPC   C3122456   6.056   4.828   6.653 -0.9250 -0.1934 -0.1373
  183DOPC   O3222457   5.977   4.859   6.559  0.0727 -0.3603  0.0088
  183DOPC   C3222458   6.011   4.754   6.786 -0.2250 -0.6560  0.7308
  183DOPC   H2X22459   6.031   4.646   6.770  0.2134 -0.5026  0.2041
  183DOPC   H2Y22460   6.076   4.780   6.872 -0.2613 -2.9534  1.5059
  183DOPC   C2322461   6.469   5.254   6.882  0.6081 -0.2122 -0.7304
  183DOPC   H3R22462   6.360   5.276   6.893  0.3640 -0.9070 -1.6804
  183DOPC   H3S22463   6.501   5.333   6.810 -0.2458 -0.7410 -1.7225
  183DOPC   C2422464   6.528   5.279   7.030 -0.1770  0.7151  0.2462
  183DOPC   H4R22465   6.549   5.387   7.023  2.2681  0.3070  0.4773
  183DOPC   H4S22466   6.628   5.235   7.049  0.2558  1.7851  0.4978
  183DOPC   C2522467   6.437   5.234   7.138 -0.6169  0.1793 -0.4808
  183DOPC   H5R22468   6.452   5.127   7.162 -0.6212  0.1730 -0.5032
  183DOPC   H5S22469   6.332   5.239   7.104 -0.8351 -0.8930  0.0117
  183DOPC   C2622470   6.459   5.328   7.267 -0.2109  0.5506 -0.2020
  183DOPC   H6R22471   6.398   5.420   7.248 -1.1805 -0.2286 -0.9696
  183DOPC   H6S22472   6.569   5.336   7.279  0.1426 -3.7483  0.8859
  183DOPC   C2722473   6.410   5.259   7.400 -0.5334 -0.1761 -0.3222
  183DOPC   H7R22474   6.418   5.324   7.490 -0.9598  0.0281 -0.4347
  183DOPC   H7S22475   6.474   5.168   7.403  2.5489  1.8521  0.5298
  183DOPC   C2822476   6.256   5.225   7.400  0.1033 -0.8592 -0.1989
  183DOPC   H8R22477   6.228   5.131   7.349 -1.4145  0.6984 -2.3885
  183DOPC   H8S22478   6.206   5.313   7.355  0.9152 -0.0227  0.4994
  183DOPC   C2922479   6.196   5.217   7.541  0.0320  0.4628 -0.6635
  183DOPC   H9R22480   6.096   5.261   7.547  0.1773  0.7018  0.0255
  183DOPC  C21022481   6.248   5.149   7.646 -0.4031 -0.1689 -0.2181
  183DOPC  H10R22482   6.198   5.161   7.743 -0.2275  1.2189 -0.2750
  183DOPC  C21122483   6.381   5.083   7.668  0.3197  0.7331 -0.2295
  183DOPC  H11R22484   6.439   5.147   7.738  0.4599 -1.3319  1.6620
  183DOPC  H11S22485   6.448   5.076   7.579 -0.1784 -0.1254 -0.5537
  183DOPC  C21222486   6.371   4.939   7.739 -0.4152 -0.9344  0.2509
  183DOPC  H12R22487   6.304   4.953   7.826  0.6652 -0.6376  1.0631
  183DOPC  H12S22488   6.468   4.907   7.785 -1.1265 -3.1378  0.3194
  183DOPC  C21322489   6.322   4.835   7.642  0.1080 -0.0821 -0.4142
  183DOPC  H13R22490   6.229   4.879   7.602  0.5006  0.3013 -0.9122
  183DOPC  H13S22491   6.299   4.742   7.698 -0.7862  1.4871  1.9769
  183DOPC  C21422492   6.410   4.791   7.522 -0.9526 -0.5577 -0.0072
  183DOPC  H14R22493   6.500   4.741   7.564  0.4837  1.8518  0.0267
  183DOPC  H14S22494   6.452   4.886   7.480 -1.0679  0.6049  2.3592
  183DOPC  C21522495   6.347   4.698   7.414 -1.0810 -0.3000 -0.6459
  183DOPC  H15R22496   6.303   4.615   7.472 -1.2293  0.8934  1.0326
  183DOPC  H15S22497   6.423   4.672   7.337 -0.6694 -1.6349  0.1921
  183DOPC  C21622498   6.227   4.766   7.347  0.2751  0.5954 -0.0628
  183DOPC  H16R22499   6.249   4.874   7.331  0.2386  0.4075 -1.5219
  183DOPC  H16S22500   6.137   4.762   7.411  0.6772 -0.8879  0.4485
  183DOPC  C21722501   6.204   4.711   7.206  0.1575  0.6274 -0.3210
  183DOPC  H17R22502   6.095   4.715   7.189  0.1424  1.8164 -0.0776
  183DOPC  H17S22503   6.218   4.601   7.210 -1.0074  0.4594 -0.7741
  183DOPC  C21822504   6.293   4.774   7.094 -0.3558  0.1174  0.3802
  183DOPC  H18R22505   6.275   4.880   7.067  0.0931 -0.6535 -3.5748
  183DOPC  H18S22506   6.286   4.718   6.999  0.0573  0.6962  0.0057
  183DOPC  H18T22507   6.401   4.764   7.117 -0.3989  1.4454  1.3035
  183DOPC   C3322508   5.863   4.770   6.824  1.1578 -1.1405 -0.8603
  183DOPC   H3X22509   5.805   4.696   6.765  0.7371 -0.0739 -1.8471
  183DOPC   H3Y22510   5.825   4.869   6.790 -0.9416 -1.2291  1.0226
  183DOPC   C3422511   5.823   4.753   6.978  0.3997 -1.0822 -0.5885
  183DOPC   H4X22512   5.721   4.796   6.987  0.8158 -0.0769 -0.5250
  183DOPC   H4Y22513   5.879   4.821   7.045 -1.6179  0.2559 -0.1736
  183DOPC   C3522514   5.844   4.612   7.029 -0.2436 -0.1045 -0.2815
  183DOPC   H5X22515   5.829   4.603   7.139  2.4416 -0.0471  0.1453
  183DOPC   H5Y22516   5.947   4.577   7.009 -0.0163  0.6850 -0.5155
  183DOPC   C3622517   5.738   4.510   6.972 -0.3617 -1.0769  0.1167
  183DOPC   H6X22518   5.640   4.561   6.985 -0.5125 -0.7961 -1.8422
  183DOPC   H6Y22519   5.754   4.500   6.863  2.7703 -0.9535  0.4734
  183DOPC   C3722520   5.746   4.383   7.055  1.2099 -0.0565  0.1923
  183DOPC   H7X22521   5.841   4.330   7.033  1.7032  0.1943  1.6140
  183DOPC   H7Y22522   5.750   4.409   7.163 -1.2303 -1.4479  0.6991
  183DOPC   C3822523   5.619   4.295   7.027  0.0595  0.2974 -0.4420
  183DOPC   H8X22524   5.626   4.279   6.917 -0.5486 -2.3099 -0.1513
  183DOPC   H8Y22525   5.521   4.345   7.037  0.2547  1.1891 -2.4802
  183DOPC   C3922526   5.641   4.163   7.103 -0.3520  0.0728  0.0561
  183DOPC   H9X22527   5.717   4.093   7.064 -1.6947 -3.2406  2.8809
  183DOPC  C31022528   5.573   4.117   7.210  0.0087  0.2063 -0.0970
  183DOPC  H10X22529   5.589   4.013   7.242 -1.5832  0.3932  1.4319
  183DOPC  C31122530   5.478   4.191   7.305  0.0364 -0.2175 -0.0450
  183DOPC  H11X22531   5.375   4.179   7.266 -0.0072 -0.8294  0.2536
  183DOPC  H11Y22532   5.495   4.300   7.295  1.3966 -0.4778 -0.7831
  183DOPC  C31222533   5.475   4.144   7.453  0.2662 -0.0640  0.5102
  183DOPC  H12X22534   5.413   4.210   7.518  1.0613  0.3671  0.8475
  183DOPC  H12Y22535   5.577   4.145   7.496 -1.1142  0.4738  4.2107
  183DOPC  C31322536   5.416   4.001   7.465  0.4288 -0.1507  0.5445
  183DOPC  H13X22537   5.316   4.009   7.416 -0.1764 -0.9611  1.6055
  183DOPC  H13Y22538   5.475   3.926   7.408 -1.7479 -0.6250 -1.2599
  183DOPC  C31422539   5.405   3.962   7.610  0.1073 -0.9439  0.1580
  183DOPC  H14X22540   5.502   3.997   7.652 -0.7169  2.1155 -0.2089
  183DOPC  H14Y22541   5.316   4.009   7.656  0.3969 -0.2239 -0.0048
  183DOPC  C31522542   5.400   3.810   7.625  0.0125  0.7874  0.3533
  183DOPC  H15X22543   5.463   3.765   7.546  1.1097  1.7087  0.6742
  183DOPC  H15Y22544   5.294   3.783   7.602  0.6666 -0.0789 -1.9169
  183DOPC  C31622545   5.430   3.748   7.767 -0.3844  0.7749 -0.4090
  183DOPC  H16X22546   5.537   3.769   7.788 -0.4495  0.8938 -0.1890
  183DOPC  H16Y22547   5.386   3.799   7.855  3.0285  1.8055  0.8494
  183DOPC  C31722548   5.416   3.595   7.772  0.6248 -0.1929  0.2120
  183DOPC  H17X22549   5.312   3.575   7.742  0.3584 -1.6039  1.9000
  183DOPC  H17Y22550   5.472   3.548   7.688 -0.5218 -0.3392 -0.4862
  183DOPC  C31822551   5.455   3.530   7.904  0.1377  0.6538 -0.1282
  183DOPC  H18X22552   5.378   3.454   7.931 -0.1052  1.0929  0.4270
  183DOPC  H18Y22553   5.558   3.487   7.912 -0.3967 -0.5482  0.4848
  183DOPC  H18Z22554   5.454   3.609   7.981 -1.3160  1.4326 -0.9107
  184DOPC     N22555   3.662   7.295   6.106  0.0249 -0.5916  0.3587
  184DOPC   C1222556   3.809   7.255   6.093 -0.2785 -0.1591  0.6739
  184DOPC  H12A22557   3.808   7.202   5.999  0.5068 -0.1232  0.6362
  184DOPC  H12B22558   3.830   7.194   6.179 -1.3188 -1.4809  0.0334
  184DOPC   C1322559   3.621   7.348   5.972  0.4381 -0.1164 -0.0207
  184DOPC  H13A22560   3.683   7.433   5.947  0.2182 -0.3521 -1.4316
  184DOPC  H13B22561   3.628   7.271   5.897 -0.7478 -2.1379  1.7942
  184DOPC  H13C22562   3.518   7.380   5.973  0.5259  0.3305 -2.0797
  184DOPC   C1422563   3.646   7.398   6.212 -0.6430  0.0597 -0.6915
  184DOPC  H14A22564   3.539   7.416   6.214 -0.7526 -0.6077  0.1556
  184DOPC  H14B22565   3.668   7.364   6.312 -0.8448  1.8470  0.0097
  184DOPC  H14C22566   3.701   7.489   6.196 -0.3426 -0.0235 -0.1466
  184DOPC   C1522567   3.584   7.177   6.144  0.2340  0.2052 -0.4706
  184DOPC  H15A22568   3.480   7.203   6.154  0.7543  1.7899  1.5261
  184DOPC  H15B22569   3.608   7.134   6.240 -1.1920 -3.4158 -1.5672
  184DOPC  H15C22570   3.590   7.094   6.075 -0.7885 -2.3031  2.2700
  184DOPC   C1122571   3.908   7.372   6.076 -0.3020  0.0448  1.1814
  184DOPC  H11A22572   4.002   7.337   6.028  0.2577 -0.8937  2.9059
  184DOPC  H11B22573   3.870   7.449   6.005  0.5820 -0.6872 -0.1351
  184DOPC     P22574   4.051   7.368   6.298  0.0342  0.1949 -0.0143
  184DOPC   O1322575   4.101   7.456   6.414 -0.4656 -0.0988 -0.4204
  184DOPC   O1422576   4.163   7.318   6.214 -0.1712  0.3060 -0.2337
  184DOPC   O1222577   3.932   7.438   6.201 -0.4162 -0.4493  0.1794
  184DOPC   O1122578   3.983   7.246   6.353  0.2631  0.5953  0.2722
  184DOPC    C122579   3.877   7.254   6.450 -0.9872  0.0682  0.6618
  184DOPC    HA22580   3.784   7.198   6.424 -0.7673  0.6517 -1.6272
  184DOPC    HB22581   3.837   7.357   6.461 -0.5830  0.5822 -1.9838
  184DOPC    C222582   3.933   7.210   6.598  0.0061  0.6114 -0.5906
  184DOPC    HS22583   4.005   7.286   6.634 -1.5495  0.5262  3.1452
  184DOPC   O2122584   3.984   7.076   6.595  0.3112  0.1140  0.2084
  184DOPC   C2122585   4.114   7.063   6.629 -0.3790 -0.1371 -0.0297
  184DOPC   O2222586   4.191   7.155   6.660 -0.6653 -0.1556  0.3149
  184DOPC   C2222587   4.151   6.915   6.634 -0.2192  0.2244 -0.2695
  184DOPC   H2R22588   4.182   6.889   6.530  0.0771  2.2252 -0.7310
  184DOPC   H2S22589   4.069   6.850   6.673  1.0991 -1.0519  0.4629
  184DOPC    C322590   3.817   7.214   6.697 -0.1742  0.7007  0.0327
  184DOPC    HX22591   3.734   7.160   6.648  1.4526  0.6230 -2.8689
  184DOPC    HY22592   3.776   7.317   6.702 -2.6852 -0.2213 -0.1910
  184DOPC   O3122593   3.840   7.167   6.830  0.1782 -0.2963  0.0331
  184DOPC   C3122594   3.918   7.246   6.897  0.4466 -0.6288 -0.7170
  184DOPC   O3222595   3.964   7.353   6.865  0.0790 -0.1712 -0.1298
  184DOPC   C3222596   3.948   7.191   7.040  0.9815  0.0228  0.0064
  184DOPC   H2X22597   4.042   7.135   7.028  1.0884  0.4241 -1.0853
  184DOPC   H2Y22598   3.963   7.280   7.105 -0.3779  1.5396 -1.6556
  184DOPC   C2322599   4.272   6.884   6.729  0.0947 -0.4965  0.2515
  184DOPC   H3R22600   4.347   6.959   6.697 -1.4812  0.8016 -0.5640
  184DOPC   H3S22601   4.320   6.788   6.699 -1.2956 -0.7932 -1.1095
  184DOPC   C2422602   4.255   6.887   6.885 -0.3865  1.3417  0.7682
  184DOPC   H4R22603   4.185   6.801   6.898 -0.0997  0.7084 -1.4853
  184DOPC   H4S22604   4.210   6.985   6.912  0.1257  1.7369  0.2201
  184DOPC   C2522605   4.382   6.860   6.973  0.5804  0.4349  0.0465
  184DOPC   H5R22606   4.467   6.922   6.937  1.6381  0.6805  2.7714
  184DOPC   H5S22607   4.419   6.756   6.958 -0.8056 -0.2130  0.9702
  184DOPC   C2622608   4.376   6.888   7.123 -0.1462 -0.0298  0.2003
  184DOPC   H6R22609   4.369   6.999   7.126 -0.6032  0.0028 -1.2682
  184DOPC   H6S22610   4.465   6.862   7.184 -0.8274  0.9687  1.6667
  184DOPC   C2722611   4.253   6.828   7.182  0.2392  0.0354 -0.5574
  184DOPC   H7R22612   4.271   6.719   7.195  1.2583  0.4360  2.1942
  184DOPC   H7S22613   4.166   6.846   7.116  1.0793 -1.0409 -2.0124
  184DOPC   C2822614   4.204   6.889   7.316  0.0026 -0.4339  0.1885
  184DOPC   H8R22615   4.111   6.834   7.343 -0.4018 -0.0158 -0.3283
  184DOPC   H8S22616   4.171   6.994   7.300  2.7289  0.7335  1.6333
  184DOPC   C2922617   4.295   6.906   7.439  0.5112 -0.0613  0.1794
  184DOPC   H9R22618   4.378   6.977   7.421  1.0309 -0.3521  1.3358
  184DOPC  C21022619   4.293   6.844   7.562 -0.1130  0.4255 -1.0851
  184DOPC  H10R22620   4.369   6.874   7.636 -0.0678 -2.0426 -0.0513
  184DOPC  C21122621   4.188   6.748   7.618 -0.8662  0.0397  0.1795
  184DOPC  H11R22622   4.213   6.646   7.581 -0.1952  0.3793 -0.3360
  184DOPC  H11S22623   4.094   6.775   7.565 -1.2495 -1.1520  0.2109
  184DOPC  C21222624   4.179   6.766   7.763  0.3056 -0.5127 -0.3698
  184DOPC  H12R22625   4.087   6.709   7.793  0.9279 -2.4742 -1.9342
  184DOPC  H12S22626   4.160   6.872   7.787  0.2717 -0.3399 -1.1510
  184DOPC  C21322627   4.298   6.706   7.843  0.1482 -0.6944 -0.2240
  184DOPC  H13R22628   4.281   6.746   7.945  0.1088 -0.6023 -0.2658
  184DOPC  H13S22629   4.401   6.730   7.808  0.1135 -2.5869 -1.8078
  184DOPC  C21422630   4.292   6.556   7.840 -0.7874  0.3014 -0.0018
  184DOPC  H14R22631   4.330   6.518   7.743 -1.3870 -2.2868  0.7029
  184DOPC  H14S22632   4.190   6.513   7.853 -0.6920 -0.2879 -1.0765
  184DOPC  C21522633   4.386   6.497   7.954  0.6359  0.1283 -0.5104
  184DOPC  H15R22634   4.343   6.523   8.053  1.3910 -0.1206 -0.1093
  184DOPC  H15S22635   4.486   6.544   7.955  0.6127  0.2143  1.3402
  184DOPC  C21622636   4.405   6.341   7.954  1.1280 -0.1402  0.1757
  184DOPC  H16R22637   4.463   6.312   8.044 -0.4652  1.4647  1.7905
  184DOPC  H16S22638   4.473   6.322   7.868  0.6716  4.8155 -1.5636
  184DOPC  C21722639   4.278   6.254   7.961 -0.6996  0.4637 -0.2493
  184DOPC  H17R22640   4.319   6.151   7.965  2.3466  1.5004 -1.6207
  184DOPC  H17S22641   4.215   6.271   7.872  3.4888  2.5165 -3.1772
  184DOPC  C21822642   4.203   6.285   8.085  0.1169 -0.5667 -0.0549
  184DOPC  H18R22643   4.156   6.386   8.078 -1.9370 -1.5672 -2.3126
  184DOPC  H18S22644   4.265   6.271   8.176 -1.1747  1.1097  1.1668
  184DOPC  H18T22645   4.120   6.211   8.083 -0.5098  0.0418  1.5951
  184DOPC   C3322646   3.838   7.099   7.100  0.2610 -0.7217  0.5810
  184DOPC   H3X22647   3.813   7.010   7.039  2.0169  0.5431 -2.1836
  184DOPC   H3Y22648   3.749   7.164   7.115  2.5274  2.8622 -0.3054
  184DOPC   C3422649   3.868   7.052   7.249 -0.0909 -0.1095  0.0808
  184DOPC   H4X22650   3.977   7.048   7.270 -0.1989 -0.2951  0.6203
  184DOPC   H4Y22651   3.830   6.950   7.272  1.1461 -0.7086 -0.4441
  184DOPC   C3522652   3.819   7.157   7.344 -0.0182  0.0980  0.9883
  184DOPC   H5X22653   3.709   7.173   7.338 -0.6247 -2.7343  2.3774
  184DOPC   H5Y22654   3.870   7.254   7.328  0.2470 -0.1289  0.4329
  184DOPC   C3622655   3.866   7.123   7.483  0.4630 -0.4969 -0.8234
  184DOPC   H6X22656   3.971   7.088   7.466  0.5009 -0.3411 -0.9153
  184DOPC   H6Y22657   3.870   7.208   7.553  2.9330 -1.3791  0.2274
  184DOPC   C3722658   3.788   7.004   7.548  0.2460  0.0136  0.0003
  184DOPC   H7X22659   3.677   7.011   7.542  0.2888  1.2235  0.3544
  184DOPC   H7Y22660   3.816   6.921   7.480  0.3582  0.2124 -0.1956
  184DOPC   C3822661   3.829   6.975   7.695  0.4437 -0.1405 -0.8349
  184DOPC   H8X22662   3.796   7.056   7.763  0.5742 -1.3492  0.7430
  184DOPC   H8Y22663   3.940   6.981   7.691  0.5359 -0.5990  0.3899
  184DOPC   C3922664   3.773   6.841   7.751  0.7366 -0.4991  0.3704
  184DOPC   H9X22665   3.725   6.774   7.678  0.9033  0.3969 -0.5905
  184DOPC  C31022666   3.782   6.801   7.873 -0.2095 -0.6459 -0.0712
  184DOPC  H10X22667   3.757   6.697   7.900 -3.2614  0.4533  1.7238
  184DOPC  C31122668   3.866   6.874   7.978 -0.6868 -0.4880 -0.0407
  184DOPC  H11X22669   3.816   6.959   8.030 -0.0336 -0.3848  0.4435
  184DOPC  H11Y22670   3.961   6.907   7.931 -0.0672  0.3335  1.6967
  184DOPC  C31222671   3.905   6.770   8.084 -0.5790 -0.2177 -0.2557
  184DOPC  H12X22672   3.998   6.812   8.129 -1.0265 -0.5144  1.0045
  184DOPC  H12Y22673   3.933   6.669   8.049 -1.7133 -0.8362  0.5614
  184DOPC  C31322674   3.809   6.750   8.200  0.1150  0.7450 -0.3043
  184DOPC  H13X22675   3.790   6.849   8.247  0.3798  1.6329 -1.9765
  184DOPC  H13Y22676   3.712   6.712   8.162  1.2981 -0.6394 -2.1168
  184DOPC  C31422677   3.867   6.652   8.307  0.1276  0.0781  0.7610
  184DOPC  H14X22678   3.877   6.554   8.257 -0.6465 -0.8858  2.4291
  184DOPC  H14Y22679   3.971   6.675   8.338  1.0579 -1.7058 -0.8721
  184DOPC  C31522680   3.777   6.637   8.427  0.7059 -0.5914  0.1283
  184DOPC  H15X22681   3.676   6.598   8.404  0.7142 -0.6251  0.1468
  184DOPC  H15Y22682   3.756   6.739   8.465  0.6884  0.6015 -2.8327
  184DOPC  C31622683   3.847   6.552   8.533  0.0043 -0.3660 -0.5485
  184DOPC  H16X22684   3.958   6.559   8.536  0.1609 -1.9265 -1.6789
  184DOPC  H16Y22685   3.817   6.588   8.634 -0.2264  3.0261 -1.6821
  184DOPC  C31722686   3.826   6.397   8.521  0.6641 -0.6011 -0.2036
  184DOPC  H17X22687   3.723   6.388   8.480  1.5736 -1.2883 -2.4956
  184DOPC  H17Y22688   3.887   6.357   8.436  0.1146 -0.0514 -0.8700
  184DOPC  C31822689   3.843   6.319   8.653 -0.9499  0.5287 -0.4230
  184DOPC  H18X22690   3.744   6.277   8.683 -0.3956 -0.5634 -0.0893
  184DOPC  H18Y22691   3.914   6.234   8.652 -0.7185  0.7071  0.5844
  184DOPC  H18Z22692   3.887   6.392   8.723  2.4808 -0.7547 -1.0596
  185DOPC     N22693   5.028   4.219   6.093  0.1597  0.1842 -0.2511
  185DOPC   C1222694   5.019   4.224   6.246 -0.9058 -0.7247 -0.4053
  185DOPC  H12A22695   5.112   4.176   6.274 -1.1381 -1.5656 -1.0259
  185DOPC  H12B22696   4.933   4.167   6.275 -0.3483 -2.2865 -1.6731
  185DOPC   C1322697   4.911   4.291   6.027 -0.6020  0.3522  0.3607
  185DOPC  H13A22698   4.912   4.274   5.921 -0.4369  0.0761  0.4060
  185DOPC  H13B22699   4.811   4.265   6.056 -0.8346  1.3221  0.4775
  185DOPC  H13C22700   4.920   4.397   6.045 -1.9089  0.5226  0.1237
  185DOPC   C1422701   5.019   4.078   6.040 -1.2840  0.8923 -0.0493
  185DOPC  H14A22702   5.000   4.067   5.934 -0.6538 -2.9444  0.0678
  185DOPC  H14B22703   5.108   4.019   6.055 -3.0295 -2.4260 -1.5715
  185DOPC  H14C22704   4.944   4.025   6.098  1.4963 -1.0962  2.0271
  185DOPC   C1522705   5.163   4.278   6.044  0.1122 -0.5677  0.6920
  185DOPC  H15A22706   5.251   4.224   6.076 -0.2724  0.0678  2.9809
  185DOPC  H15B22707   5.169   4.377   6.087  0.0838  0.4679 -1.5283
  185DOPC  H15C22708   5.159   4.271   5.936 -1.1054  0.3821  0.6526
  185DOPC   C1122709   5.014   4.362   6.312 -0.4178 -0.4469 -0.1708
  185DOPC  H11A22710   4.941   4.425   6.258 -1.9747  0.5454  2.8257
  185DOPC  H11B22711   4.970   4.345   6.413 -0.7184 -2.6055 -0.6191
  185DOPC     P22712   5.258   4.354   6.402  0.2724  0.2388  0.5158
  185DOPC   O1322713   5.357   4.457   6.442  0.2195  0.3309  0.3541
  185DOPC   O1422714   5.293   4.235   6.326  0.1553  0.3080  0.3398
  185DOPC   O1222715   5.143   4.426   6.322  0.2602  0.3002  0.0804
  185DOPC   O1122716   5.186   4.303   6.534  0.1119  0.0550 -0.1158
  185DOPC    C122717   5.129   4.405   6.630 -0.4424  0.2154  0.4396
  185DOPC    HA22718   5.024   4.374   6.652 -0.1555  0.0779  1.6824
  185DOPC    HB22719   5.122   4.505   6.582  0.1039 -0.1079 -0.3172
  185DOPC    C222720   5.208   4.408   6.764  0.2436  0.6621  0.0023
  185DOPC    HS22721   5.315   4.428   6.743  0.5154  1.6011  2.0316
  185DOPC   O2122722   5.193   4.289   6.829  0.3542 -0.8578  0.5491
  185DOPC   C2122723   5.272   4.184   6.811  0.1572  0.4622 -0.2857
  185DOPC   O2222724   5.374   4.182   6.742  0.1315  0.2336  0.1613
  185DOPC   C2222725   5.205   4.062   6.892 -0.0546 -0.3934 -0.3402
  185DOPC   H2R22726   5.157   3.996   6.817 -2.6183  2.0386 -0.9683
  185DOPC   H2S22727   5.132   4.103   6.965 -0.2345 -0.0287 -0.7232
  185DOPC    C322728   5.153   4.519   6.859 -0.7743 -0.0447  0.3431
  185DOPC    HX22729   5.044   4.502   6.865 -0.5987 -2.8686 -2.2493
  185DOPC    HY22730   5.172   4.616   6.808  3.4675 -0.0004  1.6414
  185DOPC   O3122731   5.209   4.520   6.995 -0.2677 -0.5712  0.0293
  185DOPC   C3122732   5.328   4.566   7.004  0.4559 -0.0687  0.6538
  185DOPC   O3222733   5.404   4.579   6.912 -0.5320 -0.7365  0.4395
  185DOPC   C3222734   5.370   4.571   7.156  0.6414 -0.1974  0.0779
  185DOPC   H2X22735   5.333   4.473   7.192 -2.8287  0.7414 -0.5692
  185DOPC   H2Y22736   5.480   4.585   7.154  0.6525 -0.3079 -0.0285
  185DOPC   C2322737   5.308   3.983   6.979  0.1677 -0.3983  0.2641
  185DOPC   H3R22738   5.303   4.041   7.073 -1.0943  0.4438 -0.2945
  185DOPC   H3S22739   5.401   3.994   6.918 -2.0372  0.1470 -3.2643
  185DOPC   C2422740   5.264   3.840   7.008 -0.9126  0.0453 -0.5428
  185DOPC   H4R22741   5.244   3.781   6.916 -0.2823 -3.2453  1.2742
  185DOPC   H4S22742   5.169   3.835   7.066 -0.4414 -1.6696  0.1511
  185DOPC   C2522743   5.368   3.753   7.089  0.1315 -0.0084  0.3989
  185DOPC   H5R22744   5.332   3.648   7.098 -2.7030  0.9512  1.1342
  185DOPC   H5S22745   5.378   3.799   7.189 -0.3748  0.8351  0.0681
  185DOPC   C2622746   5.499   3.732   7.020  0.1230  0.0330 -0.2598
  185DOPC   H6R22747   5.549   3.832   7.019  0.8778 -0.3376 -0.1898
  185DOPC   H6S22748   5.492   3.687   6.919  3.7140 -1.4908  0.0077
  185DOPC   C2722749   5.593   3.642   7.104  0.3594 -0.2955  0.3123
  185DOPC   H7R22750   5.567   3.661   7.210 -2.5049  0.3730 -0.4233
  185DOPC   H7S22751   5.699   3.676   7.097 -0.3917  2.1125 -0.3230
  185DOPC   C2822752   5.583   3.488   7.084 -0.5972 -0.4410  0.3642
  185DOPC   H8R22753   5.557   3.465   6.979  2.0781 -1.9263 -0.0520
  185DOPC   H8S22754   5.492   3.453   7.138 -0.9935  1.7457  1.2752
  185DOPC   C2922755   5.700   3.404   7.132 -0.8329  0.0733 -0.3093
  185DOPC   H9R22756   5.750   3.337   7.060  0.5696  0.3004  0.4189
  185DOPC  C21022757   5.752   3.407   7.254  0.5481  0.3189 -0.4156
  185DOPC  H10R22758   5.823   3.325   7.271  2.0640  1.7405  0.4396
  185DOPC  C21122759   5.710   3.493   7.378  0.0239 -0.0644 -0.6151
  185DOPC  H11R22760   5.710   3.423   7.465 -1.0889 -1.5004 -1.7017
  185DOPC  H11S22761   5.605   3.529   7.367  0.1511  0.1630 -1.1192
  185DOPC  C21222762   5.811   3.606   7.408  0.5230 -0.5414 -0.3051
  185DOPC  H12R22763   5.817   3.680   7.325  0.2948 -0.5962 -0.3708
  185DOPC  H12S22764   5.914   3.569   7.428  0.8167 -0.5671 -1.7731
  185DOPC  C21322765   5.773   3.682   7.538 -0.4507 -0.0923  0.3220
  185DOPC  H13R22766   5.771   3.621   7.630 -0.7156 -0.5940 -0.0161
  185DOPC  H13S22767   5.666   3.706   7.525 -0.1014  1.8281  0.6532
  185DOPC  C21422768   5.850   3.818   7.559  0.2922 -0.1528  0.5327
  185DOPC  H14R22769   5.862   3.869   7.461  0.9337 -1.5477 -0.1588
  185DOPC  H14S22770   5.948   3.779   7.595 -0.0071 -1.3581  0.1060
  185DOPC  C21522771   5.786   3.911   7.663 -1.1185  0.4325 -0.4394
  185DOPC  H15R22772   5.719   3.859   7.735 -1.9988  0.4820 -1.1982
  185DOPC  H15S22773   5.731   3.990   7.608 -0.1660  0.3987 -1.4749
  185DOPC  C21622774   5.900   3.970   7.755 -0.2129  0.4938  0.4223
  185DOPC  H16R22775   5.956   4.037   7.686  0.8982 -0.9936 -0.1753
  185DOPC  H16S22776   5.968   3.889   7.790  0.4672  0.4944 -0.8000
  185DOPC  C21722777   5.858   4.058   7.868 -0.8081  0.3487 -0.6437
  185DOPC  H17R22778   5.824   3.994   7.952  0.6720  0.3761  0.0134
  185DOPC  H17S22779   5.770   4.113   7.828 -0.9425  1.1710  0.7270
  185DOPC  C21822780   5.960   4.155   7.911  0.7425 -0.9094  0.3384
  185DOPC  H18R22781   6.013   4.204   7.827 -2.2638  0.4860 -0.8691
  185DOPC  H18S22782   6.034   4.104   7.977  0.3682 -0.1897  1.3469
  185DOPC  H18T22783   5.905   4.227   7.975  1.6258  0.7982 -0.7759
  185DOPC   C3322784   5.289   4.676   7.229 -0.1500 -0.0326 -0.3186
  185DOPC   H3X22785   5.271   4.651   7.336  1.6646 -1.8225 -0.3825
  185DOPC   H3Y22786   5.191   4.700   7.184 -0.7991 -1.4629  0.2837
  185DOPC   C3422787   5.363   4.803   7.229 -0.4505  0.1096 -0.0467
  185DOPC   H4X22788   5.295   4.882   7.268 -0.4607 -0.6664  1.6205
  185DOPC   H4Y22789   5.384   4.841   7.127 -0.6119 -0.8200 -0.4334
  185DOPC   C3522790   5.483   4.810   7.319  0.7385  0.0683 -0.0474
  185DOPC   H5X22791   5.512   4.708   7.354  0.4236 -0.8832 -2.3938
  185DOPC   H5Y22792   5.451   4.856   7.415 -1.6474  1.4565 -1.4333
  185DOPC   C3622793   5.600   4.894   7.263 -0.1845  0.2737 -0.8726
  185DOPC   H6X22794   5.613   4.872   7.155  1.1772 -1.5607 -0.3872
  185DOPC   H6Y22795   5.582   5.003   7.252 -0.8523  0.0040 -2.7368
  185DOPC   C3722796   5.733   4.874   7.335  0.0618 -0.1050 -0.0764
  185DOPC   H7X22797   5.759   4.768   7.317  3.6419  0.6132 -0.0418
  185DOPC   H7Y22798   5.819   4.921   7.282  0.8169 -0.2457  0.9802
  185DOPC   C3822799   5.737   4.913   7.483  0.1240 -0.1664  0.7653
  185DOPC   H8X22800   5.647   4.864   7.525 -0.5416  0.1746 -0.2337
  185DOPC   H8Y22801   5.732   5.023   7.498  0.8436 -0.3948  3.2674
  185DOPC   C3922802   5.866   4.869   7.544  0.8752 -0.2149 -0.2294
  185DOPC   H9X22803   5.938   4.949   7.565  0.2487  0.0561  0.9834
  185DOPC  C31022804   5.886   4.741   7.584 -0.1701 -1.0582  0.0825
  185DOPC  H10X22805   5.982   4.714   7.629 -0.5841 -0.5913  1.2798
  185DOPC  C31122806   5.789   4.627   7.565 -0.0983  1.3278  0.1538
  185DOPC  H11X22807   5.686   4.668   7.559 -0.8022 -0.2010  1.2115
  185DOPC  H11Y22808   5.792   4.562   7.655 -0.3919  0.1621 -0.6640
  185DOPC  C31222809   5.822   4.542   7.434 -0.4204  0.1841  0.8582
  185DOPC  H12X22810   5.877   4.603   7.358 -1.3453 -1.1431 -0.9595
  185DOPC  H12Y22811   5.721   4.524   7.392 -0.1731  1.6091 -0.4779
  185DOPC  C31322812   5.893   4.400   7.442  0.0503 -0.2146  0.0921
  185DOPC  H13X22813   5.847   4.345   7.527 -0.3928  0.5311  0.3459
  185DOPC  H13Y22814   5.882   4.345   7.346 -1.5984 -0.8390  0.5891
  185DOPC  C31422815   6.040   4.421   7.481 -0.1787  0.8583  0.0425
  185DOPC  H14X22816   6.094   4.470   7.397 -1.3775  1.1261 -0.6020
  185DOPC  H14Y22817   6.049   4.493   7.565  2.3638  0.4324  0.1855
  185DOPC  C31522818   6.099   4.289   7.525 -0.0718  0.0100  0.1164
  185DOPC  H15X22819   6.079   4.208   7.452  2.3725 -0.4277 -0.1296
  185DOPC  H15Y22820   6.046   4.263   7.619 -2.4944  0.6646 -0.9767
  185DOPC  C31622821   6.249   4.301   7.546 -0.9767  0.3165  0.4129
  185DOPC  H16X22822   6.292   4.202   7.571  0.7906  0.9429 -0.0235
  185DOPC  H16Y22823   6.302   4.321   7.450  0.5763  0.9047  1.3642
  185DOPC  C31722824   6.287   4.405   7.655  0.8119  1.3148 -0.0394
  185DOPC  H17X22825   6.250   4.503   7.618  1.7982  1.4770 -0.6409
  185DOPC  H17Y22826   6.226   4.386   7.745  0.5931  3.0228  0.2021
  185DOPC  C31822827   6.436   4.415   7.682 -0.1490  0.0161  0.4037
  185DOPC  H18X22828   6.486   4.319   7.706  2.0329  0.4853 -1.9511
  185DOPC  H18Y22829   6.489   4.453   7.592 -0.4388  0.1116  0.2690
  185DOPC  H18Z22830   6.474   4.478   7.766  2.1344  0.1765 -0.6951
  186DOPC     N22831   4.912   0.877   5.760  0.0211  0.1542 -0.4003
  186DOPC   C1222832   4.928   0.884   5.910  1.5026  0.2965  0.6224
  186DOPC  H12A22833   4.881   0.801   5.961  1.1083 -0.8721 -1.5118
  186DOPC  H12B22834   4.859   0.960   5.942  0.1528  0.4977 -2.3804
  186DOPC   C1322835   4.971   0.999   5.706 -0.5478  0.0563  0.4816
  186DOPC  H13A22836   4.928   1.090   5.745 -3.7934 -0.8096 -0.7527
  186DOPC  H13B22837   5.072   1.010   5.742 -0.4934 -0.8371  0.6143
  186DOPC  H13C22838   4.967   0.991   5.598 -0.0878 -1.7295  0.5767
  186DOPC   C1422839   4.769   0.864   5.730 -0.3508 -0.3047  0.9136
  186DOPC  H14A22840   4.713   0.941   5.781 -0.6714  1.0636 -1.3428
  186DOPC  H14B22841   4.740   0.868   5.626  1.9664 -1.9150  0.1078
  186DOPC  H14C22842   4.739   0.767   5.765 -0.4997 -0.5765  0.0615
  186DOPC   C1522843   4.976   0.758   5.706  0.6016 -0.0233 -0.3313
  186DOPC  H15A22844   5.077   0.761   5.743  0.5109 -2.7257  0.2819
  186DOPC  H15B22845   4.982   0.750   5.598 -1.5512 -0.4897 -0.4549
  186DOPC  H15C22846   4.936   0.668   5.749  1.7883 -0.8326 -0.8889
  186DOPC   C1122847   5.066   0.900   5.970 -0.0585  0.3294 -0.0181
  186DOPC  H11A22848   5.115   0.986   5.919 -0.1509 -0.6315 -1.7915
  186DOPC  H11B22849   5.070   0.932   6.077  2.7512  0.2334 -0.0430
  186DOPC     P22850   5.116   0.672   6.062 -0.2187 -0.0986  0.2106
  186DOPC   O1322851   5.190   0.545   6.023 -0.2755  0.1451 -0.2356
  186DOPC   O1422852   4.974   0.659   6.079  0.7135 -0.2547  0.4792
  186DOPC   O1222853   5.141   0.782   5.951  0.4672  0.7181 -0.3340
  186DOPC   O1122854   5.186   0.731   6.189 -0.2776  0.0852 -0.6221
  186DOPC    C122855   5.305   0.814   6.188 -0.2769  0.2816  0.1325
  186DOPC    HA22856   5.297   0.891   6.109 -1.4428  0.8150  0.7541
  186DOPC    HB22857   5.386   0.749   6.148 -1.0578 -0.3397 -0.4780
  186DOPC    C222858   5.328   0.872   6.326 -0.8275  0.2050 -0.1293
  186DOPC    HS22859   5.411   0.945   6.325  1.3133 -2.0997 -1.8021
  186DOPC   O2122860   5.355   0.772   6.422 -0.0313 -0.3366 -0.1418
  186DOPC   C2122861   5.476   0.729   6.415 -0.2440  0.6075  0.5594
  186DOPC   O2222862   5.570   0.775   6.338 -0.2905  0.1419  0.0670
  186DOPC   C2222863   5.497   0.628   6.528  0.7044  0.5751  0.4296
  186DOPC   H2R22864   5.584   0.567   6.495 -0.9345 -1.2184 -0.7797
  186DOPC   H2S22865   5.411   0.557   6.532 -1.0321  2.6177  1.4971
  186DOPC    C322866   5.214   0.950   6.383  0.1294 -0.4631  0.2651
  186DOPC    HX22867   5.118   0.895   6.385  0.7290 -1.5175  2.0553
  186DOPC    HY22868   5.199   1.036   6.314 -1.2402  0.6854  1.8850
  186DOPC   O3122869   5.234   0.996   6.523 -0.0768  0.1168  0.4380
  186DOPC   C3122870   5.135   1.060   6.586 -0.1281  0.0116 -0.3625
  186DOPC   O3222871   5.022   1.080   6.545 -0.1416 -0.1326  0.2269
  186DOPC   C3222872   5.182   1.104   6.723 -0.6519  0.3819  0.3885
  186DOPC   H2X22873   5.283   1.066   6.748  0.2722  1.5930 -1.3121
  186DOPC   H2Y22874   5.187   1.215   6.716 -0.8902  0.3225 -1.2728
  186DOPC   C2322875   5.505   0.709   6.661 -0.0251 -0.1754  0.3743
  186DOPC   H3R22876   5.416   0.774   6.679 -1.2282 -1.9254  1.0774
  186DOPC   H3S22877   5.600   0.766   6.666 -1.7000  2.8364  0.3847
  186DOPC   C2422878   5.504   0.621   6.786 -0.4707  0.5671 -0.2372
  186DOPC   H4R22879   5.573   0.536   6.767  0.9743  1.5863  0.2802
  186DOPC   H4S22880   5.402   0.577   6.791 -0.7944  0.7504 -3.3167
  186DOPC   C2522881   5.555   0.700   6.904 -0.4514  0.1635  0.7510
  186DOPC   H5R22882   5.643   0.758   6.871 -1.2399  0.7168 -0.4453
  186DOPC   H5S22883   5.576   0.630   6.988 -1.8115 -0.7829  0.3467
  186DOPC   C2622884   5.452   0.808   6.959  0.0981 -0.4803  0.1560
  186DOPC   H6R22885   5.406   0.879   6.887 -0.1968  0.6602  1.4079
  186DOPC   H6S22886   5.500   0.874   7.035  0.4475  0.0590 -0.5244
  186DOPC   C2722887   5.332   0.737   7.028 -0.0339 -0.3589 -0.0443
  186DOPC   H7R22888   5.368   0.646   7.081 -0.2806 -1.8348 -2.2611
  186DOPC   H7S22889   5.254   0.703   6.956 -1.1309  0.4528  0.7262
  186DOPC   C2822890   5.256   0.820   7.129 -0.2225 -0.6658 -0.0831
  186DOPC   H8R22891   5.203   0.895   7.066 -1.3146 -1.4570 -0.1404
  186DOPC   H8S22892   5.325   0.876   7.196 -0.9616 -1.3089  1.2562
  186DOPC   C2922893   5.136   0.763   7.204 -0.0175 -0.5074  0.5397
  186DOPC   H9R22894   5.066   0.705   7.143  1.5778 -1.3579 -0.5294
  186DOPC  C21022895   5.111   0.768   7.335  0.6817 -0.3681  0.4386
  186DOPC  H10R22896   5.021   0.722   7.377 -0.2651  0.3735 -0.7199
  186DOPC  C21122897   5.185   0.846   7.439  0.2539  0.5017 -0.5181
  186DOPC  H11R22898   5.256   0.916   7.390  0.0259 -0.1784 -1.8469
  186DOPC  H11S22899   5.260   0.785   7.494 -0.4090  1.2234  1.2901
  186DOPC  C21222900   5.089   0.934   7.532 -0.1995 -0.3515 -0.6937
  186DOPC  H12R22901   5.025   1.007   7.479 -0.3379  0.7244  0.8723
  186DOPC  H12S22902   5.158   0.985   7.603 -0.5452  0.4887 -0.9492
  186DOPC  C21322903   4.997   0.839   7.612 -1.1860 -0.1526  0.5829
  186DOPC  H13R22904   5.058   0.768   7.671 -0.3935  0.5224  0.5843
  186DOPC  H13S22905   4.925   0.785   7.547  0.0840 -0.4565 -0.5942
  186DOPC  C21422906   4.922   0.918   7.716  0.0494 -0.1550 -0.0369
  186DOPC  H14R22907   4.851   0.988   7.666  0.4300 -0.5460 -1.1700
  186DOPC  H14S22908   4.983   0.974   7.790 -0.5504 -0.2855  0.5634
  186DOPC  C21522909   4.841   0.825   7.806 -0.4068  0.3248  0.1558
  186DOPC  H15R22910   4.780   0.766   7.735 -1.7421  2.3293 -0.4322
  186DOPC  H15S22911   4.772   0.885   7.869 -0.4842 -1.0147  1.4162
  186DOPC  C21622912   4.926   0.729   7.889 -0.4052 -0.2852 -0.3391
  186DOPC  H16R22913   5.009   0.681   7.833  0.4137 -0.1975  0.7662
  186DOPC  H16S22914   4.871   0.643   7.934 -1.0282  0.2546 -0.0500
  186DOPC  C21722915   4.987   0.784   8.022 -0.0660  0.1518 -0.0801
  186DOPC  H17R22916   4.906   0.818   8.090 -0.9783  0.3690 -1.2376
  186DOPC  H17S22917   5.036   0.881   8.000 -1.7850  1.0172 -0.2937
  186DOPC  C21822918   5.085   0.693   8.101 -0.1757 -0.2818  0.6070
  186DOPC  H18R22919   5.037   0.594   8.116 -2.2180  0.2677 -1.6082
  186DOPC  H18S22920   5.123   0.732   8.198  2.3982  1.0589 -0.8458
  186DOPC  H18T22921   5.179   0.689   8.042 -2.4421  2.5828 -3.7750
  186DOPC   C3322922   5.084   1.046   6.829 -0.0028  0.0316  0.1518
  186DOPC   H3X22923   5.131   0.969   6.893  0.6384 -0.5707 -0.9976
  186DOPC   H3Y22924   4.998   0.996   6.780  0.0351 -0.3670  0.4869
  186DOPC   C3422925   5.027   1.153   6.930 -0.0764 -0.1560 -0.1048
  186DOPC   H4X22926   4.940   1.201   6.881  0.8817 -0.7082 -2.5114
  186DOPC   H4Y22927   5.115   1.218   6.951 -1.7219  2.0316  0.3386
  186DOPC   C3522928   4.959   1.093   7.060 -0.0171  0.3053  0.0564
  186DOPC   H5X22929   5.028   1.043   7.133 -1.2227 -1.5838 -0.0340
  186DOPC   H5Y22930   4.887   1.013   7.032  0.9642 -0.9440  0.9555
  186DOPC   C3622931   4.887   1.200   7.137  0.2795  0.2106 -0.1831
  186DOPC   H6X22932   4.952   1.289   7.151 -1.4122  1.3879  0.4701
  186DOPC   H6Y22933   4.791   1.229   7.090 -0.4961 -0.6110  0.8627
  186DOPC   C3722934   4.854   1.168   7.281 -0.3953 -0.3968 -0.0181
  186DOPC   H7X22935   4.951   1.139   7.327 -0.2421  1.5363  1.0142
  186DOPC   H7Y22936   4.818   1.258   7.336  1.7451 -0.5204  1.7248
  186DOPC   C3822937   4.752   1.061   7.306  0.8077 -0.0066  0.0075
  186DOPC   H8X22938   4.750   1.041   7.415  0.6690  0.6803  0.1311
  186DOPC   H8Y22939   4.784   0.963   7.263 -1.0186 -1.1261  1.1050
  186DOPC   C3922940   4.613   1.101   7.253  0.0240  0.7789 -0.8414
  186DOPC   H9X22941   4.592   1.092   7.146 -0.3780 -1.1727 -0.6365
  186DOPC  C31022942   4.513   1.147   7.332  0.2497 -0.3295 -0.4860
  186DOPC  H10X22943   4.414   1.165   7.287 -0.4186 -0.6347  0.8315
  186DOPC  C31122944   4.515   1.182   7.475 -0.0283 -0.0558  0.5918
  186DOPC  H11X22945   4.432   1.253   7.494  1.7000  1.5462  2.4581
  186DOPC  H11Y22946   4.614   1.220   7.508  0.2195  1.0526 -1.2860
  186DOPC  C31222947   4.473   1.057   7.561  0.1137  0.3710  0.7966
  186DOPC  H12X22948   4.561   0.990   7.567  0.0476  0.1338 -0.5089
  186DOPC  H12Y22949   4.387   0.997   7.523 -0.9583  1.5852  1.2465
  186DOPC  C31322950   4.435   1.098   7.699  0.2632  0.2588 -0.3325
  186DOPC  H13X22951   4.349   1.167   7.689 -0.1860 -0.0541  1.1561
  186DOPC  H13Y22952   4.382   1.017   7.753  0.6605 -0.2549 -0.7146
  186DOPC  C31422953   4.561   1.161   7.766 -0.4390 -0.7997  0.2890
  186DOPC  H14X22954   4.651   1.096   7.762  0.4661  0.3323  1.3968
  186DOPC  H14Y22955   4.596   1.251   7.712  1.3223 -1.0818  0.8880
  186DOPC  C31522956   4.535   1.198   7.914  0.9355  0.4662 -0.0306
  186DOPC  H15X22957   4.479   1.117   7.965 -0.6985  1.1111 -0.7287
  186DOPC  H15Y22958   4.472   1.290   7.910  2.5995  1.6554  0.2178
  186DOPC  C31622959   4.658   1.249   7.990 -0.7221 -0.1025  0.0987
  186DOPC  H16X22960   4.722   1.161   8.012  0.1382  0.5525  0.2526
  186DOPC  H16Y22961   4.723   1.312   7.925  0.4500  0.5345  1.8214
  186DOPC  C31722962   4.631   1.341   8.105 -0.4683  0.0530 -0.0066
  186DOPC  H17X22963   4.545   1.404   8.071 -0.5920  0.5323  1.1366
  186DOPC  H17Y22964   4.588   1.283   8.189 -1.8955 -0.6906 -1.1987
  186DOPC  C31822965   4.744   1.429   8.145 -1.0167 -0.2217 -0.0478
  186DOPC  H18X22966   4.830   1.376   8.191 -0.2478  0.5402 -0.5915
  186DOPC  H18Y22967   4.770   1.494   8.059  1.2017 -0.8914  0.0631
  186DOPC  H18Z22968   4.718   1.493   8.232  1.4366  1.6739 -0.6175
  187DOPC     N22969   4.814   6.799   6.243 -0.6334  0.0775 -0.3143
  187DOPC   C1222970   4.952   6.730   6.232 -0.1700 -0.1402  0.5803
  187DOPC  H12A22971   5.017   6.813   6.254 -1.0887  1.2457 -1.5329
  187DOPC  H12B22972   4.963   6.698   6.129  0.5459  2.0058 -0.0512
  187DOPC   C1322973   4.803   6.919   6.156  0.4791 -0.5110 -0.4317
  187DOPC  H13A22974   4.707   6.965   6.172  0.7557 -0.3877  0.9972
  187DOPC  H13B22975   4.874   6.997   6.181  1.0405 -0.4461 -2.0909
  187DOPC  H13C22976   4.815   6.899   6.050 -1.8416 -0.4088 -0.7615
  187DOPC   C1422977   4.781   6.847   6.382 -0.4489  0.2235  0.8004
  187DOPC  H14A22978   4.857   6.911   6.425  0.8945 -0.4019 -0.5804
  187DOPC  H14B22979   4.689   6.903   6.384 -0.5854  0.1723 -1.5424
  187DOPC  H14C22980   4.764   6.762   6.447  1.4011 -2.3935 -1.8631
  187DOPC   C1522981   4.703   6.706   6.195  0.6035 -0.7394  0.3463
  187DOPC  H15A22982   4.704   6.613   6.249 -2.2280 -0.5315  0.8743
  187DOPC  H15B22983   4.729   6.691   6.092  3.9922  1.1694  0.7591
  187DOPC  H15C22984   4.612   6.763   6.202  0.8967 -0.2675  0.4192
  187DOPC   C1122985   4.977   6.609   6.330  0.0699 -0.1612 -0.1366
  187DOPC  H11A22986   5.086   6.593   6.341  0.0325 -1.7580 -1.6515
  187DOPC  H11B22987   4.929   6.633   6.427 -1.2803  1.5875 -1.1793
  187DOPC     P22988   4.841   6.378   6.370 -0.2292  0.4765 -0.1384
  187DOPC   O1322989   4.887   6.252   6.307  0.1901 -0.5750  0.0592
  187DOPC   O1422990   4.701   6.411   6.355  0.1878  0.2250 -0.5873
  187DOPC   O1222991   4.912   6.492   6.284 -0.3559 -0.5130  0.3298
  187DOPC   O1122992   4.891   6.400   6.517  0.2104  0.2523  0.3144
  187DOPC    C122993   4.990   6.310   6.563  0.3040  0.0268  0.0685
  187DOPC    HA22994   5.052   6.342   6.650  0.2734 -0.1422  0.1531
  187DOPC    HB22995   5.067   6.299   6.484  1.1824 -0.0585  0.9191
  187DOPC    C222996   4.936   6.175   6.610  0.4603  0.9630  0.3291
  187DOPC    HS22997   4.871   6.141   6.527  1.0968 -0.2631  0.3110
  187DOPC   O2122998   4.856   6.182   6.730 -0.3390 -0.2368 -0.6671
  187DOPC   C2122999   4.774   6.079   6.750  0.0683 -0.2708 -0.2552
  187DOPC   O2223000   4.772   5.980   6.675  0.5042  0.2167 -0.2825
  187DOPC   C2223001   4.699   6.087   6.881 -0.3350 -0.0141  0.1298
  187DOPC   H2R23002   4.621   6.009   6.892  1.2464 -1.5547  0.7778
  187DOPC   H2S23003   4.650   6.186   6.888 -2.1643 -0.7419 -1.4230
  187DOPC    C323004   5.059   6.082   6.632  0.4218  0.0982  0.6447
  187DOPC    HX23005   5.099   6.059   6.531  0.7774  1.9568  0.3190
  187DOPC    HY23006   5.022   5.986   6.674 -1.5354  0.4902 -0.0446
  187DOPC   O3123007   5.161   6.152   6.719 -0.1740 -0.7929 -0.1886
  187DOPC   C3123008   5.189   6.095   6.834 -0.8283  0.3388 -0.3623
  187DOPC   O3223009   5.147   5.990   6.875 -0.3669  0.2266  0.5206
  187DOPC   C3223010   5.299   6.175   6.914  0.0382  0.1321 -0.2680
  187DOPC   H2X23011   5.396   6.146   6.867  1.2627  2.5574  0.5542
  187DOPC   H2Y23012   5.274   6.283   6.911 -1.5009 -0.1411  1.2817
  187DOPC   C2323013   4.794   6.072   7.002  0.3829  0.1578 -0.4293
  187DOPC   H3R23014   4.858   6.163   7.004 -1.5052  1.5582  1.6863
  187DOPC   H3S23015   4.857   5.983   6.982 -0.3998 -0.0344 -2.1712
  187DOPC   C2423016   4.724   6.047   7.139  0.5458 -0.4337 -0.1619
  187DOPC   H4R23017   4.805   6.025   7.212  0.6872 -2.0149 -0.7482
  187DOPC   H4S23018   4.662   5.954   7.139  1.2806 -0.9343 -0.5372
  187DOPC   C2523019   4.636   6.168   7.175  0.8531  0.6130 -0.2093
  187DOPC   H5R23020   4.556   6.178   7.099  1.2435 -0.8327 -0.8532
  187DOPC   H5S23021   4.699   6.259   7.170 -0.9844  1.9756  0.5750
  187DOPC   C2623022   4.577   6.167   7.314 -0.1984  0.2833 -0.5506
  187DOPC   H6R23023   4.533   6.068   7.339  3.9756 -1.4338  0.7909
  187DOPC   H6S23024   4.498   6.246   7.317 -0.9656 -0.4829  0.8589
  187DOPC   C2723025   4.682   6.174   7.424  0.5529 -0.7618  0.3122
  187DOPC   H7R23026   4.757   6.255   7.407  1.3175 -1.6814 -0.8372
  187DOPC   H7S23027   4.752   6.088   7.425  2.0430  0.3297  3.3648
  187DOPC   C2823028   4.617   6.189   7.559  0.4563 -0.3767  0.0545
  187DOPC   H8R23029   4.549   6.276   7.547  0.5686 -0.4362 -1.0581
  187DOPC   H8S23030   4.702   6.210   7.628  0.5874  1.4263 -0.6017
  187DOPC   C2923031   4.535   6.065   7.591  0.2620 -0.0038 -0.5365
  187DOPC   H9R23032   4.511   5.998   7.508  3.0033  0.1541 -1.5635
  187DOPC  C21023033   4.523   6.015   7.715  0.2656 -0.8393 -0.1147
  187DOPC  H10R23034   4.475   5.917   7.728 -0.5530 -0.4308 -0.0028
  187DOPC  C21123035   4.581   6.078   7.838 -0.8154 -0.5820  0.1399
  187DOPC  H11R23036   4.518   6.067   7.929  3.2727 -3.0873  3.0545
  187DOPC  H11S23037   4.619   6.182   7.825 -0.6787 -0.7349 -0.7303
  187DOPC  C21223038   4.713   5.999   7.884 -0.7545 -1.0095 -0.4626
  187DOPC  H12R23039   4.783   6.012   7.799 -0.0934 -0.7969  0.0980
  187DOPC  H12S23040   4.681   5.894   7.904 -1.3613 -0.7463 -0.0064
  187DOPC  C21323041   4.769   6.051   8.014  0.2055 -0.2184  0.4430
  187DOPC  H13R23042   4.691   6.026   8.088  0.0049 -0.8434  0.0328
  187DOPC  H13S23043   4.759   6.161   8.016 -2.1826 -0.4130  2.0740
  187DOPC  C21423044   4.907   5.991   8.068  0.6756 -0.8683  0.5969
  187DOPC  H14R23045   4.936   6.047   8.160  1.3305  0.0666 -0.1626
  187DOPC  H14S23046   4.984   6.011   7.991  1.7540  0.7482  2.0248
  187DOPC  C21523047   4.898   5.841   8.100  0.3824  0.0390  0.0360
  187DOPC  H15R23048   4.876   5.804   7.998 -0.3779  0.8771 -0.1237
  187DOPC  H15S23049   4.798   5.824   8.146 -0.2298 -0.3570 -1.3899
  187DOPC  C21623050   5.013   5.783   8.179 -0.8005  0.2527 -0.0946
  187DOPC  H16R23051   5.111   5.805   8.132  0.7222 -3.0515  1.2008
  187DOPC  H16S23052   5.001   5.673   8.171  0.1585  0.2155 -1.3328
  187DOPC  C21723053   5.024   5.811   8.330  0.7707  0.2371 -0.6322
  187DOPC  H17R23054   5.022   5.922   8.327 -0.9230  0.2106 -2.4004
  187DOPC  H17S23055   5.122   5.779   8.373  0.7536  0.5864 -0.3282
  187DOPC  C21823056   4.905   5.765   8.416  0.6045 -0.2082 -0.6794
  187DOPC  H18R23057   4.898   5.813   8.516 -0.8181 -0.6385 -0.5370
  187DOPC  H18S23058   4.908   5.655   8.435  1.7142 -0.2510 -1.0383
  187DOPC  H18T23059   4.804   5.781   8.372 -1.3905 -1.7500  2.9087
  187DOPC   C3323060   5.309   6.144   7.066 -0.0344  0.2836  0.3945
  187DOPC   H3X23061   5.406   6.181   7.104  0.3668  0.5136 -0.8290
  187DOPC   H3Y23062   5.305   6.035   7.087  0.2580 -0.0104 -0.9794
  187DOPC   C3423063   5.197   6.211   7.152 -0.1842 -0.0282 -0.0117
  187DOPC   H4X23064   5.103   6.208   7.094 -0.8229  0.1884  0.9896
  187DOPC   H4Y23065   5.226   6.317   7.167  1.4703 -0.9021  4.7417
  187DOPC   C3523066   5.168   6.159   7.292  0.2017  0.5732  0.1443
  187DOPC   H5X23067   5.092   6.232   7.326  0.8168  1.3240 -0.0481
  187DOPC   H5Y23068   5.255   6.143   7.360 -0.8104 -1.7316  1.0047
  187DOPC   C3623069   5.098   6.020   7.286  0.1274 -0.0806 -0.7376
  187DOPC   H6X23070   5.031   6.010   7.199 -1.1823 -1.5689  0.3901
  187DOPC   H6Y23071   5.180   5.948   7.264 -0.1029 -0.8826  0.8621
  187DOPC   C3723072   5.026   5.988   7.416 -0.3493  0.5499  0.0275
  187DOPC   H7X23073   5.094   5.995   7.504  1.5615 -3.1006 -0.9378
  187DOPC   H7Y23074   4.950   6.067   7.433 -0.3546  0.2932  1.3821
  187DOPC   C3823075   4.968   5.841   7.424 -0.3148 -0.5865  0.5976
  187DOPC   H8X23076   5.052   5.770   7.408 -1.1703 -1.6651  0.7912
  187DOPC   H8Y23077   4.900   5.820   7.338  0.9539 -1.5922 -0.1875
  187DOPC   C3923078   4.887   5.832   7.553 -0.6585  0.6073  0.7184
  187DOPC   H9X23079   4.783   5.868   7.546 -0.7591  0.2422  0.2566
  187DOPC  C31023080   4.926   5.788   7.671 -0.2211  0.6452  0.2476
  187DOPC  H10X23081   4.866   5.812   7.761 -0.9192  2.2140 -0.5941
  187DOPC  C31123082   5.061   5.743   7.722  0.2385 -0.0232 -0.2133
  187DOPC  H11X23083   5.101   5.821   7.789 -0.7195  1.1368 -0.9406
  187DOPC  H11Y23084   5.126   5.735   7.632 -1.3002 -1.0288 -1.3014
  187DOPC  C31223085   5.068   5.600   7.778 -0.2678  0.2291 -0.2081
  187DOPC  H12X23086   5.031   5.523   7.706  0.7163 -1.6160  1.1916
  187DOPC  H12Y23087   5.000   5.598   7.866  0.6811  0.8143  0.5461
  187DOPC  C31323088   5.210   5.557   7.836  0.0082 -0.2689  0.1853
  187DOPC  H13X23089   5.281   5.569   7.752  0.6544  1.3062  0.9270
  187DOPC  H13Y23090   5.234   5.622   7.922 -1.1601  1.6361 -0.8696
  187DOPC  C31423091   5.202   5.409   7.884  0.6972 -0.5660  0.0658
  187DOPC  H14X23092   5.122   5.401   7.960 -0.3468 -0.5114 -1.0004
  187DOPC  H14Y23093   5.176   5.340   7.801 -2.5815  1.4059 -0.7152
  187DOPC  C31523094   5.325   5.361   7.959  0.0174 -0.4515 -1.0418
  187DOPC  H15X23095   5.312   5.251   7.974  0.9100 -0.2127  2.1099
  187DOPC  H15Y23096   5.340   5.414   8.055  0.9792 -1.5526 -0.5462
  187DOPC  C31623097   5.453   5.398   7.887 -0.5314 -0.2244  0.5191
  187DOPC  H16X23098   5.458   5.509   7.875  0.7556 -0.4077 -1.0491
  187DOPC  H16Y23099   5.534   5.361   7.953  1.0075 -1.1282 -1.7506
  187DOPC  C31723100   5.468   5.322   7.755 -0.2123  0.3797  0.0386
  187DOPC  H17X23101   5.394   5.241   7.771  0.4263 -0.1645  0.2663
  187DOPC  H17Y23102   5.448   5.388   7.668  1.3503  0.2693 -0.4216
  187DOPC  C31823103   5.596   5.246   7.738 -1.3118  0.5016  0.0293
  187DOPC  H18X23104   5.581   5.178   7.652 -0.5099  1.8183 -1.1826
  187DOPC  H18Y23105   5.683   5.311   7.719 -2.5197  1.7557 -1.4664
  187DOPC  H18Z23106   5.614   5.184   7.829  1.2569 -0.2496 -0.9193
  188DOPC     N23107   0.857   7.556   6.104 -0.1389  0.1682  0.0795
  188DOPC   C1223108   0.797   7.686   6.163 -0.6485  0.3886  0.1834
  188DOPC  H12A23109   0.772   7.757   6.086  0.4320  0.7888  0.1832
  188DOPC  H12B23110   0.873   7.740   6.219 -0.8546 -0.5925  1.4642
  188DOPC   C1323111   0.946   7.602   5.994 -0.2344  0.3485 -0.0388
  188DOPC  H13A23112   0.995   7.521   5.942  1.9424  1.0712  0.7699
  188DOPC  H13B23113   0.893   7.660   5.920 -2.3216 -0.9619  0.3180
  188DOPC  H13C23114   1.034   7.659   6.019  0.9211  1.2119 -4.9902
  188DOPC   C1423115   0.738   7.468   6.060 -0.0047  0.5046 -0.4744
  188DOPC  H14A23116   0.667   7.448   6.138 -1.2077  2.3092 -1.0450
  188DOPC  H14B23117   0.683   7.523   5.985  0.1122  0.2181 -0.7744
  188DOPC  H14C23118   0.775   7.380   6.009 -0.8004  0.0813 -0.3356
  188DOPC   C1523119   0.930   7.484   6.206 -0.2121  0.1055  0.1391
  188DOPC  H15A23120   0.988   7.400   6.172  1.0799  0.5539  1.1344
  188DOPC  H15B23121   0.882   7.460   6.300 -0.5221  1.4614  0.3452
  188DOPC  H15C23122   1.010   7.548   6.241 -0.8282 -0.8257  3.7134
  188DOPC   C1123123   0.687   7.667   6.263 -0.1934 -0.2307 -1.0819
  188DOPC  H11A23124   0.670   7.770   6.302 -0.1233 -0.7338  0.3298
  188DOPC  H11B23125   0.591   7.635   6.218 -0.7458 -0.7179  0.3736
  188DOPC     P23126   0.617   7.537   6.476 -0.2928  0.3389 -0.3331
  188DOPC   O1323127   0.678   7.434   6.565  0.1066 -0.5479 -0.4163
  188DOPC   O1423128   0.488   7.507   6.403 -0.3134  0.0507 -0.3841
  188DOPC   O1223129   0.726   7.589   6.378 -0.4589  0.0194  0.1918
  188DOPC   O1123130   0.573   7.667   6.558 -0.5251 -0.4567  0.1075
  188DOPC    C123131   0.668   7.771   6.593 -0.1654 -0.1341 -0.2869
  188DOPC    HA23132   0.613   7.858   6.635  1.2153  0.4194  0.4358
  188DOPC    HB23133   0.724   7.806   6.504 -0.2322  0.9219  0.0690
  188DOPC    C223134   0.756   7.744   6.716  0.1073  0.4543  0.3835
  188DOPC    HS23135   0.830   7.671   6.676 -2.0517 -0.5388 -2.0609
  188DOPC   O2123136   0.681   7.684   6.835  0.4814 -0.5749 -0.7019
  188DOPC   C2123137   0.760   7.597   6.907 -0.0963  0.6210 -0.0814
  188DOPC   O2223138   0.859   7.551   6.859  0.1905 -0.0469 -0.7544
  188DOPC   C2223139   0.691   7.554   7.029 -0.0338  0.4592  0.0210
  188DOPC   H2R23140   0.617   7.477   6.999  0.0307  0.6569 -0.6510
  188DOPC   H2S23141   0.640   7.646   7.066  0.2111  0.6812 -0.1955
  188DOPC    C323142   0.842   7.864   6.760  0.0281 -0.4018  0.3501
  188DOPC    HX23143   0.885   7.898   6.664 -0.3363 -0.0969  0.2955
  188DOPC    HY23144   0.921   7.829   6.830  0.9245  2.6509  0.9879
  188DOPC   O3123145   0.764   7.973   6.810 -0.1023  0.4138 -0.0729
  188DOPC   C3123146   0.762   7.986   6.939 -0.0471 -0.4376  0.1295
  188DOPC   O3223147   0.803   7.907   7.018 -0.7454  0.2584 -0.4289
  188DOPC   C3223148   0.718   8.129   6.972 -0.1641 -0.4331  0.7668
  188DOPC   H2X23149   0.797   8.196   6.931 -0.3865 -0.3279  0.5048
  188DOPC   H2Y23150   0.623   8.159   6.922 -0.7153 -1.6437  1.0568
  188DOPC   C2323151   0.796   7.502   7.135  0.6348 -0.0922  0.2445
  188DOPC   H3R23152   0.860   7.588   7.165  1.1064  0.4580 -2.1339
  188DOPC   H3S23153   0.853   7.417   7.093 -2.0099 -1.8694  0.0268
  188DOPC   C2423154   0.718   7.449   7.264  0.2645  0.0165  0.9206
  188DOPC   H4R23155   0.761   7.350   7.291 -0.3931 -1.0157 -1.5145
  188DOPC   H4S23156   0.613   7.438   7.231 -0.2745  2.3847  1.6618
  188DOPC   C2523157   0.739   7.550   7.379  1.2780 -0.1480  0.3059
  188DOPC   H5R23158   0.679   7.643   7.363  0.2123 -1.0928 -1.4891
  188DOPC   H5S23159   0.847   7.566   7.396  1.3408  0.3258 -0.5002
  188DOPC   C2623160   0.693   7.485   7.514 -0.0916 -0.0102 -0.1762
  188DOPC   H6R23161   0.738   7.390   7.549 -0.4426 -0.1171 -0.0110
  188DOPC   H6S23162   0.584   7.464   7.515 -0.3022  0.9519  1.6753
  188DOPC   C2723163   0.722   7.590   7.628 -0.0775 -0.1861 -0.5104
  188DOPC   H7R23164   0.707   7.690   7.583 -1.1001  1.0003  2.2360
  188DOPC   H7S23165   0.827   7.588   7.663  0.0646  0.0379 -0.9182
  188DOPC   C2823166   0.621   7.581   7.745 -0.8375 -1.1114  0.0660
  188DOPC   H8R23167   0.620   7.477   7.784  0.7830 -0.2679  2.5818
  188DOPC   H8S23168   0.523   7.612   7.702  0.4025  2.2026 -0.6745
  188DOPC   C2923169   0.660   7.676   7.848 -0.3655 -0.3215  0.0909
  188DOPC   H9R23170   0.721   7.759   7.811  0.0196 -0.7094 -0.1606
  188DOPC  C21023171   0.645   7.664   7.982  0.1146  0.0120  0.2183
  188DOPC  H10R23172   0.697   7.731   8.052  1.0260 -1.0851  0.6329
  188DOPC  C21123173   0.581   7.541   8.040  0.8383  0.9511  0.1504
  188DOPC  H11R23174   0.632   7.459   7.985 -0.0112 -2.3956  3.8647
  188DOPC  H11S23175   0.471   7.542   8.025  0.7745 -1.6379 -0.0255
  188DOPC  C21223176   0.608   7.508   8.185 -0.8834  0.2933  0.0538
  188DOPC  H12R23177   0.552   7.414   8.205 -2.7262  0.6613 -2.7500
  188DOPC  H12S23178   0.571   7.587   8.254 -0.4497  0.4751  0.0819
  188DOPC  C21323179   0.759   7.479   8.206  0.6677 -0.4837 -0.5526
  188DOPC  H13R23180   0.818   7.560   8.158  0.1214  1.9875  2.5772
  188DOPC  H13S23181   0.777   7.388   8.146  2.0975 -0.5112 -0.1041
  188DOPC  C21423182   0.802   7.451   8.350 -0.9718 -0.0134  0.1808
  188DOPC  H14R23183   0.772   7.349   8.384 -1.9756  0.5830  1.1335
  188DOPC  H14S23184   0.741   7.521   8.410 -2.3744 -0.2830 -0.8674
  188DOPC  C21523185   0.946   7.480   8.383 -0.0529  0.4152  0.0579
  188DOPC  H15R23186   0.970   7.584   8.350 -2.1796  1.2835  1.0547
  188DOPC  H15S23187   1.017   7.405   8.343 -0.1441 -0.0754  0.7887
  188DOPC  C21623188   0.978   7.483   8.543 -0.3479  0.1336 -0.4330
  188DOPC  H16R23189   0.951   7.381   8.577 -0.1562  1.0012  2.5908
  188DOPC  H16S23190   0.905   7.560   8.578 -0.4935  1.1989 -2.8708
  188DOPC  C21723191   1.125   7.518   8.567 -0.4066  0.4877  0.6444
  188DOPC  H17R23192   1.140   7.625   8.544  1.3152  0.4435  1.4053
  188DOPC  H17S23193   1.188   7.454   8.501  0.0160  0.5882  0.9424
  188DOPC  C21823194   1.171   7.490   8.710  0.1514  0.5077 -1.0564
  188DOPC  H18R23195   1.115   7.412   8.766  0.9802  1.5946  1.4439
  188DOPC  H18S23196   1.133   7.581   8.761 -1.1782 -1.2604  1.3633
  188DOPC  H18T23197   1.281   7.490   8.727  0.0498 -2.0218  0.1379
  188DOPC   C3323198   0.704   8.164   7.120 -0.5514 -0.0907 -0.0617
  188DOPC   H3X23199   0.792   8.116   7.168  0.1176 -1.8777 -2.8528
  188DOPC   H3Y23200   0.611   8.117   7.160 -1.3358  0.5333 -1.1348
  188DOPC   C3423201   0.709   8.317   7.149  0.5209  0.0885 -0.3942
  188DOPC   H4X23202   0.604   8.353   7.141  0.3348 -0.7448 -2.5461
  188DOPC   H4Y23203   0.765   8.372   7.070  2.7532 -1.8213 -0.2277
  188DOPC   C3523204   0.764   8.341   7.288  0.7822  0.3457 -0.1902
  188DOPC   H5X23205   0.789   8.449   7.297  2.8455 -0.2106  1.5588
  188DOPC   H5Y23206   0.860   8.286   7.295  1.1133  0.7447 -1.3211
  188DOPC   C3623207   0.671   8.300   7.397 -0.0851  0.0280  0.4856
  188DOPC   H6X23208   0.564   8.327   7.386 -0.0843  1.4971  3.2298
  188DOPC   H6Y23209   0.669   8.189   7.406 -2.4719  0.0144  0.4874
  188DOPC   C3723210   0.710   8.348   7.532 -0.3931 -0.0877 -0.9946
  188DOPC   H7X23211   0.809   8.306   7.560  0.0030  1.5581  0.2256
  188DOPC   H7Y23212   0.728   8.457   7.519 -1.2939  0.5086  2.0687
  188DOPC   C3823213   0.626   8.321   7.653 -0.1714  0.1638 -0.0618
  188DOPC   H8X23214   0.532   8.375   7.628 -1.2499 -0.5285  2.2218
  188DOPC   H8Y23215   0.672   8.364   7.745 -2.0056  2.0815  0.0358
  188DOPC   C3923216   0.578   8.180   7.674 -0.3121  0.3872  0.0785
  188DOPC   H9X23217   0.571   8.122   7.581 -2.3831  1.4224 -0.4613
  188DOPC  C31023218   0.540   8.127   7.793 -0.8409 -0.4440 -0.1013
  188DOPC  H10X23219   0.522   8.019   7.799  0.1462 -0.5602  1.2359
  188DOPC  C31123220   0.555   8.201   7.924  0.0239 -0.3808  0.2035
  188DOPC  H11X23221   0.486   8.161   8.001  0.7032 -1.7448  0.1406
  188DOPC  H11Y23222   0.528   8.309   7.917 -0.4476 -0.6127 -2.3515
  188DOPC  C31223223   0.705   8.190   7.976 -0.4648  0.4770 -0.5479
  188DOPC  H12X23224   0.784   8.226   7.907 -1.6404  2.0144 -1.1721
  188DOPC  H12Y23225   0.720   8.081   7.990 -0.9588  0.6159  1.3257
  188DOPC  C31323226   0.720   8.269   8.110 -0.1878 -0.2605  0.3370
  188DOPC  H13X23227   0.626   8.275   8.169  0.7142  1.5978  1.7083
  188DOPC  H13Y23228   0.795   8.212   8.169 -0.0654  1.1482  1.5974
  188DOPC  C31423229   0.762   8.409   8.086  0.8693  0.2757  0.3850
  188DOPC  H14X23230   0.862   8.406   8.038  0.8227 -0.5580  0.3204
  188DOPC  H14Y23231   0.694   8.450   8.009  0.3073 -2.2537 -0.5619
  188DOPC  C31523232   0.783   8.488   8.215 -0.0660 -0.0484 -0.4399
  188DOPC  H15X23233   0.836   8.428   8.292 -0.5401  0.3963  0.2521
  188DOPC  H15Y23234   0.687   8.513   8.265 -0.1985 -0.2864 -0.5743
  188DOPC  C31623235   0.871   8.616   8.188 -0.0510  0.3412  0.1681
  188DOPC  H16X23236   0.958   8.588   8.126 -0.1883 -0.1581  0.1982
  188DOPC  H16Y23237   0.806   8.685   8.129  1.6939  2.0699  0.1667
  188DOPC  C31723238   0.924   8.684   8.316 -0.8214 -0.3936  0.0152
  188DOPC  H17X23239   0.927   8.795   8.306 -0.4570 -0.4039 -0.0139
  188DOPC  H17Y23240   0.857   8.664   8.402 -1.9020  0.0104 -0.7099
  188DOPC  C31823241   1.069   8.652   8.360  0.4154  0.2380  0.1130
  188DOPC  H18X23242   1.099   8.731   8.432 -1.6641  0.7332  0.4969
  188DOPC  H18Y23243   1.081   8.549   8.400  1.4395  1.3789  2.9896
  188DOPC  H18Z23244   1.138   8.648   8.273  0.1468  1.4410 -0.1833
  189DOPC     N23245   2.416   0.349   6.338  0.1243  0.7792  0.7178
  189DOPC   C1223246   2.476   0.246   6.429 -0.1554  0.6127  0.4391
  189DOPC  H12A23247   2.504   0.162   6.366  1.2530  1.2994  0.1137
  189DOPC  H12B23248   2.401   0.210   6.498  0.6075 -0.3000  0.8250
  189DOPC   C1323249   2.517   0.392   6.235 -0.3197  0.0077 -0.7151
  189DOPC  H13A23250   2.546   0.307   6.176 -0.6904 -0.4440 -0.2506
  189DOPC  H13B23251   2.474   0.476   6.182  0.1186 -1.6643 -3.9434
  189DOPC  H13C23252   2.607   0.431   6.282 -0.2343 -0.8833 -0.1140
  189DOPC   C1423253   2.392   0.476   6.419 -0.6790  0.7568  0.4085
  189DOPC  H14A23254   2.485   0.512   6.460  0.0631 -0.3058 -0.3144
  189DOPC  H14B23255   2.336   0.550   6.363 -0.1193  1.1686  0.3864
  189DOPC  H14C23256   2.333   0.444   6.504  0.9590 -1.0827  0.9177
  189DOPC   C1523257   2.295   0.303   6.273  0.3996  0.1426  0.4498
  189DOPC  H15A23258   2.241   0.381   6.221  5.3669  2.0257 -2.5448
  189DOPC  H15B23259   2.228   0.255   6.342 -0.9781 -1.0944 -1.6459
  189DOPC  H15C23260   2.309   0.224   6.201 -0.7725 -0.2210  0.6031
  189DOPC   C1123261   2.600   0.279   6.515 -0.5697  0.0519  0.7193
  189DOPC  H11A23262   2.580   0.355   6.593 -0.7524 -0.8790  1.6030
  189DOPC  H11B23263   2.636   0.192   6.574 -1.1703 -0.3912  0.4477
  189DOPC     P23264   2.794   0.446   6.477 -0.7017  0.0856  0.2890
  189DOPC   O1323265   2.700   0.553   6.512 -0.0543  0.1662  0.0014
  189DOPC   O1423266   2.884   0.475   6.360 -0.7220  0.1557  0.1400
  189DOPC   O1223267   2.703   0.324   6.426 -0.5246 -0.4104  0.0917
  189DOPC   O1123268   2.869   0.388   6.600  0.8936  0.5136  0.2805
  189DOPC    C123269   2.916   0.254   6.607 -0.2654 -0.5386 -0.2759
  189DOPC    HA23270   3.009   0.248   6.546 -0.6662 -1.2617 -0.8267
  189DOPC    HB23271   2.842   0.180   6.571 -1.3733  0.5760 -0.3709
  189DOPC    C223272   2.957   0.233   6.759  0.0294  0.1841  0.0990
  189DOPC    HS23273   3.018   0.319   6.791 -0.4540  0.4206  0.3896
  189DOPC   O2123274   3.021   0.103   6.768 -0.7151  0.2589 -0.1250
  189DOPC   C2123275   3.122   0.098   6.849  0.5313 -0.6216 -0.4704
  189DOPC   O2223276   3.154   0.189   6.924  0.2950  0.0086 -0.2245
  189DOPC   C2223277   3.178  -0.041   6.850 -0.1194  0.3685  0.0151
  189DOPC   H2R23278   3.250  -0.046   6.766 -1.7436  1.8677 -1.5608
  189DOPC   H2S23279   3.094  -0.114   6.839  2.2770 -2.5361 -0.3220
  189DOPC    C323280   2.834   0.228   6.856  0.0623 -0.3376 -0.0610
  189DOPC    HX23281   2.875   0.206   6.957 -1.5152 -1.8137  0.3033
  189DOPC    HY23282   2.768   0.143   6.826  0.3480 -0.8382  0.6928
  189DOPC   O3123283   2.757   0.349   6.848  0.6414 -0.0566  0.7495
  189DOPC   C3123284   2.791   0.452   6.925 -0.4011 -0.2073  0.6074
  189DOPC   O3223285   2.896   0.467   6.985 -0.0734  0.4609  0.3539
  189DOPC   C3223286   2.682   0.557   6.915  0.1757  0.4999  0.2156
  189DOPC   H2X23287   2.690   0.590   6.809 -0.2741  1.4256  0.4680
  189DOPC   H2Y23288   2.582   0.512   6.933  1.2838 -1.8892  0.7935
  189DOPC   C2323289   3.257  -0.082   6.979 -0.0797  0.2433  0.5512
  189DOPC   H3R23290   3.332  -0.000   6.988  0.7831 -0.5173  0.3259
  189DOPC   H3S23291   3.308  -0.180   6.968 -1.2766 -0.2620 -0.9216
  189DOPC   C2423292   3.170  -0.079   7.107  0.2255  0.2590 -0.0170
  189DOPC   H4R23293   3.094   0.002   7.105 -0.6559 -0.4381  2.4677
  189DOPC   H4S23294   3.237  -0.056   7.193  1.3375 -1.4897 -0.3672
  189DOPC   C2523295   3.105  -0.212   7.142 -0.1088 -0.0751 -0.0604
  189DOPC   H5R23296   3.179  -0.292   7.162  1.9758  2.0016  0.9343
  189DOPC   H5S23297   3.042  -0.236   7.053 -0.6788  0.4045  0.2118
  189DOPC   C2623298   3.010  -0.204   7.265  0.3804  0.8905  0.1274
  189DOPC   H6R23299   2.922  -0.138   7.245  0.5120  1.5504  1.6209
  189DOPC   H6S23300   3.077  -0.179   7.350  1.3939 -1.4524  0.0949
  189DOPC   C2723301   2.941  -0.342   7.313 -0.4751  0.0422  0.9204
  189DOPC   H7R23302   3.024  -0.416   7.322  1.6824  2.1505 -0.4045
  189DOPC   H7S23303   2.873  -0.361   7.228 -0.4306  3.0330  0.1115
  189DOPC   C2823304   2.870  -0.330   7.449 -0.5738 -0.9082  0.0537
  189DOPC   H8R23305   2.804  -0.419   7.452  0.8499 -2.0127 -0.1222
  189DOPC   H8S23306   2.804  -0.244   7.428 -1.1334 -1.4930 -0.6505
  189DOPC   C2923307   2.946  -0.309   7.573  0.2726 -0.0324  0.0563
  189DOPC   H9R23308   3.042  -0.257   7.559 -0.7815  1.4941 -2.0775
  189DOPC  C21023309   2.936  -0.360   7.695  0.3015  0.0951 -0.6001
  189DOPC  H10R23310   3.001  -0.318   7.773 -1.9396 -1.3074  2.1973
  189DOPC  C21123311   2.829  -0.451   7.749 -0.4014 -0.0219  0.4020
  189DOPC  H11R23312   2.872  -0.553   7.759 -3.7264 -1.3238  3.4070
  189DOPC  H11S23313   2.745  -0.456   7.676 -0.1652  0.4911  0.0919
  189DOPC  C21223314   2.774  -0.401   7.885  0.2518 -0.0998  0.1490
  189DOPC  H12R23315   2.865  -0.411   7.949 -0.2837 -1.3203  0.7656
  189DOPC  H12S23316   2.700  -0.476   7.920  0.8528 -1.2369 -0.9479
  189DOPC  C21323317   2.707  -0.262   7.886 -0.0085 -1.1814  0.0441
  189DOPC  H13R23318   2.626  -0.255   7.810 -1.8223 -3.3608  1.6361
  189DOPC  H13S23319   2.779  -0.189   7.842  0.8847 -0.4711  2.5263
  189DOPC  C21423320   2.645  -0.223   8.015 -0.1721 -0.0410 -0.1775
  189DOPC  H14R23321   2.708  -0.209   8.105 -1.7629 -0.7005  1.0915
  189DOPC  H14S23322   2.552  -0.279   8.039 -0.3487  1.2081  2.3437
  189DOPC  C21523323   2.586  -0.078   8.012  0.3172  0.1045  0.2324
  189DOPC  H15R23324   2.504  -0.087   7.938  0.8924 -1.4522 -0.2478
  189DOPC  H15S23325   2.655   0.003   7.980 -0.6607  1.3994  1.2420
  189DOPC  C21623326   2.526  -0.027   8.153 -0.0913  0.0474  0.4495
  189DOPC  H16R23327   2.616  -0.018   8.218  0.6606  0.7906 -0.6531
  189DOPC  H16S23328   2.457  -0.109   8.184  1.8425 -1.9933 -0.3295
  189DOPC  C21723329   2.458   0.109   8.147  0.1108 -0.0984 -0.5296
  189DOPC  H17R23330   2.365   0.115   8.086  1.2657  2.3655 -2.2344
  189DOPC  H17S23331   2.527   0.181   8.098  0.9598 -0.2209  0.4471
  189DOPC  C21823332   2.419   0.170   8.287  0.0711  0.0679 -0.2664
  189DOPC  H18R23333   2.387   0.276   8.275  0.8093  0.5067  1.3461
  189DOPC  H18S23334   2.501   0.156   8.360  0.1946 -1.6620 -0.6861
  189DOPC  H18T23335   2.326   0.120   8.320  0.0816 -0.2250 -0.6694
  189DOPC   C3323336   2.706   0.682   6.995 -0.2829 -0.5519 -0.8435
  189DOPC   H3X23337   2.625   0.752   6.968  0.9854  2.4494  2.2831
  189DOPC   H3Y23338   2.797   0.738   6.968  0.4531 -0.9490  0.6604
  189DOPC   C3423339   2.712   0.658   7.147  0.2779  0.7772 -0.3640
  189DOPC   H4X23340   2.811   0.610   7.165  0.3461  1.4096  1.0326
  189DOPC   H4Y23341   2.630   0.591   7.179  1.3869 -0.1684  0.5872
  189DOPC   C3523342   2.720   0.781   7.235 -0.1191 -0.0253 -0.3743
  189DOPC   H5X23343   2.653   0.858   7.189 -0.9826  1.5986  3.2499
  189DOPC   H5Y23344   2.817   0.824   7.267 -0.5372  0.5512  0.1399
  189DOPC   C3623345   2.636   0.754   7.359 -0.2827  0.1443 -0.2857
  189DOPC   H6X23346   2.636   0.857   7.400 -0.3231  0.2505 -0.5460
  189DOPC   H6Y23347   2.530   0.722   7.348 -0.1397 -0.2321 -0.6330
  189DOPC   C3723348   2.705   0.656   7.457  0.4962  0.2975 -0.0103
  189DOPC   H7X23349   2.699   0.557   7.408 -4.3133  0.8535 -1.0085
  189DOPC   H7Y23350   2.813   0.685   7.461  0.4572  0.2774  1.4437
  189DOPC   C3823351   2.642   0.664   7.596  0.0373 -0.3200 -0.1412
  189DOPC   H8X23352   2.533   0.645   7.594 -0.1638  0.7146  0.2871
  189DOPC   H8Y23353   2.647   0.768   7.636  4.8473 -0.6103  0.6111
  189DOPC   C3923354   2.706   0.565   7.692  0.1463 -0.2695 -0.2828
  189DOPC   H9X23355   2.782   0.499   7.648  0.7347  1.3078 -1.7420
  189DOPC  C31023356   2.684   0.554   7.824  0.6867 -0.2503 -0.2916
  189DOPC  H10X23357   2.739   0.482   7.886  1.2023 -0.5182 -1.0408
  189DOPC  C31123358   2.594   0.651   7.893 -0.1325  0.0225 -0.4275
  189DOPC  H11X23359   2.532   0.709   7.822  0.9691  0.4563 -1.0605
  189DOPC  H11Y23360   2.650   0.717   7.962  0.5045 -1.4660  0.5535
  189DOPC  C31223361   2.492   0.580   7.994 -0.2817  0.3407  0.2459
  189DOPC  H12X23362   2.445   0.667   8.044  0.9063  0.6639  0.8191
  189DOPC  H12Y23363   2.550   0.528   8.073  0.3516  2.4846  1.2691
  189DOPC  C31323364   2.391   0.491   7.919 -0.4223 -0.1131 -0.6086
  189DOPC  H13X23365   2.349   0.552   7.836 -1.4767 -0.6688 -0.5058
  189DOPC  H13Y23366   2.424   0.393   7.879  1.4656 -0.3225  1.3286
  189DOPC  C31423367   2.280   0.448   8.017 -0.0191 -0.4983 -0.3100
  189DOPC  H14X23368   2.319   0.396   8.108 -2.7370  0.7112  1.7011
  189DOPC  H14Y23369   2.228   0.535   8.063 -3.2567 -3.1927  1.6059
  189DOPC  C31523370   2.178   0.367   7.942  0.0119  0.0398 -0.1644
  189DOPC  H15X23371   2.096   0.346   8.014  3.0105 -0.7284  3.2946
  189DOPC  H15Y23372   2.221   0.268   7.916  1.6645  0.7825 -0.3301
  189DOPC  C31623373   2.111   0.433   7.823 -0.2794  0.4740  0.1386
  189DOPC  H16X23374   2.095   0.541   7.844 -0.9816  0.3105  0.4425
  189DOPC  H16Y23375   2.166   0.441   7.727 -0.4790  2.6504  0.1502
  189DOPC  C31723376   1.968   0.366   7.810  0.0542  0.3747  0.4015
  189DOPC  H17X23377   1.975   0.255   7.804 -0.3389  0.4269 -2.9796
  189DOPC  H17Y23378   1.900   0.393   7.893 -2.2641 -1.5058 -0.7544
  189DOPC  C31823379   1.900   0.407   7.675 -0.1449  0.0262  0.2578
  189DOPC  H18X23380   1.972   0.367   7.601 -0.2692 -0.0732  0.1898
  189DOPC  H18Y23381   1.803   0.354   7.665  0.1506 -0.6880  1.0419
  189DOPC  H18Z23382   1.885   0.516   7.665  2.8558  0.4911 -0.1945
  190DOPC     N23383   2.051   5.424   5.915  0.4466 -0.5040 -0.2643
  190DOPC   C1223384   2.071   5.293   5.981  0.6877 -0.2649  0.7590
  190DOPC  H12A23385   2.165   5.298   6.034  2.1647 -3.6309 -1.2388
  190DOPC  H12B23386   2.087   5.218   5.905  0.7290 -1.2552  1.7313
  190DOPC   C1323387   2.024   5.527   6.015 -0.4097  0.4233  0.3325
  190DOPC  H13A23388   1.950   5.493   6.086  0.0689  1.9375  1.6211
  190DOPC  H13B23389   2.109   5.561   6.073  0.3529  1.4931 -1.3363
  190DOPC  H13C23390   1.976   5.605   5.957 -0.6408 -0.1745 -0.3013
  190DOPC   C1423391   1.932   5.420   5.830 -0.2908  0.2519 -0.3754
  190DOPC  H14A23392   1.850   5.381   5.888 -0.4644 -1.1405 -1.4969
  190DOPC  H14B23393   1.911   5.521   5.799  1.6622  0.4729 -1.1253
  190DOPC  H14C23394   1.947   5.363   5.739 -2.6712 -0.0887 -0.6136
  190DOPC   C1523395   2.171   5.464   5.831 -0.0014 -0.4083 -0.1164
  190DOPC  H15A23396   2.166   5.404   5.741  0.7775 -0.2231 -0.2940
  190DOPC  H15B23397   2.265   5.450   5.882 -0.2102 -2.1507 -0.1447
  190DOPC  H15C23398   2.170   5.568   5.802 -1.0460 -0.6048 -0.8524
  190DOPC   C1123399   1.965   5.244   6.082  0.0193 -0.3963 -0.3542
  190DOPC  H11A23400   1.859   5.258   6.052 -0.5686 -0.9077  1.3838
  190DOPC  H11B23401   1.981   5.134   6.092 -0.5152 -0.6979 -2.2610
  190DOPC     P23402   2.094   5.280   6.313  0.3596  0.1544  0.0847
  190DOPC   O1323403   2.118   5.401   6.387  0.1372  0.0392 -0.9774
  190DOPC   O1423404   2.204   5.219   6.236 -0.1968 -0.1823  0.2188
  190DOPC   O1223405   1.974   5.312   6.203 -0.0229  0.4488  0.1486
  190DOPC   O1123406   2.033   5.168   6.402  0.6276  0.2358 -0.8113
  190DOPC    C123407   1.904   5.186   6.458  0.1454 -0.1291 -0.4380
  190DOPC    HA23408   1.825   5.230   6.392 -0.6439  0.2162  0.7062
  190DOPC    HB23409   1.912   5.255   6.544 -2.0912 -1.6303  1.0939
  190DOPC    C223410   1.856   5.050   6.512  0.8603  0.1548 -0.2379
  190DOPC    HS23411   1.745   5.045   6.518  0.8598  1.4181  1.7229
  190DOPC   O2123412   1.910   5.031   6.642 -0.9831  0.6057  0.7794
  190DOPC   C2123413   1.846   5.066   6.754 -0.2022  0.9921  0.3834
  190DOPC   O2223414   1.728   5.098   6.761  0.1180  0.1185 -0.2425
  190DOPC   C2223415   1.937   5.084   6.872  0.1679 -0.3972  0.4939
  190DOPC   H2R23416   2.034   5.038   6.842 -1.0764 -1.4395 -2.2354
  190DOPC   H2S23417   1.897   5.022   6.954  2.1586 -1.2413  0.8849
  190DOPC    C323418   1.905   4.938   6.413  0.0144 -0.2377 -0.4192
  190DOPC    HX23419   2.014   4.923   6.427  0.5197  3.0997 -0.0512
  190DOPC    HY23420   1.905   4.977   6.309  0.8752 -2.5253 -1.3464
  190DOPC   O3123421   1.839   4.812   6.431 -0.0182  0.1747 -0.2761
  190DOPC   C3123422   1.719   4.811   6.374 -0.4997  1.1686  0.6494
  190DOPC   O3223423   1.683   4.893   6.292 -0.2027 -0.1302  0.1587
  190DOPC   C3223424   1.635   4.691   6.423 -0.7689  0.2435  0.0648
  190DOPC   H2X23425   1.581   4.649   6.335  0.9184 -1.4040 -0.2486
  190DOPC   H2Y23426   1.700   4.611   6.464 -2.6553 -1.7371 -0.5654
  190DOPC   C2323427   1.959   5.227   6.923 -0.1063  0.5491 -0.4861
  190DOPC   H3R23428   1.865   5.273   6.960 -1.8548 -2.2190 -1.2040
  190DOPC   H3S23429   2.006   5.297   6.850  0.7589 -0.6294 -1.0790
  190DOPC   C2423430   2.068   5.234   7.023  0.0033 -0.1182  0.0371
  190DOPC   H4R23431   2.160   5.206   6.968 -0.5660  1.4084 -1.8225
  190DOPC   H4S23432   2.050   5.158   7.101 -0.0942 -2.6959 -2.3616
  190DOPC   C2523433   2.099   5.375   7.080 -0.2461  0.2904  0.4078
  190DOPC   H5R23434   2.016   5.414   7.143 -1.5729 -0.4780 -0.8193
  190DOPC   H5S23435   2.107   5.451   6.999  0.4106 -0.6346 -0.4167
  190DOPC   C2623436   2.224   5.375   7.172 -0.1391  0.1323  0.1933
  190DOPC   H6R23437   2.311   5.321   7.129 -1.2221 -0.8806 -0.8318
  190DOPC   H6S23438   2.202   5.305   7.256 -1.8872 -0.4985 -0.7348
  190DOPC   C2723439   2.261   5.510   7.227 -0.3501  0.5478 -0.0845
  190DOPC   H7R23440   2.207   5.590   7.172  3.1412  2.0486 -1.6221
  190DOPC   H7S23441   2.367   5.525   7.200 -0.7999  0.3125 -2.1526
  190DOPC   C2823442   2.236   5.517   7.376 -0.2612 -0.0077  0.2602
  190DOPC   H8R23443   2.306   5.438   7.411 -1.0865 -0.6044  0.5935
  190DOPC   H8S23444   2.130   5.486   7.386 -0.0562 -0.9416 -0.2967
  190DOPC   C2923445   2.277   5.648   7.436  0.2250 -0.1365 -0.7324
  190DOPC   H9R23446   2.383   5.679   7.429 -0.0376  1.0428  0.1517
  190DOPC  C21023447   2.204   5.741   7.504 -0.0694 -0.6446 -0.4628
  190DOPC  H10R23448   2.261   5.833   7.521 -0.9994  0.1253 -1.3502
  190DOPC  C21123449   2.057   5.729   7.545 -0.3551  0.0447 -0.4825
  190DOPC  H11R23450   2.049   5.758   7.652  0.4825 -1.5601  0.0513
  190DOPC  H11S23451   2.024   5.624   7.533  1.1715 -0.4641 -0.5075
  190DOPC  C21223452   1.954   5.819   7.465 -0.1736 -0.2462 -0.2675
  190DOPC  H12R23453   1.941   5.772   7.365 -0.5508 -0.3271 -0.1825
  190DOPC  H12S23454   1.999   5.919   7.446 -0.5554  0.5650  2.6960
  190DOPC  C21323455   1.818   5.829   7.534 -1.2342  0.4425 -0.0037
  190DOPC  H13R23456   1.775   5.728   7.547  2.3847 -1.4106 -1.1565
  190DOPC  H13S23457   1.761   5.878   7.452  0.2625  0.6033 -0.9942
  190DOPC  C21423458   1.812   5.897   7.673 -0.0553 -0.0431  0.7914
  190DOPC  H14R23459   1.850   5.825   7.749  0.0411  1.7120  2.4875
  190DOPC  H14S23460   1.704   5.908   7.696 -0.4433 -0.6211 -0.6647
  190DOPC  C21523461   1.883   6.030   7.677 -0.1763  0.3868 -0.7630
  190DOPC  H15R23462   1.818   6.088   7.608 -1.0118 -0.1353 -0.4237
  190DOPC  H15S23463   1.983   6.029   7.628 -0.4928 -0.9825 -1.3997
  190DOPC  C21623464   1.879   6.097   7.820 -0.6854  0.2075 -0.4481
  190DOPC  H16R23465   1.904   6.019   7.895 -0.3314  1.1445  0.4307
  190DOPC  H16S23466   1.784   6.146   7.847 -1.2162 -1.8742  1.8832
  190DOPC  C21723467   1.991   6.203   7.825  0.6089  0.0386  0.2860
  190DOPC  H17R23468   1.990   6.274   7.739 -0.1864  1.1138  1.1405
  190DOPC  H17S23469   2.085   6.144   7.820  0.2289 -0.4937 -0.8845
  190DOPC  C21823470   1.980   6.277   7.955 -0.5939 -0.5439 -0.8150
  190DOPC  H18R23471   1.960   6.199   8.031  3.1234 -1.1438 -0.2650
  190DOPC  H18S23472   1.901   6.354   7.967  0.8854  0.7235  1.6186
  190DOPC  H18T23473   2.075   6.330   7.977  2.4966 -4.2364 -3.6933
  190DOPC   C3323474   1.530   4.722   6.520  1.4349  0.3979  0.2509
  190DOPC   H3X23475   1.466   4.633   6.535 -0.3051  1.5719  0.1599
  190DOPC   H3Y23476   1.465   4.800   6.475 -0.6428 -1.4402 -0.1157
  190DOPC   C3423477   1.579   4.771   6.657 -0.1325  0.3068  0.2892
  190DOPC   H4X23478   1.498   4.768   6.734 -0.5559 -1.2642 -0.1813
  190DOPC   H4Y23479   1.608   4.878   6.668 -0.4766  0.6015 -1.4487
  190DOPC   C3523480   1.682   4.677   6.714 -0.3216  0.3699 -0.1702
  190DOPC   H5X23481   1.779   4.681   6.659 -0.1798  1.5392  0.1289
  190DOPC   H5Y23482   1.649   4.571   6.713 -2.4892  0.9815  1.4440
  190DOPC   C3623483   1.726   4.713   6.861 -0.0743  0.3171  0.9161
  190DOPC   H6X23484   1.758   4.819   6.856  2.0958 -0.2669  1.3990
  190DOPC   H6Y23485   1.635   4.705   6.925 -0.4263 -0.2795  0.3507
  190DOPC   C3723486   1.840   4.630   6.922 -0.3413 -0.2917  0.2424
  190DOPC   H7X23487   1.811   4.522   6.917 -1.8650  0.1672 -2.1315
  190DOPC   H7Y23488   1.929   4.663   6.865  1.4441  1.2975  3.6759
  190DOPC   C3823489   1.872   4.668   7.073 -0.1670 -0.3021  0.2654
  190DOPC   H8X23490   1.783   4.677   7.138 -1.6617  1.7605 -1.8813
  190DOPC   H8Y23491   1.918   4.769   7.074  0.5252 -0.6166  0.6247
  190DOPC   C3923492   1.978   4.578   7.138 -0.3295 -0.3702  0.7033
  190DOPC   H9X23493   2.056   4.543   7.069  0.0491  1.7705 -0.0269
  190DOPC  C31023494   1.968   4.515   7.257  0.2929  0.0539 -0.0684
  190DOPC  H10X23495   2.051   4.446   7.281  2.2582  2.5728  0.8219
  190DOPC  C31123496   1.864   4.536   7.360 -0.2129  0.2713 -0.8106
  190DOPC  H11X23497   1.809   4.441   7.378 -0.2996 -0.1481 -2.9899
  190DOPC  H11Y23498   1.783   4.607   7.333  0.3245  1.2098 -0.0158
  190DOPC  C31223499   1.930   4.602   7.480  0.7477  0.3849  0.1748
  190DOPC  H12X23500   1.986   4.696   7.464 -0.4231  1.2480  0.9907
  190DOPC  H12Y23501   1.995   4.520   7.517  1.2131  0.8399  0.3783
  190DOPC  C31323502   1.830   4.634   7.595 -0.5970  0.7985 -0.6976
  190DOPC  H13X23503   1.766   4.543   7.599  0.6987 -0.1638 -0.7938
  190DOPC  H13Y23504   1.889   4.631   7.689 -0.7887 -3.2322 -0.5090
  190DOPC  C31423505   1.749   4.766   7.561  0.1740  0.0570  0.3431
  190DOPC  H14X23506   1.821   4.850   7.569  0.7446 -0.4458  0.6624
  190DOPC  H14Y23507   1.708   4.743   7.460 -1.1821 -3.0465  1.4588
  190DOPC  C31523508   1.628   4.775   7.654 -0.1535 -0.1924  0.2796
  190DOPC  H15X23509   1.673   4.776   7.755  0.9972  0.0158 -0.2190
  190DOPC  H15Y23510   1.554   4.692   7.648 -0.2524 -0.0617 -0.4466
  190DOPC  C31623511   1.548   4.903   7.630  0.2679  0.6807  0.0475
  190DOPC  H16X23512   1.479   4.884   7.544 -1.2163  0.6552  1.2169
  190DOPC  H16Y23513   1.476   4.929   7.710  0.6383 -0.2394  0.7046
  190DOPC  C31723514   1.632   5.022   7.600 -0.1406  0.7961  0.0298
  190DOPC  H17X23515   1.728   5.023   7.655 -0.4385  1.1083  0.5464
  190DOPC  H17Y23516   1.655   5.018   7.491 -1.1534 -0.6126 -0.1521
  190DOPC  C31823517   1.554   5.152   7.622 -0.0002 -0.0652  0.1072
  190DOPC  H18X23518   1.522   5.165   7.727 -0.2760  2.0127 -0.1921
  190DOPC  H18Y23519   1.617   5.243   7.608  0.2269 -0.3327 -0.6620
  190DOPC  H18Z23520   1.472   5.158   7.547  0.8972  0.0058 -0.8948
  191DOPC     N23521   5.726   6.822   6.242  0.4969 -0.6810 -0.4154
  191DOPC   C1223522   5.731   6.758   6.386  0.0316  0.2866  0.3016
  191DOPC  H12A23523   5.630   6.756   6.424  0.9857  0.1215  3.0520
  191DOPC  H12B23524   5.788   6.825   6.448 -2.6326  2.5678  0.4268
  191DOPC   C1323525   5.647   6.948   6.253 -0.7859 -0.1076  0.0944
  191DOPC  H13A23526   5.691   7.011   6.329  1.4423 -0.4801 -0.8282
  191DOPC  H13B23527   5.639   6.999   6.158 -1.5275  1.3544  0.9023
  191DOPC  H13C23528   5.544   6.939   6.285 -0.9364  0.2443 -0.2774
  191DOPC   C1423529   5.655   6.738   6.137 -0.4625  0.5771 -0.1289
  191DOPC  H14A23530   5.554   6.708   6.163  0.6461 -3.3624  0.3486
  191DOPC  H14B23531   5.651   6.797   6.047 -2.5946  4.7113  2.3686
  191DOPC  H14C23532   5.716   6.651   6.117  0.8369  1.0138  1.6529
  191DOPC   C1523533   5.865   6.847   6.203 -0.3841  0.4307  0.8457
  191DOPC  H15A23534   5.901   6.936   6.252  0.2305  0.4073  0.4539
  191DOPC  H15B23535   5.872   6.854   6.096 -0.8608  0.1805  0.7958
  191DOPC  H15C23536   5.931   6.764   6.224  0.1782  0.4012 -0.8826
  191DOPC   C1123537   5.781   6.607   6.381 -0.3184 -0.2690  0.1454
  191DOPC  H11A23538   5.777   6.574   6.487  0.2862 -0.0996  0.2267
  191DOPC  H11B23539   5.711   6.537   6.331 -0.5327 -0.7027  1.0181
  191DOPC     P23540   5.980   6.454   6.312  0.1305  0.1782 -0.0882
  191DOPC   O1323541   6.124   6.452   6.336  0.4245 -1.0271 -0.5440
  191DOPC   O1423542   5.941   6.403   6.179 -0.0096  0.1514  0.7984
  191DOPC   O1223543   5.919   6.597   6.323 -0.6751 -0.4695 -0.0346
  191DOPC   O1123544   5.897   6.362   6.412  0.0191  0.4133 -0.0675
  191DOPC    C123545   5.940   6.258   6.491  0.2263 -0.0351 -0.2037
  191DOPC    HA23546   6.043   6.234   6.456 -0.1329  0.5520 -1.7287
  191DOPC    HB23547   5.883   6.163   6.486 -1.6814  1.0213  0.3021
  191DOPC    C223548   5.933   6.300   6.638 -0.2118  0.3785 -0.3685
  191DOPC    HS23549   5.834   6.345   6.660 -0.0750 -0.0210  1.1781
  191DOPC   O2123550   6.041   6.394   6.659  0.2598  0.5860 -0.3847
  191DOPC   C2123551   6.026   6.480   6.758  0.3138 -0.0772 -0.2694
  191DOPC   O2223552   5.921   6.492   6.821  0.5818  0.9917 -0.7460
  191DOPC   C2223553   6.156   6.561   6.783 -0.1676  0.2015  0.6656
  191DOPC   H2R23554   6.160   6.645   6.711  0.5939 -0.1383  0.2952
  191DOPC   H2S23555   6.250   6.502   6.772  0.0793 -0.0511  3.4888
  191DOPC    C323556   5.958   6.179   6.725  0.1614 -0.6603 -0.7494
  191DOPC    HX23557   6.050   6.133   6.682  1.6623  0.9855  0.5201
  191DOPC    HY23558   5.881   6.100   6.719 -1.2946  0.5210  1.0904
  191DOPC   O3123559   5.975   6.204   6.868 -0.5107 -0.4222  0.6429
  191DOPC   C3123560   5.867   6.224   6.940 -0.5617  0.2052 -0.1817
  191DOPC   O3223561   5.759   6.244   6.894  0.5145  0.7030  0.1526
  191DOPC   C3223562   5.908   6.228   7.088 -0.3763  0.7829 -0.3775
  191DOPC   H2X23563   6.000   6.290   7.094  1.1603 -0.9616 -3.1722
  191DOPC   H2Y23564   5.829   6.270   7.153 -0.8539 -1.6509  0.7509
  191DOPC   C2323565   6.153   6.628   6.924  0.8324  0.1236  0.3839
  191DOPC   H3R23566   6.053   6.674   6.929  0.5724 -0.3255 -0.5674
  191DOPC   H3S23567   6.233   6.705   6.929  0.6797  0.2307  1.5696
  191DOPC   C2423568   6.183   6.521   7.029 -0.0340 -0.6985 -0.3117
  191DOPC   H4R23569   6.291   6.497   7.015  0.0444  0.1649 -1.3337
  191DOPC   H4S23570   6.121   6.433   7.002 -0.8134 -0.7534  1.5445
  191DOPC   C2523571   6.143   6.568   7.172 -0.3144  0.0226  0.1788
  191DOPC   H5R23572   6.032   6.574   7.170 -0.2366  2.0504  0.2173
  191DOPC   H5S23573   6.187   6.667   7.197  1.0265  0.1139 -2.2752
  191DOPC   C2623574   6.202   6.474   7.284 -0.0950 -0.5198  0.1936
  191DOPC   H6R23575   6.307   6.454   7.254  0.2098  0.9753  0.2053
  191DOPC   H6S23576   6.153   6.374   7.285  0.6229 -0.8785  0.9955
  191DOPC   C2723577   6.194   6.527   7.428  0.1509 -0.6450  0.3103
  191DOPC   H7R23578   6.266   6.608   7.450  0.5809 -0.8606 -0.2720
  191DOPC   H7S23579   6.215   6.443   7.498  0.6180  1.2770  2.5869
  191DOPC   C2823580   6.055   6.587   7.468 -0.1386 -0.0397 -0.1215
  191DOPC   H8R23581   6.027   6.666   7.394 -0.2264  1.2287  1.2230
  191DOPC   H8S23582   6.062   6.644   7.563  0.8591 -0.2421 -0.0648
  191DOPC   C2923583   5.955   6.484   7.459  0.1444  0.4026 -0.6597
  191DOPC   H9R23584   5.924   6.453   7.359 -0.9239 -0.5819 -0.0469
  191DOPC  C21023585   5.887   6.431   7.561 -0.4748 -0.1289 -0.5201
  191DOPC  H10R23586   5.810   6.360   7.531 -0.2885 -0.3076 -0.5764
  191DOPC  C21123587   5.889   6.467   7.705  0.3541  0.3661  0.3068
  191DOPC  H11R23588   5.823   6.556   7.703 -0.8005 -0.4314  1.4885
  191DOPC  H11S23589   5.990   6.498   7.740  0.8060  0.9362 -1.4262
  191DOPC  C21223590   5.836   6.351   7.806  0.3152 -0.3234  0.5932
  191DOPC  H12R23591   5.899   6.262   7.789  0.7139  0.0513  0.0530
  191DOPC  H12S23592   5.731   6.330   7.777  0.3488  2.4495 -2.1658
  191DOPC  C21323593   5.836   6.399   7.949 -0.3494  0.5179  0.8382
  191DOPC  H13R23594   5.752   6.472   7.951  1.0197  2.2918 -1.3097
  191DOPC  H13S23595   5.934   6.448   7.971 -0.3065  2.1113 -2.3191
  191DOPC  C21423596   5.827   6.298   8.058 -0.2065 -0.0316 -0.7287
  191DOPC  H14R23597   5.900   6.219   8.033 -0.2244 -0.0629 -0.6827
  191DOPC  H14S23598   5.729   6.246   8.045 -0.2673 -0.7762  2.0215
  191DOPC  C21523599   5.834   6.357   8.198 -0.1604  0.0909  0.4309
  191DOPC  H15R23600   5.763   6.440   8.212 -0.0694  0.5305 -1.4719
  191DOPC  H15S23601   5.938   6.396   8.201 -0.9218  2.2761 -0.2477
  191DOPC  C21623602   5.814   6.246   8.301  0.6284 -0.7066 -0.3734
  191DOPC  H16R23603   5.900   6.176   8.314  0.4769 -1.0230 -1.0326
  191DOPC  H16S23604   5.730   6.186   8.260 -0.2672 -1.0993  1.9051
  191DOPC  C21723605   5.765   6.299   8.437 -0.3597  0.3461  0.5285
  191DOPC  H17R23606   5.705   6.220   8.489  1.5928  0.2957  2.8780
  191DOPC  H17S23607   5.693   6.379   8.412 -1.2753 -1.3468 -2.8208
  191DOPC  C21823608   5.871   6.344   8.540 -0.4624  0.5860 -0.2491
  191DOPC  H18R23609   5.909   6.445   8.516 -0.3467  0.6306  0.1078
  191DOPC  H18S23610   5.953   6.276   8.569 -2.2711 -0.2923  3.6013
  191DOPC  H18T23611   5.813   6.343   8.635 -0.4408 -0.7056 -0.2373
  191DOPC   C3323612   5.944   6.094   7.146 -0.8509 -0.0269 -0.2188
  191DOPC   H3X23613   5.980   6.115   7.249  1.7288 -0.2273 -1.0106
  191DOPC   H3Y23614   6.030   6.053   7.089 -0.1849  2.3560 -1.0368
  191DOPC   C3423615   5.820   6.003   7.164  0.3924  0.0262  0.8000
  191DOPC   H4X23616   5.833   5.910   7.224  1.1194  0.0886  0.7508
  191DOPC   H4Y23617   5.789   5.965   7.065  0.3638 -0.5073  1.0098
  191DOPC   C3523618   5.680   6.064   7.211 -0.4720 -0.2585  0.2150
  191DOPC   H5X23619   5.615   5.978   7.184 -1.3150  0.7461 -1.0925
  191DOPC   H5Y23620   5.661   6.145   7.138  1.3383 -0.8821 -1.0265
  191DOPC   C3623621   5.675   6.121   7.361  0.5689  0.8631  0.6890
  191DOPC   H6X23622   5.707   6.051   7.440 -2.5207 -0.3883  0.9805
  191DOPC   H6Y23623   5.745   6.208   7.356  0.7694  0.6494 -0.6494
  191DOPC   C3723624   5.527   6.161   7.402 -0.7879  0.5002  0.2738
  191DOPC   H7X23625   5.500   6.230   7.320  3.3873  2.3786  0.2299
  191DOPC   H7Y23626   5.461   6.072   7.401 -1.8925  1.3090 -0.3219
  191DOPC   C3823627   5.516   6.242   7.535 -0.0790 -0.9326  0.4122
  191DOPC   H8X23628   5.586   6.327   7.522  0.0836 -0.9717  1.0051
  191DOPC   H8Y23629   5.556   6.178   7.616  0.5929 -2.9214 -1.3915
  191DOPC   C3923630   5.377   6.286   7.564 -0.3174 -0.1324 -0.0159
  191DOPC   H9X23631   5.313   6.296   7.475  0.0186  0.8407 -0.1661
  191DOPC  C31023632   5.329   6.314   7.688  0.1210  0.2506 -0.3518
  191DOPC  H10X23633   5.229   6.357   7.701  0.0377 -0.2976  0.9710
  191DOPC  C31123634   5.408   6.310   7.814 -0.3831 -1.1668  0.8006
  191DOPC  H11X23635   5.390   6.391   7.888 -2.4971 -0.9094  0.0627
  191DOPC  H11Y23636   5.512   6.335   7.784 -0.2684 -1.2114  1.1559
  191DOPC  C31223637   5.407   6.177   7.885  0.1854 -0.0154  0.2586
  191DOPC  H12X23638   5.471   6.180   7.975 -1.1870 -0.0890  1.2753
  191DOPC  H12Y23639   5.442   6.096   7.818  1.9594  1.2339 -0.3984
  191DOPC  C31323640   5.277   6.144   7.946  0.4182  0.2024 -0.5846
  191DOPC  H13X23641   5.225   6.228   7.996  0.0975  0.3945 -1.2351
  191DOPC  H13Y23642   5.208   6.124   7.861 -1.2517  0.1935  0.7415
  191DOPC  C31423643   5.273   6.036   8.049  0.1387  0.2136 -0.0906
  191DOPC  H14X23644   5.166   6.025   8.077  0.9016 -2.3868  2.3176
  191DOPC  H14Y23645   5.315   5.944   8.003  1.9143  0.9734 -0.0869
  191DOPC  C31523646   5.351   6.055   8.182  0.5802 -0.9425 -0.3375
  191DOPC  H15X23647   5.460   6.050   8.162  0.5074  0.3858 -1.1643
  191DOPC  H15Y23648   5.329   5.969   8.248  0.3686  1.2819  2.7032
  191DOPC  C31623649   5.316   6.174   8.273  0.3068 -0.4250  0.7174
  191DOPC  H16X23650   5.400   6.195   8.343  0.2765 -1.2754  1.0169
  191DOPC  H16Y23651   5.303   6.259   8.202  1.0495 -0.4581  0.5388
  191DOPC  C31723652   5.174   6.165   8.350 -0.1253 -0.0500  0.0783
  191DOPC  H17X23653   5.094   6.174   8.274 -0.5891 -1.3965  0.3844
  191DOPC  H17Y23654   5.164   6.063   8.393 -1.4512  0.0160 -0.0384
  191DOPC  C31823655   5.148   6.280   8.443 -0.5491 -0.3530  0.9929
  191DOPC  H18X23656   5.184   6.372   8.391 -1.3368  0.2620  1.5123
  191DOPC  H18Y23657   5.040   6.295   8.462 -0.4503 -0.4010  1.5980
  191DOPC  H18Z23658   5.202   6.268   8.539  0.5504 -1.1489  0.3085
  192DOPC     N23659   5.573   5.037   6.408 -0.0014 -0.2561 -0.0016
  192DOPC   C1223660   5.620   5.152   6.494  0.2119  0.2742  0.1092
  192DOPC  H12A23661   5.580   5.141   6.593  2.3463 -0.3817  0.9544
  192DOPC  H12B23662   5.597   5.249   6.452  0.0757  0.5328  0.7654
  192DOPC   C1323663   5.621   5.044   6.268 -0.5481 -1.1421  1.0168
  192DOPC  H13A23664   5.598   5.146   6.240  0.4175 -1.0162  0.6634
  192DOPC  H13B23665   5.728   5.030   6.265 -0.4987 -0.6673  0.1521
  192DOPC  H13C23666   5.569   4.980   6.198  1.6190  0.5468 -2.4142
  192DOPC   C1423667   5.421   5.053   6.398 -0.7743 -0.4676  0.2768
  192DOPC  H14A23668   5.388   5.025   6.498  1.1859 -1.1701  0.7695
  192DOPC  H14B23669   5.395   5.156   6.381 -1.2813 -0.6014  0.2196
  192DOPC  H14C23670   5.383   4.988   6.321  0.1912  0.3635 -0.9361
  192DOPC   C1523671   5.606   4.895   6.454  0.8087 -0.0417  0.7337
  192DOPC  H15A23672   5.564   4.875   6.552 -0.0380 -2.1317  0.0069
  192DOPC  H15B23673   5.710   4.877   6.474  0.4316 -2.3684  0.8933
  192DOPC  H15C23674   5.572   4.820   6.385 -0.0008  0.9631  0.0049
  192DOPC   C1123675   5.776   5.153   6.522 -0.1905 -0.1630  0.7958
  192DOPC  H11A23676   5.793   5.220   6.610  2.0834  0.9673 -0.3984
  192DOPC  H11B23677   5.817   5.052   6.542  0.7467 -0.2618 -1.3789
  192DOPC     P23678   5.861   5.361   6.393 -0.1218 -0.3171  0.1129
  192DOPC   O1323679   5.727   5.426   6.408  0.0414 -0.6806  0.2160
  192DOPC   O1423680   5.940   5.394   6.268  0.2559 -0.0551 -0.4074
  192DOPC   O1223681   5.840   5.206   6.405 -0.4006  0.2463  0.2783
  192DOPC   O1123682   5.953   5.398   6.515  0.3409 -0.0156 -0.0633
  192DOPC    C123683   6.070   5.323   6.547 -0.0603 -1.4343 -1.2036
  192DOPC    HA23684   6.159   5.357   6.490  1.6605 -1.2471  1.4193
  192DOPC    HB23685   6.055   5.214   6.528 -1.4406 -1.0337 -2.5671
  192DOPC    C223686   6.108   5.344   6.700 -0.2716  0.9743 -0.2346
  192DOPC    HS23687   6.195   5.282   6.732 -0.3518  0.4755 -0.9650
  192DOPC   O2123688   5.990   5.323   6.788 -0.2715 -0.1102  0.2604
  192DOPC   C2123689   5.982   5.202   6.837  0.2225 -0.0118 -0.1418
  192DOPC   O2223690   6.054   5.107   6.807  0.1794 -0.0651 -0.3255
  192DOPC   C2223691   5.884   5.196   6.954  0.2653  0.0634  0.0478
  192DOPC   H2R23692   5.864   5.090   6.981  1.6467 -0.0293  0.7934
  192DOPC   H2S23693   5.793   5.234   6.903 -1.1164 -1.7189  1.0486
  192DOPC    C323694   6.155   5.488   6.728  0.5453 -0.4816 -0.7280
  192DOPC    HX23695   6.078   5.561   6.696 -0.8593 -1.6774 -0.1566
  192DOPC    HY23696   6.246   5.504   6.665 -0.7627  2.9485 -2.0001
  192DOPC   O3123697   6.192   5.514   6.865  0.2826  0.7640 -0.0321
  192DOPC   C3123698   6.239   5.632   6.890 -0.4580 -0.1855  0.2242
  192DOPC   O3223699   6.251   5.722   6.810 -0.2700 -0.5538  0.1842
  192DOPC   C3223700   6.259   5.657   7.033  0.1541 -0.5703 -0.2694
  192DOPC   H2X23701   6.344   5.600   7.077  1.5503  0.9973 -0.7801
  192DOPC   H2Y23702   6.280   5.766   7.042 -0.7323 -0.4328  0.1831
  192DOPC   C2323703   5.920   5.287   7.076  0.2646 -0.1664  0.2238
  192DOPC   H3R23704   5.933   5.390   7.038 -2.5544  0.4085  0.5731
  192DOPC   H3S23705   6.017   5.260   7.123  1.2726 -0.6642 -2.0094
  192DOPC   C2423706   5.802   5.281   7.176 -0.2943 -0.5935  0.3713
  192DOPC   H4R23707   5.828   5.207   7.255 -0.8771 -0.9334  0.2525
  192DOPC   H4S23708   5.713   5.242   7.121  0.7923  1.0197 -2.7452
  192DOPC   C2523709   5.757   5.422   7.224 -0.0131  1.2341 -0.4166
  192DOPC   H5R23710   5.710   5.469   7.135 -0.3875  1.3647 -0.1525
  192DOPC   H5S23711   5.850   5.481   7.235  0.4080  0.5805 -0.4038
  192DOPC   C2623712   5.667   5.439   7.347 -0.1947  0.0767 -0.5457
  192DOPC   H6R23713   5.726   5.431   7.441 -0.3460  0.1482 -0.4436
  192DOPC   H6S23714   5.592   5.356   7.347 -0.7003  0.4582  1.8870
  192DOPC   C2723715   5.593   5.576   7.342 -0.6608  0.0930 -0.3036
  192DOPC   H7R23716   5.536   5.580   7.246  0.3914  0.8826 -0.9045
  192DOPC   H7S23717   5.678   5.647   7.332  0.1323 -0.8073 -0.0669
  192DOPC   C2823718   5.513   5.604   7.467 -0.1574 -0.2595  0.2459
  192DOPC   H8R23719   5.572   5.600   7.561 -0.5732  1.5190  0.6160
  192DOPC   H8S23720   5.438   5.526   7.493 -0.6804  0.1506 -0.0093
  192DOPC   C2923721   5.444   5.727   7.435  0.3371 -0.1399 -0.4140
  192DOPC   H9R23722   5.437   5.746   7.327  0.7474 -1.5195 -0.6998
  192DOPC  C21023723   5.424   5.822   7.530  0.7581 -0.1512 -0.5188
  192DOPC  H10R23724   5.379   5.914   7.491  0.1499  1.0898  2.8193
  192DOPC  C21123725   5.462   5.821   7.672 -0.7229  0.0944 -0.1559
  192DOPC  H11R23726   5.443   5.719   7.713 -0.7227 -1.1187 -2.9123
  192DOPC  H11S23727   5.407   5.897   7.731 -1.5516  0.0403 -0.8356
  192DOPC  C21223728   5.621   5.845   7.698  0.2330  0.0033 -0.1367
  192DOPC  H12R23729   5.647   5.944   7.657  0.1959  0.4496  0.8940
  192DOPC  H12S23730   5.675   5.761   7.649  0.5110  0.0288  0.1257
  192DOPC  C21323731   5.666   5.847   7.846  0.2713 -0.7257 -0.4540
  192DOPC  H13R23732   5.641   5.944   7.894 -0.4544 -1.5747  0.9499
  192DOPC  H13S23733   5.777   5.845   7.853  0.2049 -1.1236  0.5454
  192DOPC  C21423734   5.608   5.739   7.933  0.8212  0.8198 -0.0438
  192DOPC  H14R23735   5.646   5.639   7.902  0.1175 -0.2249  2.2916
  192DOPC  H14S23736   5.498   5.729   7.919  0.9343 -1.0811  0.1214
  192DOPC  C21523737   5.650   5.756   8.078 -0.2273 -0.2720  0.0761
  192DOPC  H15R23738   5.630   5.856   8.123 -0.3246 -0.3384  0.1784
  192DOPC  H15S23739   5.761   5.756   8.068 -0.1016  1.3830  0.9257
  192DOPC  C21623740   5.587   5.658   8.184 -0.8437  0.2344  0.1842
  192DOPC  H16R23741   5.619   5.693   8.285 -2.6903  1.1054  0.4960
  192DOPC  H16S23742   5.620   5.553   8.169 -1.4915  0.1848 -0.9685
  192DOPC  C21723743   5.437   5.660   8.174  0.3815 -0.0895 -0.2096
  192DOPC  H17R23744   5.394   5.617   8.082 -1.7219 -2.4384  1.7216
  192DOPC  H17S23745   5.406   5.767   8.169 -1.7003 -0.5778  0.8665
  192DOPC  C21823746   5.364   5.593   8.290 -0.4220  0.5196  0.1620
  192DOPC  H18R23747   5.407   5.624   8.388 -2.8762 -1.5618  2.0684
  192DOPC  H18S23748   5.385   5.485   8.279 -1.7530  0.0627  1.5965
  192DOPC  H18T23749   5.255   5.613   8.300 -0.2356  1.9171 -0.3879
  192DOPC   C3323750   6.129   5.640   7.120 -0.1893 -0.3624  0.7905
  192DOPC   H3X23751   6.088   5.537   7.128  0.0673 -0.5645 -0.2616
  192DOPC   H3Y23752   6.042   5.702   7.090  0.4462  1.3003  2.1944
  192DOPC   C3423753   6.178   5.668   7.265  0.2322 -0.3108 -0.0779
  192DOPC   H4X23754   6.206   5.775   7.272  0.5895 -0.3313 -1.1082
  192DOPC   H4Y23755   6.266   5.604   7.284  1.4403  1.4595  0.5117
  192DOPC   C3523756   6.065   5.625   7.369  0.1732  0.3760 -0.2296
  192DOPC   H5X23757   6.046   5.515   7.372  0.3011  0.3680  1.1114
  192DOPC   H5Y23758   5.966   5.669   7.346 -0.2439 -1.3679 -2.0053
  192DOPC   C3623759   6.112   5.668   7.515 -0.8995  0.5340 -0.7931
  192DOPC   H6X23760   6.199   5.605   7.543 -1.1440  0.6662  0.3183
  192DOPC   H6Y23761   6.151   5.772   7.517  1.2707 -0.1820 -2.3717
  192DOPC   C3723762   6.002   5.662   7.628 -0.6107  0.3761 -0.2248
  192DOPC   H7X23763   6.042   5.718   7.716 -0.6319  1.7690 -1.0744
  192DOPC   H7Y23764   5.926   5.726   7.580 -0.3708  1.3733  0.6798
  192DOPC   C3823765   5.931   5.529   7.664 -0.0065  0.5875 -0.0043
  192DOPC   H8X23766   5.915   5.465   7.574 -2.4584  0.3252  0.5614
  192DOPC   H8Y23767   5.832   5.554   7.707  0.0450  0.4613  0.1865
  192DOPC   C3923768   6.031   5.465   7.755  0.2808  0.8366  0.4336
  192DOPC   H9X23769   6.132   5.468   7.711  0.4994 -1.9203  0.5887
  192DOPC  C31023770   6.016   5.422   7.884  0.1244  0.0445  0.1116
  192DOPC  H10X23771   6.101   5.363   7.922 -1.1991 -0.0298  3.3037
  192DOPC  C31123772   5.894   5.423   7.980 -0.2842  0.2458 -0.4976
  192DOPC  H11X23773   5.804   5.456   7.923 -1.4649 -1.7351  0.0986
  192DOPC  H11Y23774   5.910   5.500   8.058 -2.2089 -1.1090  1.3340
  192DOPC  C31223775   5.885   5.278   8.038 -0.1919 -0.1722  0.3014
  192DOPC  H12X23776   5.846   5.211   7.959  0.3290 -0.3287  0.1707
  192DOPC  H12Y23777   5.812   5.287   8.122  2.0371 -1.0635  2.4781
  192DOPC  C31323778   6.011   5.222   8.108 -0.7002  0.1115 -0.1271
  192DOPC  H13X23779   6.092   5.202   8.035 -1.2505  1.5127 -1.1648
  192DOPC  H13Y23780   6.045   5.296   8.184  1.2767  1.6637 -2.3716
  192DOPC  C31423781   5.980   5.091   8.183  0.4179 -0.1011  0.2437
  192DOPC  H14X23782   5.898   5.113   8.254  1.7571  1.2421  1.4557
  192DOPC  H14Y23783   5.945   5.014   8.111 -2.8190  1.0722  0.4193
  192DOPC  C31523784   6.105   5.033   8.259 -0.0844 -0.8999  0.2543
  192DOPC  H15X23785   6.145   5.109   8.329  2.1843 -2.2592  0.5111
  192DOPC  H15Y23786   6.187   5.030   8.184 -0.1900  0.4105  0.0439
  192DOPC  C31623787   6.078   4.897   8.320 -0.1082  0.5470 -0.1711
  192DOPC  H16X23788   5.990   4.904   8.388 -0.6316 -0.2431 -0.7434
  192DOPC  H16Y23789   6.056   4.816   8.246 -0.3881  0.3709  0.1023
  192DOPC  C31723790   6.200   4.843   8.403  0.2529 -0.8314 -0.3930
  192DOPC  H17X23791   6.184   4.735   8.423 -0.7920 -0.5408  0.4428
  192DOPC  H17Y23792   6.290   4.850   8.338 -1.1560  0.2790 -2.3266
  192DOPC  C31823793   6.229   4.926   8.532 -1.2914 -0.1840 -0.1267
  192DOPC  H18X23794   6.253   5.033   8.515  1.6178 -0.6516  0.5440
  192DOPC  H18Y23795   6.149   4.925   8.609 -0.6396  0.2243  0.5666
  192DOPC  H18Z23796   6.309   4.876   8.590 -0.5636 -0.5668 -1.4262
  193DOPC     N23797   7.233   7.345   6.037  0.8730  0.0092 -0.3068
  193DOPC   C1223798   7.112   7.421   6.101 -0.1277 -0.1445 -0.4347
  193DOPC  H12A23799   7.045   7.348   6.145 -0.6336  1.1149  0.9505
  193DOPC  H12B23800   7.051   7.460   6.021  0.4158  2.1901  0.2279
  193DOPC   C1323801   7.303   7.290   6.155 -0.1657  0.1043 -0.2858
  193DOPC  H13A23802   7.392   7.233   6.131 -0.8089 -1.2242  0.4116
  193DOPC  H13B23803   7.333   7.373   6.217 -1.1676 -1.1040  1.9328
  193DOPC  H13C23804   7.242   7.238   6.227  0.7046 -1.4992 -0.6693
  193DOPC   C1423805   7.325   7.435   5.966  0.1439 -0.1478 -0.3310
  193DOPC  H14A23806   7.290   7.477   5.874 -0.5236 -2.1621 -1.0593
  193DOPC  H14B23807   7.357   7.520   6.024  0.8248 -0.0191 -0.8865
  193DOPC  H14C23808   7.412   7.379   5.936 -0.4267 -1.5211  0.4641
  193DOPC   C1523809   7.201   7.234   5.941  0.2688  0.5437 -0.5752
  193DOPC  H15A23810   7.175   7.277   5.846 -0.9849 -0.9665 -0.9702
  193DOPC  H15B23811   7.113   7.178   5.973  1.1743 -0.0870  0.9406
  193DOPC  H15C23812   7.285   7.168   5.924  1.0225  1.5660 -0.8560
  193DOPC   C1123813   7.142   7.531   6.203 -0.2203  0.4026 -0.1114
  193DOPC  H11A23814   7.042   7.566   6.235 -0.6832 -0.8411 -0.1462
  193DOPC  H11B23815   7.191   7.480   6.289 -1.6915  2.6943  2.2274
  193DOPC     P23816   7.162   7.767   6.096 -0.4905  0.1224  0.5461
  193DOPC   O1323817   7.079   7.727   5.981  0.2494 -0.5518  0.3413
  193DOPC   O1423818   7.262   7.877   6.074 -0.3011 -0.0350 -0.5886
  193DOPC   O1223819   7.224   7.638   6.163 -0.1155 -0.5234  0.2410
  193DOPC   O1123820   7.064   7.813   6.211 -0.6659  0.4536 -0.0110
  193DOPC    C123821   7.091   7.893   6.325  0.1416  0.1054  0.2262
  193DOPC    HA23822   6.991   7.931   6.355 -1.2613 -2.8142 -0.4543
  193DOPC    HB23823   7.160   7.977   6.298 -1.1402  1.8197  2.0043
  193DOPC    C223824   7.140   7.814   6.455  0.0080 -0.5154  1.1069
  193DOPC    HS23825   7.230   7.754   6.432 -0.9251 -1.5967  0.1396
  193DOPC   O2123826   7.032   7.728   6.492  0.4202  0.3156 -0.3351
  193DOPC   C2123827   7.077   7.617   6.547 -0.0403  0.5520 -0.0885
  193DOPC   O2223828   7.192   7.595   6.571 -0.9175 -0.3849  0.3932
  193DOPC   C2223829   6.956   7.535   6.578  0.0119 -0.0431  0.2539
  193DOPC   H2R23830   6.963   7.454   6.503  0.4803  0.3363 -0.1224
  193DOPC   H2S23831   6.865   7.594   6.554  0.6323  1.0406  0.4497
  193DOPC    C323832   7.165   7.919   6.569  0.0719  0.4218 -0.2857
  193DOPC    HX23833   7.064   7.960   6.593 -1.1615 -0.8150 -2.9307
  193DOPC    HY23834   7.218   8.008   6.529 -0.7863 -0.3397 -3.3846
  193DOPC   O3123835   7.226   7.865   6.687  0.1804 -0.6432  0.2789
  193DOPC   C3123836   7.342   7.922   6.725  0.1398 -0.2510 -0.2625
  193DOPC   O3223837   7.391   8.023   6.681 -0.6075  0.1773  0.4072
  193DOPC   C3223838   7.394   7.846   6.839  0.0818  0.2914 -0.6455
  193DOPC   H2X23839   7.315   7.772   6.860 -0.5987  1.0048 -0.6256
  193DOPC   H2Y23840   7.493   7.801   6.814  1.8550  1.4925  3.3193
  193DOPC   C2323841   6.955   7.467   6.723 -0.7488 -0.2153 -0.1499
  193DOPC   H3R23842   7.023   7.380   6.732 -1.0902 -0.8474 -2.9035
  193DOPC   H3S23843   6.853   7.426   6.738 -0.0121 -1.2265  2.6633
  193DOPC   C2423844   6.981   7.566   6.836 -0.2663  0.0507  0.6163
  193DOPC   H4R23845   6.911   7.653   6.833 -3.5723 -2.4277 -0.7840
  193DOPC   H4S23846   7.083   7.608   6.826 -0.6709  1.4736  2.0686
  193DOPC   C2523847   6.976   7.513   6.979  0.6628  0.1810  0.3299
  193DOPC   H5R23848   7.039   7.421   6.987  1.2732  0.6320  0.7707
  193DOPC   H5S23849   6.868   7.490   6.992  0.4834  1.3048  0.8966
  193DOPC   C2623850   7.023   7.612   7.090 -0.2951  0.6045 -0.3506
  193DOPC   H6R23851   6.964   7.705   7.075 -0.6887  0.2907 -0.7507
  193DOPC   H6S23852   7.129   7.640   7.068 -0.3771  0.1670 -1.3286
  193DOPC   C2723853   7.008   7.573   7.237  0.2442  0.1018 -0.0617
  193DOPC   H7R23854   7.067   7.482   7.259  1.0610  0.7349  0.4441
  193DOPC   H7S23855   6.898   7.560   7.248  0.3847 -0.7275  0.4781
  193DOPC   C2823856   7.060   7.684   7.325  0.0294  0.3977  0.9823
  193DOPC   H8R23857   7.011   7.780   7.301 -0.1799 -0.0345 -0.4544
  193DOPC   H8S23858   7.167   7.706   7.301 -0.2034  0.5635  0.0547
  193DOPC   C2923859   7.029   7.660   7.471  0.2625  0.2253  0.2150
  193DOPC   H9R23860   7.092   7.579   7.511 -0.7058 -0.8707 -0.4041
  193DOPC  C21023861   6.926   7.707   7.543 -0.6668 -0.1508 -0.1441
  193DOPC  H10R23862   6.918   7.677   7.649 -0.9123 -0.2114 -0.1807
  193DOPC  C21123863   6.809   7.790   7.503  0.2988  1.0889  0.0738
  193DOPC  H11R23864   6.724   7.719   7.506  1.3670 -0.1770  1.7560
  193DOPC  H11S23865   6.821   7.817   7.395 -1.0716 -0.7814 -0.5865
  193DOPC  C21223866   6.778   7.911   7.586  0.2429  0.2394  0.5086
  193DOPC  H12R23867   6.708   7.967   7.519  0.4146 -1.2308 -0.9818
  193DOPC  H12S23868   6.866   7.977   7.600 -2.6872  4.6712  0.1035
  193DOPC  C21323869   6.705   7.887   7.714 -0.0707  0.5205 -0.0770
  193DOPC  H13R23870   6.784   7.869   7.790 -2.7415 -0.3538  2.7309
  193DOPC  H13S23871   6.643   7.794   7.711  1.6839 -0.6918 -0.3407
  193DOPC  C21423872   6.621   8.010   7.761 -0.3360  0.2565  0.1464
  193DOPC  H14R23873   6.541   8.028   7.686  1.1857 -2.1123 -2.2027
  193DOPC  H14S23874   6.696   8.092   7.764  0.8201 -0.7286 -0.7398
  193DOPC  C21523875   6.554   7.992   7.894 -0.1560  0.8432  0.3999
  193DOPC  H15R23876   6.617   7.953   7.977 -1.1999 -0.6545  0.5392
  193DOPC  H15S23877   6.476   7.913   7.890 -0.3730  1.0977 -1.1254
  193DOPC  C21623878   6.492   8.121   7.933 -0.1047  0.7750  0.3807
  193DOPC  H16R23879   6.427   8.159   7.852 -0.8667  0.5948  0.8932
  193DOPC  H16S23880   6.567   8.202   7.949 -0.0161  0.3611  2.2652
  193DOPC  C21723881   6.428   8.119   8.065 -0.4687 -0.0380 -0.4856
  193DOPC  H17R23882   6.497   8.096   8.149 -1.1287  3.8277  1.3292
  193DOPC  H17S23883   6.362   8.031   8.080 -0.3750  0.1332  1.1146
  193DOPC  C21823884   6.362   8.260   8.089  0.3849  0.3832  0.0188
  193DOPC  H18R23885   6.297   8.256   8.179 -0.2390  0.6662 -0.4151
  193DOPC  H18S23886   6.285   8.275   8.011 -1.5833  0.7800  1.9288
  193DOPC  H18T23887   6.439   8.340   8.098  0.8824 -0.1020  0.1263
  193DOPC   C3323888   7.431   7.939   6.959 -0.0212 -0.0804 -0.2275
  193DOPC   H3X23889   7.383   8.039   6.946  0.4329 -0.0898 -2.1921
  193DOPC   H3Y23890   7.542   7.950   6.957 -0.1711  1.6655 -1.1990
  193DOPC   C3423891   7.392   7.864   7.089 -0.2509  0.7029 -0.6909
  193DOPC   H4X23892   7.426   7.758   7.081 -0.8034  0.6248 -2.4967
  193DOPC   H4Y23893   7.282   7.866   7.102 -0.0498 -1.0962  1.8893
  193DOPC   C3523894   7.448   7.918   7.214  0.1452  0.0425 -0.1728
  193DOPC   H5X23895   7.415   8.024   7.219  2.6790  0.9212 -0.3021
  193DOPC   H5Y23896   7.559   7.929   7.203  0.0420  1.5009 -0.0279
  193DOPC   C3623897   7.412   7.855   7.349 -0.0676  0.2000 -0.1696
  193DOPC   H6X23898   7.308   7.889   7.365  0.9071  3.4620 -0.1423
  193DOPC   H6Y23899   7.436   7.746   7.353  1.3324  0.4889 -0.2182
  193DOPC   C3723900   7.480   7.922   7.474  0.3143 -0.8667 -0.5757
  193DOPC   H7X23901   7.587   7.891   7.478  0.9706  1.0001 -2.1048
  193DOPC   H7Y23902   7.479   8.030   7.448  0.5090 -0.7740 -0.2164
  193DOPC   C3823903   7.408   7.892   7.605 -0.1240  0.4835 -0.5809
  193DOPC   H8X23904   7.309   7.939   7.625 -1.1449 -2.0830  0.8598
  193DOPC   H8Y23905   7.472   7.933   7.687 -0.4191 -0.6526  0.2493
  193DOPC   C3923906   7.392   7.746   7.630  0.0968 -0.8249  0.2541
  193DOPC   H9X23907   7.447   7.672   7.569 -1.4764 -0.7441 -1.3265
  193DOPC  C31023908   7.298   7.682   7.708  0.0668  0.2915  0.7699
  193DOPC  H10X23909   7.306   7.573   7.709 -1.8575  0.1125  1.3616
  193DOPC  C31123910   7.204   7.745   7.808  0.6980  0.3840 -0.2626
  193DOPC  H11X23911   7.114   7.686   7.835 -0.7981  1.8781 -1.7599
  193DOPC  H11Y23912   7.168   7.844   7.772  0.3947 -0.2053 -1.6583
  193DOPC  C31223913   7.271   7.760   7.948 -0.2260  1.0482  0.4102
  193DOPC  H12X23914   7.192   7.791   8.020 -0.8831 -1.6664  0.9683
  193DOPC  H12Y23915   7.355   7.833   7.946 -1.7003  2.7817 -0.9648
  193DOPC  C31323916   7.327   7.626   8.001 -0.4280  0.5590 -0.2388
  193DOPC  H13X23917   7.408   7.585   7.938 -0.9917  0.5513 -0.9794
  193DOPC  H13Y23918   7.366   7.645   8.103 -1.4028  0.1520  0.2183
  193DOPC  C31423919   7.218   7.518   8.018  0.8939 -0.6475  0.1779
  193DOPC  H14X23920   7.135   7.579   8.059  2.5070  0.6317  1.6266
  193DOPC  H14Y23921   7.185   7.488   7.915  1.2907  1.6427 -0.6720
  193DOPC  C31523922   7.249   7.403   8.106  0.2448 -0.2226  0.3055
  193DOPC  H15X23923   7.288   7.447   8.201  0.6767  0.3004 -0.1083
  193DOPC  H15Y23924   7.326   7.334   8.065 -0.4496  0.2267 -1.8835
  193DOPC  C31623925   7.116   7.317   8.136 -0.3903 -0.0526  0.3106
  193DOPC  H16X23926   7.044   7.385   8.188  0.3185  1.6856 -0.9001
  193DOPC  H16Y23927   7.076   7.281   8.039 -1.0881 -0.3476  0.6967
  193DOPC  C31723928   7.147   7.194   8.223 -0.3069  0.6576  0.1740
  193DOPC  H17X23929   7.228   7.145   8.165 -2.3210  0.6465 -2.8873
  193DOPC  H17Y23930   7.175   7.225   8.326 -0.8808  0.5604  0.3660
  193DOPC  C31823931   7.034   7.088   8.239  0.3697 -0.5998  0.2818
  193DOPC  H18X23932   7.049   7.023   8.150 -1.2034  1.6622 -1.7692
  193DOPC  H18Y23933   7.046   7.039   8.337  2.6598 -1.1504 -0.2255
  193DOPC  H18Z23934   6.933   7.136   8.236 -0.7022 -2.7257 -2.4989
  194DOPC     N23935   2.785   5.442   6.172  0.5725 -0.1473 -0.1059
  194DOPC   C1223936   2.759   5.552   6.066 -0.9937 -0.3802  0.4300
  194DOPC  H12A23937   2.795   5.518   5.971 -2.2907 -0.3407 -0.1004
  194DOPC  H12B23938   2.821   5.632   6.101 -3.6949  0.7172  3.1647
  194DOPC   C1323939   2.927   5.388   6.160 -0.7647 -0.4682  0.4230
  194DOPC  H13A23940   3.006   5.457   6.185  1.1312 -1.7386 -1.6224
  194DOPC  H13B23941   2.943   5.303   6.226  1.9377  0.2812  0.8387
  194DOPC  H13C23942   2.939   5.364   6.055  0.8091 -0.6867  0.6366
  194DOPC   C1423943   2.682   5.333   6.147 -0.3795  0.2381 -0.3324
  194DOPC  H14A23944   2.580   5.365   6.159 -1.1755 -1.3605 -2.2449
  194DOPC  H14B23945   2.680   5.295   6.046 -1.3814 -1.9004  0.4286
  194DOPC  H14C23946   2.695   5.248   6.213 -1.9817  0.1841 -0.0501
  194DOPC   C1523947   2.766   5.509   6.306  0.3504 -0.2035  0.0673
  194DOPC  H15A23948   2.670   5.557   6.289  0.5525  0.4084  0.6332
  194DOPC  H15B23949   2.839   5.586   6.327  1.5186 -1.6983  1.8068
  194DOPC  H15C23950   2.771   5.440   6.389 -2.0548 -1.0559 -0.3898
  194DOPC   C1123951   2.628   5.620   6.036  0.5688 -0.0390 -0.2044
  194DOPC  H11A23952   2.635   5.688   5.948  1.7487 -0.3518 -0.3741
  194DOPC  H11B23953   2.555   5.541   6.008 -1.1075  1.3397  0.1408
  194DOPC     P23954   2.425   5.719   6.176 -0.5503  0.0061  0.2052
  194DOPC   O1323955   2.381   5.608   6.259 -0.4209  0.6592  0.5378
  194DOPC   O1423956   2.348   5.734   6.056 -0.1830  0.2049  0.0268
  194DOPC   O1223957   2.585   5.703   6.146 -0.4455 -0.1133  0.2264
  194DOPC   O1123958   2.423   5.846   6.267 -0.6190 -0.2209 -0.1068
  194DOPC    C123959   2.518   5.860   6.370  0.1875 -0.0929  0.2156
  194DOPC    HA23960   2.516   5.968   6.397  1.9964 -0.5740  2.6066
  194DOPC    HB23961   2.619   5.829   6.335 -0.4379 -1.0478 -0.8237
  194DOPC    C223962   2.486   5.792   6.502 -0.7199 -0.4018 -0.1462
  194DOPC    HS23963   2.477   5.684   6.481 -2.6705 -0.4732  0.8858
  194DOPC   O2123964   2.358   5.843   6.550 -0.3781  0.3172 -0.5260
  194DOPC   C2123965   2.308   5.758   6.639 -0.5195  0.0288  0.5165
  194DOPC   O2223966   2.352   5.649   6.666  0.3228  0.0659  0.1499
  194DOPC   C2223967   2.187   5.815   6.703 -0.4015  0.0822  0.5387
  194DOPC   H2R23968   2.103   5.746   6.683 -1.1083  0.7177  1.2670
  194DOPC   H2S23969   2.169   5.912   6.654  1.8175 -0.5935 -1.8768
  194DOPC    C323970   2.608   5.811   6.596 -0.3042 -0.1588  0.0872
  194DOPC    HX23971   2.697   5.768   6.545  0.2816 -1.3028  1.9725
  194DOPC    HY23972   2.586   5.746   6.684 -0.2655 -1.0893 -0.5744
  194DOPC   O3123973   2.620   5.953   6.632  0.0559  0.0771 -0.3473
  194DOPC   C3123974   2.720   5.982   6.712  0.3465 -0.3771  0.7719
  194DOPC   O3223975   2.809   5.902   6.738  0.3911 -0.3195 -0.2173
  194DOPC   C3223976   2.708   6.118   6.768 -1.0568  0.1827  0.8423
  194DOPC   H2X23977   2.643   6.191   6.715  1.9293  1.1751 -1.7941
  194DOPC   H2Y23978   2.679   6.108   6.875 -1.0082 -0.9742  0.7650
  194DOPC   C2323979   2.211   5.836   6.850  0.6059 -0.1893 -0.5723
  194DOPC   H3R23980   2.237   5.743   6.904  1.8958  0.6447  0.2774
  194DOPC   H3S23981   2.113   5.880   6.879 -0.4193 -2.7481  0.0970
  194DOPC   C2423982   2.311   5.943   6.892  0.0203  0.5658  0.3615
  194DOPC   H4R23983   2.282   6.036   6.838 -0.9218  0.1080  0.0523
  194DOPC   H4S23984   2.407   5.913   6.846 -1.0123 -1.3547 -0.7080
  194DOPC   C2523985   2.331   5.950   7.040  0.1074  0.5705  0.4479
  194DOPC   H5R23986   2.419   5.884   7.058 -0.1722 -0.3511 -1.4090
  194DOPC   H5S23987   2.236   5.909   7.081  0.3642 -3.6765 -2.4727
  194DOPC   C2623988   2.367   6.097   7.082  0.0172  0.3254 -0.2833
  194DOPC   H6R23989   2.268   6.149   7.085 -0.3533 -0.3272 -0.7598
  194DOPC   H6S23990   2.426   6.147   7.002  1.1949  0.3747  0.6005
  194DOPC   C2723991   2.449   6.106   7.214 -0.3710  0.0934  0.0831
  194DOPC   H7R23992   2.460   6.214   7.235 -0.4893 -0.2877  2.4933
  194DOPC   H7S23993   2.548   6.061   7.190  0.5031  2.6594 -1.4401
  194DOPC   C2823994   2.389   6.030   7.334  0.8607 -0.0383  0.1300
  194DOPC   H8R23995   2.465   6.028   7.415  0.7311 -0.0052  0.2538
  194DOPC   H8S23996   2.370   5.928   7.293 -1.0141  0.0452  0.7095
  194DOPC   C2923997   2.261   6.095   7.380 -0.0220 -0.5056  0.0222
  194DOPC   H9R23998   2.173   6.050   7.331 -0.0340  1.2480 -1.6634
  194DOPC  C21023999   2.245   6.176   7.489 -0.0230  0.8745 -0.2529
  194DOPC  H10R24000   2.143   6.213   7.504 -1.1397 -1.7155 -0.8986
  194DOPC  C21124001   2.349   6.225   7.588  0.7670  0.4592  0.4652
  194DOPC  H11R24002   2.313   6.320   7.633  0.1479  0.8799 -0.8762
  194DOPC  H11S24003   2.450   6.237   7.543  0.5531  0.3732 -0.0385
  194DOPC  C21224004   2.375   6.137   7.709 -0.4050  0.6246  0.1194
  194DOPC  H12R24005   2.412   6.035   7.685  1.7736  1.2038  0.8357
  194DOPC  H12S24006   2.284   6.122   7.771 -1.0026 -0.4180 -0.9689
  194DOPC  C21324007   2.471   6.207   7.802 -0.5526 -0.3386 -0.1620
  194DOPC  H13R24008   2.426   6.276   7.876  1.7716 -0.9018  1.9123
  194DOPC  H13S24009   2.540   6.262   7.734 -0.7152 -0.7968 -0.7069
  194DOPC  C21424010   2.562   6.108   7.872  1.0759  0.0567  0.7261
  194DOPC  H14R24011   2.635   6.079   7.793  1.1252  1.0501  0.3948
  194DOPC  H14S24012   2.498   6.025   7.909  0.7362  0.7416  1.7093
  194DOPC  C21524013   2.647   6.159   7.985 -0.2277 -0.2975  1.1135
  194DOPC  H15R24014   2.687   6.076   8.047  1.4230  1.4310  2.4775
  194DOPC  H15S24015   2.583   6.226   8.047 -1.7371 -0.9384  0.2981
  194DOPC  C21624016   2.767   6.244   7.944  0.0653 -0.4694 -0.2626
  194DOPC  H16R24017   2.740   6.322   7.869 -1.5371 -0.4915  0.2468
  194DOPC  H16S24018   2.839   6.188   7.881 -0.9273  1.1601 -3.0737
  194DOPC  C21724019   2.841   6.308   8.066 -0.2480  0.9451  1.0648
  194DOPC  H17R24020   2.848   6.222   8.136 -0.7685  0.4265  0.4923
  194DOPC  H17S24021   2.778   6.371   8.133  0.8704  0.5362  2.5776
  194DOPC  C21824022   2.972   6.376   8.035  0.2881  0.2369 -0.4924
  194DOPC  H18R24023   3.032   6.317   7.963  2.6994  2.2371 -0.2454
  194DOPC  H18S24024   3.040   6.386   8.123  1.6788 -1.5880 -1.3079
  194DOPC  H18T24025   2.948   6.476   7.992 -1.2120  0.2704  0.3585
  194DOPC   C3324026   2.840   6.208   6.778  0.2099  0.3731 -0.0819
  194DOPC   H3X24027   2.821   6.310   6.818 -1.4355  1.3231 -2.9705
  194DOPC   H3Y24028   2.877   6.223   6.675 -0.9511 -3.3296 -1.2252
  194DOPC   C3424029   2.944   6.142   6.870  0.0534  0.0985 -0.6944
  194DOPC   H4X24030   3.029   6.214   6.873  0.1660 -0.0450 -0.3059
  194DOPC   H4Y24031   2.975   6.048   6.820 -0.2609  0.7702 -2.1884
  194DOPC   C3524032   2.890   6.148   7.011 -0.3608 -0.4089  0.4710
  194DOPC   H5X24033   2.808   6.073   7.013 -0.3889 -0.4301 -0.8291
  194DOPC   H5Y24034   2.849   6.249   7.034  0.0035 -0.6511  2.3080
  194DOPC   C3624035   2.996   6.130   7.121  0.3675  0.3930  0.0956
  194DOPC   H6X24036   3.046   6.032   7.109 -2.4584 -1.0229 -0.9620
  194DOPC   H6Y24037   3.070   6.213   7.126  1.1714 -0.1695 -1.7189
  194DOPC   C3724038   2.936   6.132   7.264  0.5303 -0.3312 -0.0964
  194DOPC   H7X24039   2.867   6.219   7.269  1.5491  0.4752  0.1997
  194DOPC   H7Y24040   2.863   6.049   7.274  0.2510 -0.1531 -0.5810
  194DOPC   C3824041   3.039   6.147   7.384  0.0440  0.1582 -0.8003
  194DOPC   H8X24042   3.104   6.236   7.371  1.6243 -0.9678 -0.7665
  194DOPC   H8Y24043   3.110   6.062   7.378 -1.6305 -1.3087 -0.6561
  194DOPC   C3924044   2.974   6.149   7.521  0.4493 -0.3928 -0.1236
  194DOPC   H9X24045   2.972   6.057   7.581 -1.8884  0.5509  1.3776
  194DOPC  C31024046   2.894   6.249   7.573  0.6848 -0.1825 -0.3437
  194DOPC  H10X24047   2.845   6.239   7.671 -1.0336  1.0244 -1.0342
  194DOPC  C31124048   2.883   6.387   7.518 -0.1157 -0.4074  0.6346
  194DOPC  H11X24049   2.965   6.408   7.446 -1.3453  0.5312 -0.5371
  194DOPC  H11Y24050   2.906   6.472   7.586 -0.2671 -1.2734  1.7925
  194DOPC  C31224051   2.750   6.423   7.454 -0.2242 -0.4406  0.3439
  194DOPC  H12X24052   2.675   6.407   7.535  1.8802 -0.7458  2.3428
  194DOPC  H12Y24053   2.738   6.350   7.372 -1.2270 -0.5502  0.5772
  194DOPC  C31324054   2.744   6.565   7.399  0.1094 -0.6786 -0.2215
  194DOPC  H13X24055   2.637   6.594   7.401  0.4271  0.5964 -0.7232
  194DOPC  H13Y24056   2.815   6.619   7.466 -0.8151 -0.6871  0.7925
  194DOPC  C31424057   2.782   6.564   7.253  0.1604  0.7630 -0.1320
  194DOPC  H14X24058   2.851   6.482   7.224  0.4365  0.1959  1.9566
  194DOPC  H14Y24059   2.681   6.557   7.209 -0.0684  0.8956  0.3692
  194DOPC  C31524060   2.843   6.691   7.199  0.2159  0.2131 -0.3586
  194DOPC  H15X24061   2.872   6.674   7.094 -1.8011 -3.0782 -0.5185
  194DOPC  H15Y24062   2.935   6.713   7.258  0.3544 -0.1409 -0.4425
  194DOPC  C31624063   2.751   6.819   7.198  0.3622 -0.2347  0.3749
  194DOPC  H16X24064   2.646   6.814   7.161  1.2304  1.7722 -2.8193
  194DOPC  H16Y24065   2.749   6.856   7.302 -0.5752  1.5609 -0.2408
  194DOPC  C31724066   2.819   6.929   7.117  0.2410  0.6564 -0.0080
  194DOPC  H17X24067   2.830   6.893   7.013  1.0581 -0.6387  0.5129
  194DOPC  H17Y24068   2.750   7.016   7.114 -0.7531 -0.1338 -0.5599
  194DOPC  C31824069   2.956   6.969   7.171  0.4808  0.7391  0.3937
  194DOPC  H18X24070   2.945   7.006   7.275 -0.7513  2.0623 -0.1635
  194DOPC  H18Y24071   3.030   6.886   7.176  1.2733  1.4831  1.2477
  194DOPC  H18Z24072   2.991   7.059   7.116  1.5652  1.7535  2.6321
  195DOPC     N24073   4.090   5.315   6.035  0.5701  0.1935 -0.6356
  195DOPC   C1224074   4.166   5.243   6.139  0.3314  0.5514  0.3040
  195DOPC  H12A24075   4.258   5.298   6.150 -0.4069  2.0297 -0.6214
  195DOPC  H12B24076   4.189   5.144   6.102  0.9480  0.7488  0.1397
  195DOPC   C1324077   4.159   5.314   5.902  0.1023  0.0662 -0.2156
  195DOPC  H13A24078   4.252   5.366   5.916  0.6062  0.2130 -3.4087
  195DOPC  H13B24079   4.167   5.210   5.873 -0.0620  0.1987 -0.7395
  195DOPC  H13C24080   4.107   5.376   5.831 -0.1936  1.3386  1.0652
  195DOPC   C1424081   4.070   5.459   6.076  0.0205 -0.2031  0.1643
  195DOPC  H14A24082   4.031   5.519   5.995  0.2509 -2.4837 -1.7364
  195DOPC  H14B24083   4.008   5.457   6.165 -1.1265 -0.5422 -0.6279
  195DOPC  H14C24084   4.165   5.499   6.111 -1.2323  0.6332  2.9248
  195DOPC   C1524085   3.959   5.250   6.030  0.3587  0.2087  0.5740
  195DOPC  H15A24086   3.886   5.320   5.991  0.6647 -0.4646 -1.3039
  195DOPC  H15B24087   3.935   5.231   6.133  0.5402  0.5522  0.6824
  195DOPC  H15C24088   3.957   5.153   5.983 -0.4203  1.1216 -1.3940
  195DOPC   C1124089   4.111   5.234   6.285 -0.0657  0.0671  0.0714
  195DOPC  H11A24090   4.200   5.219   6.350 -0.7921  0.1555  1.1057
  195DOPC  H11B24091   4.070   5.335   6.301 -2.8874 -1.0019  0.1868
  195DOPC     P24092   4.039   4.987   6.340 -0.2526  0.0181 -0.3128
  195DOPC   O1324093   4.119   4.924   6.239  0.1001 -0.7224  0.5592
  195DOPC   O1424094   3.913   4.913   6.365 -0.0264 -0.0487 -0.0217
  195DOPC   O1224095   4.003   5.141   6.302 -0.3651  0.1580  0.5530
  195DOPC   O1124096   4.118   5.006   6.472  0.1688  0.0045  0.6929
  195DOPC    C124097   4.099   5.105   6.574 -0.1612  0.2567 -0.2653
  195DOPC    HA24098   4.057   5.201   6.535  1.0177  0.7598 -0.3457
  195DOPC    HB24099   4.197   5.124   6.622 -1.1314 -1.1828  2.4934
  195DOPC    C224100   3.998   5.047   6.672 -0.5621  0.3055  0.6663
  195DOPC    HS24101   3.917   4.991   6.620 -0.0664  0.0568  0.1456
  195DOPC   O2124102   3.941   5.157   6.749 -0.4142  0.1528  0.3015
  195DOPC   C2124103   3.831   5.136   6.810  0.2676 -0.2124  0.7324
  195DOPC   O2224104   3.765   5.028   6.810 -0.0475 -0.5363  0.4248
  195DOPC   C2224105   3.795   5.258   6.888 -0.1405  0.2876 -0.4580
  195DOPC   H2R24106   3.690   5.288   6.869 -1.0419 -0.3788  2.8752
  195DOPC   H2S24107   3.858   5.347   6.867 -0.5853  0.6134 -0.4055
  195DOPC    C324108   4.046   4.925   6.759 -1.0717  0.3752  1.0606
  195DOPC    HX24109   4.079   4.838   6.699 -0.5316  0.7151  0.8602
  195DOPC    HY24110   3.958   4.895   6.819 -2.0933  2.0420  0.4787
  195DOPC   O3124111   4.145   4.964   6.858  0.7375 -0.4180 -0.1839
  195DOPC   C3124112   4.266   4.910   6.835 -0.0185  0.3838  0.4044
  195DOPC   O3224113   4.295   4.846   6.739 -0.1451  0.1753  0.6018
  195DOPC   C3224114   4.352   4.931   6.955 -0.1962 -0.3651  0.1798
  195DOPC   H2X24115   4.457   4.953   6.928 -0.7998  3.1047  0.2598
  195DOPC   H2Y24116   4.299   5.014   7.007 -0.4343 -0.4161  0.0219
  195DOPC   C2324117   3.792   5.229   7.042  0.4508  0.4329  0.5701
  195DOPC   H3R24118   3.718   5.147   7.050  0.0596  0.8137  0.8547
  195DOPC   H3S24119   3.749   5.315   7.097  0.7172  0.4929  0.6876
  195DOPC   C2424120   3.922   5.190   7.107 -0.5772 -0.1796 -1.2638
  195DOPC   H4R24121   3.991   5.277   7.110 -2.1668  1.1433 -1.5578
  195DOPC   H4S24122   3.965   5.112   7.040  0.2029 -0.2171 -0.7307
  195DOPC   C2524123   3.902   5.155   7.248 -0.0676  0.0079  0.5879
  195DOPC   H5R24124   3.841   5.063   7.253 -0.4951  0.1802 -0.8435
  195DOPC   H5S24125   3.856   5.241   7.301 -0.0825 -0.1256  0.7926
  195DOPC   C2624126   4.037   5.127   7.317 -0.1014 -0.0644  0.3845
  195DOPC   H6R24127   4.111   5.209   7.300  0.9226 -1.0846 -0.2856
  195DOPC   H6S24128   4.069   5.030   7.273 -0.2743  0.2248 -0.3959
  195DOPC   C2724129   4.021   5.109   7.464  0.7991 -0.6003 -0.0306
  195DOPC   H7R24130   3.930   5.047   7.480 -2.1177  3.1557 -0.4573
  195DOPC   H7S24131   4.005   5.203   7.523  2.8035 -1.3470  1.8411
  195DOPC   C2824132   4.154   5.035   7.523  0.0044 -0.2263  0.8918
  195DOPC   H8R24133   4.177   4.955   7.449  2.2671  2.4881 -1.6124
  195DOPC   H8S24134   4.125   4.993   7.621 -1.9643 -0.9359  0.0685
  195DOPC   C2924135   4.275   5.120   7.525 -0.0572  0.0071 -0.3498
  195DOPC   H9R24136   4.287   5.196   7.446 -3.6084  0.4876 -0.6165
  195DOPC  C21024137   4.367   5.125   7.628  0.2803 -0.4225 -0.7303
  195DOPC  H10R24138   4.445   5.202   7.622 -0.9373  1.0675  1.2308
  195DOPC  C21124139   4.364   5.029   7.742 -0.1031  0.1234  0.0737
  195DOPC  H11R24140   4.434   4.945   7.720 -0.9303 -0.7270  0.6020
  195DOPC  H11S24141   4.265   4.982   7.757 -0.5006  0.6491 -0.8095
  195DOPC  C21224142   4.412   5.093   7.870 -0.0431  0.1569 -0.1670
  195DOPC  H12R24143   4.339   5.167   7.909 -1.3475 -1.8992  1.5149
  195DOPC  H12S24144   4.514   5.136   7.860 -0.3163  0.4009 -2.2324
  195DOPC  C21324145   4.430   4.988   7.983 -0.0613  0.3454  0.0437
  195DOPC  H13R24146   4.502   5.021   8.061  2.6644 -3.9529 -0.3038
  195DOPC  H13S24147   4.472   4.889   7.955  3.6583  1.6246  0.5998
  195DOPC  C21424148   4.303   4.949   8.066  0.2128  0.7632 -0.1180
  195DOPC  H14R24149   4.225   4.921   7.992  1.1106  0.5669 -0.9987
  195DOPC  H14S24150   4.270   5.026   8.139 -0.2796 -0.6965  1.2446
  195DOPC  C21524151   4.329   4.822   8.164 -0.2725 -0.1019  0.9233
  195DOPC  H15R24152   4.419   4.863   8.215  0.7239 -1.4023  0.2809
  195DOPC  H15S24153   4.354   4.737   8.096 -2.4415 -0.5224  0.5904
  195DOPC  C21624154   4.205   4.781   8.249  0.1066 -0.4351  0.1388
  195DOPC  H16R24155   4.126   4.752   8.176  0.8263  2.0803 -1.8160
  195DOPC  H16S24156   4.164   4.865   8.309  0.3782 -0.3282  0.1767
  195DOPC  C21724157   4.234   4.668   8.348  0.1965  0.2464 -0.3774
  195DOPC  H17R24158   4.281   4.709   8.439  0.5540  1.0536 -0.9145
  195DOPC  H17S24159   4.304   4.597   8.297 -1.4719 -0.5956 -1.5876
  195DOPC  C21824160   4.113   4.583   8.385  0.1370 -0.8056  0.2959
  195DOPC  H18R24161   4.072   4.533   8.294 -2.1714  0.0771  0.7767
  195DOPC  H18S24162   4.031   4.649   8.419  0.5800 -1.0587  1.9288
  195DOPC  H18T24163   4.125   4.519   8.475 -0.9556 -0.2789  0.8296
  195DOPC   C3324164   4.356   4.811   7.050  0.5163 -0.0864 -0.2192
  195DOPC   H3X24165   4.443   4.744   7.027  0.6744  0.8006 -2.3818
  195DOPC   H3Y24166   4.257   4.763   7.037 -0.0341  0.4773  1.6835
  195DOPC   C3424167   4.347   4.850   7.197  0.0855  0.1686 -0.0752
  195DOPC   H4X24168   4.263   4.921   7.213 -0.9848 -1.3696  1.6724
  195DOPC   H4Y24169   4.449   4.886   7.221  0.0948  0.3977 -0.4570
  195DOPC   C3524170   4.313   4.730   7.285 -0.2792  0.2332 -0.1634
  195DOPC   H5X24171   4.364   4.641   7.243 -0.7688 -0.8309  1.3972
  195DOPC   H5Y24172   4.202   4.721   7.283 -0.1441 -2.1239  0.0908
  195DOPC   C3624173   4.357   4.744   7.432 -0.8768  0.0849 -0.2857
  195DOPC   H6X24174   4.468   4.750   7.442 -1.0103  0.4799  1.2674
  195DOPC   H6Y24175   4.296   4.818   7.487  1.5486  2.4806 -0.5624
  195DOPC   C3724176   4.331   4.614   7.514  0.4366  0.2793 -0.3487
  195DOPC   H7X24177   4.232   4.572   7.485  2.1125 -2.2243 -2.9836
  195DOPC   H7Y24178   4.403   4.541   7.474  1.0302  0.7749 -0.2037
  195DOPC   C3824179   4.367   4.637   7.667  0.4791  0.5246 -0.5392
  195DOPC   H8X24180   4.448   4.713   7.670 -0.1381  1.4683 -3.7987
  195DOPC   H8Y24181   4.412   4.538   7.693  0.2774  0.9843  1.8023
  195DOPC   C3924182   4.259   4.667   7.765  0.3524  0.7147 -0.7385
  195DOPC   H9X24183   4.190   4.748   7.737 -2.0993  0.1307  2.8502
  195DOPC  C31024184   4.231   4.605   7.885 -0.6266 -0.0032 -0.3217
  195DOPC  H10X24185   4.139   4.639   7.935  0.0027 -1.1927  1.7331
  195DOPC  C31124186   4.298   4.486   7.958 -0.0591  0.0539 -0.0351
  195DOPC  H11X24187   4.342   4.535   8.047  0.8785 -1.0469  0.1355
  195DOPC  H11Y24188   4.368   4.429   7.893 -0.1643 -1.0179  0.7585
  195DOPC  C31224189   4.197   4.387   8.017  0.1658  0.3574 -0.4842
  195DOPC  H12X24190   4.164   4.326   7.930 -0.9554  0.3397 -0.0549
  195DOPC  H12Y24191   4.116   4.447   8.064  0.8167  1.1226 -0.3166
  195DOPC  C31324192   4.254   4.294   8.130  0.6717 -0.4082  0.5256
  195DOPC  H13X24193   4.340   4.237   8.089  0.7254  0.3507 -0.4571
  195DOPC  H13Y24194   4.282   4.367   8.208  2.1529  1.1922 -1.3848
  195DOPC  C31424195   4.138   4.207   8.173 -0.4603  0.0588 -0.1251
  195DOPC  H14X24196   4.167   4.169   8.273 -0.4909 -1.8612 -0.7992
  195DOPC  H14Y24197   4.043   4.265   8.180  0.0739  0.7957  1.4202
  195DOPC  C31524198   4.109   4.080   8.090 -0.3925 -0.1065 -0.3842
  195DOPC  H15X24199   4.205   4.029   8.065 -0.1455 -1.2090  2.5014
  195DOPC  H15Y24200   4.057   4.110   7.996 -1.2957  2.8156  0.9192
  195DOPC  C31624201   4.012   3.975   8.147 -0.4328  0.0532 -0.6661
  195DOPC  H16X24202   4.044   3.937   8.246 -0.5018  1.5215 -0.0560
  195DOPC  H16Y24203   3.915   4.028   8.151 -0.3881  0.0984 -0.0439
  195DOPC  C31724204   4.002   3.850   8.059 -0.6812  0.2006  0.2705
  195DOPC  H17X24205   4.026   3.878   7.954  1.7343 -1.1492  0.3877
  195DOPC  H17Y24206   4.073   3.776   8.102  0.1414  1.5638  1.3590
  195DOPC  C31824207   3.865   3.800   8.063 -0.1746  0.2629 -0.6161
  195DOPC  H18X24208   3.843   3.754   7.964 -2.8342 -1.2614  0.5757
  195DOPC  H18Y24209   3.841   3.729   8.145  0.6716  0.3075 -0.3313
  195DOPC  H18Z24210   3.794   3.886   8.067 -0.7467 -0.2288  0.2979
  196DOPC     N24211   2.235   6.124   6.060  0.2839  0.8480 -0.0565
  196DOPC   C1224212   2.206   6.229   6.163  0.1008 -0.7344 -0.0066
  196DOPC  H12A24213   2.207   6.178   6.259 -0.3075 -1.2372 -0.2703
  196DOPC  H12B24214   2.105   6.260   6.141 -0.5578 -1.7023  1.4473
  196DOPC   C1324215   2.382   6.084   6.065  0.1556 -0.6518 -0.2251
  196DOPC  H13A24216   2.393   6.021   5.979 -1.9972  1.2042 -1.9704
  196DOPC  H13B24217   2.451   6.167   6.061 -0.4849 -0.1821 -2.0510
  196DOPC  H13C24218   2.396   6.024   6.154 -1.7047  0.4997  0.9037
  196DOPC   C1424219   2.204   6.185   5.921  0.3065 -0.4444 -0.4459
  196DOPC  H14A24220   2.226   6.117   5.840  1.6305  0.6781 -1.0723
  196DOPC  H14B24221   2.105   6.228   5.920  0.8138  0.8477  1.0188
  196DOPC  H14C24222   2.271   6.265   5.895 -1.9396  1.9135  0.5686
  196DOPC   C1524223   2.149   6.001   6.090  0.4791 -0.4758  0.2315
  196DOPC  H15A24224   2.152   5.970   6.194  1.8486  2.6336  1.2525
  196DOPC  H15B24225   2.190   5.915   6.040 -1.5294 -1.1454 -0.3481
  196DOPC  H15C24226   2.048   6.025   6.062  0.2838 -0.1312  1.1735
  196DOPC   C1124227   2.300   6.348   6.179 -0.8009 -0.2653  0.0864
  196DOPC  H11A24228   2.246   6.417   6.247  1.4485 -0.5058  2.2813
  196DOPC  H11B24229   2.392   6.318   6.235  2.0226  1.5876 -3.1396
  196DOPC     P24230   2.291   6.537   6.000  0.2680 -0.0237  0.2218
  196DOPC   O1324231   2.154   6.521   5.957 -0.6263  0.3233 -0.0579
  196DOPC   O1424232   2.387   6.580   5.897  0.1223  0.3920  0.1816
  196DOPC   O1224233   2.338   6.406   6.056  0.5905  0.1822 -0.2164
  196DOPC   O1124234   2.303   6.628   6.123 -0.2543  0.4259  0.0258
  196DOPC    C124235   2.414   6.686   6.175  0.0298 -0.3655 -0.4827
  196DOPC    HA24236   2.419   6.797   6.166  2.0826 -0.3616  0.0720
  196DOPC    HB24237   2.509   6.646   6.134  0.7319  1.6909 -1.0103
  196DOPC    C224238   2.419   6.665   6.334  0.6314  0.1993  0.6325
  196DOPC    HS24239   2.433   6.556   6.349 -2.9044 -0.1860  2.1921
  196DOPC   O2124240   2.304   6.714   6.399  0.2509  0.5909 -0.0136
  196DOPC   C2124241   2.260   6.630   6.498 -0.2637  0.4488  0.1875
  196DOPC   O2224242   2.301   6.517   6.525  0.0177 -0.2022 -0.0604
  196DOPC   C2224243   2.170   6.717   6.579 -0.4353  0.4433 -0.7144
  196DOPC   H2R24244   2.080   6.739   6.518 -0.9803 -1.3655 -0.6070
  196DOPC   H2S24245   2.227   6.811   6.597 -0.8972  0.8763 -1.4605
  196DOPC    C324246   2.540   6.740   6.389  0.2536  0.0205  0.5327
  196DOPC    HX24247   2.525   6.848   6.369 -0.5786  0.0532  1.2981
  196DOPC    HY24248   2.637   6.717   6.339  0.6740  1.1074  0.8205
  196DOPC   O3124249   2.551   6.722   6.530  0.0134 -0.0685 -0.3607
  196DOPC   C3124250   2.625   6.622   6.574 -0.4732 -0.5287  0.3000
  196DOPC   O3224251   2.694   6.549   6.507 -0.1470 -0.0481  0.6975
  196DOPC   C3224252   2.628   6.623   6.725 -0.3101 -0.0170 -0.0623
  196DOPC   H2X24253   2.691   6.535   6.751  0.2040  0.5760  0.7450
  196DOPC   H2Y24254   2.676   6.718   6.756 -0.3742 -0.4563  1.4167
  196DOPC   C2324255   2.127   6.655   6.715  0.5409  0.1278 -0.1725
  196DOPC   H3R24256   2.214   6.654   6.783  0.0606 -1.0153  0.4459
  196DOPC   H3S24257   2.097   6.550   6.697 -1.5109  0.5591  0.4650
  196DOPC   C2424258   2.009   6.737   6.764 -0.6314  0.1980 -0.6582
  196DOPC   H4R24259   1.924   6.734   6.693 -1.8954 -0.3021  0.8160
  196DOPC   H4S24260   2.043   6.841   6.781 -5.1267  1.9294 -0.8461
  196DOPC   C2524261   1.960   6.676   6.897 -1.0118  0.7831 -0.2926
  196DOPC   H5R24262   2.041   6.679   6.973 -1.0091 -0.3854 -0.2378
  196DOPC   H5S24263   1.946   6.568   6.875 -0.1944  0.3794  1.0703
  196DOPC   C2624264   1.829   6.749   6.943  0.7699  0.0733  0.1795
  196DOPC   H6R24265   1.751   6.736   6.866  0.5902  0.2388  0.3333
  196DOPC   H6S24266   1.850   6.858   6.945 -0.9397  0.5402 -2.5138
  196DOPC   C2724267   1.786   6.692   7.079  0.0438  0.1173  0.3086
  196DOPC   H7R24268   1.859   6.714   7.159  1.1065 -2.7283  0.2558
  196DOPC   H7S24269   1.799   6.582   7.071 -1.1309 -0.0960  1.1124
  196DOPC   C2824270   1.645   6.731   7.130  0.3038 -0.5147  0.2626
  196DOPC   H8R24271   1.634   6.704   7.238 -2.8834  1.0968  0.4541
  196DOPC   H8S24272   1.568   6.675   7.075 -0.6674 -0.0459  1.1035
  196DOPC   C2924273   1.616   6.879   7.119  0.5183 -0.2934 -0.1151
  196DOPC   H9R24274   1.612   6.918   7.016  0.1658 -0.5716 -0.2094
  196DOPC  C21024275   1.588   6.970   7.221  0.3431  0.0311 -0.1330
  196DOPC  H10R24276   1.599   7.079   7.208  0.3659 -0.0772 -1.0808
  196DOPC  C21124277   1.579   6.930   7.364 -0.5957 -0.1338  0.6307
  196DOPC  H11R24278   1.642   6.995   7.428 -1.4226  0.3997  0.9165
  196DOPC  H11S24279   1.604   6.824   7.387 -2.4848 -0.8247 -0.2857
  196DOPC  C21224280   1.437   6.959   7.411 -0.2463  0.1732  0.2990
  196DOPC  H12R24281   1.410   7.064   7.386  3.4926  1.0200 -0.6965
  196DOPC  H12S24282   1.432   6.938   7.520 -0.4293 -1.2324  0.0472
  196DOPC  C21324283   1.322   6.866   7.348 -0.2617  0.4211 -0.0972
  196DOPC  H13R24284   1.344   6.764   7.386 -0.5434  0.7028  0.8661
  196DOPC  H13S24285   1.340   6.858   7.239  1.4648 -1.4054  0.2715
  196DOPC  C21424286   1.182   6.918   7.378  0.5846  0.8830  0.2962
  196DOPC  H14R24287   1.185   7.024   7.345 -0.7671  0.5095 -1.1658
  196DOPC  H14S24288   1.186   6.907   7.488  1.3127  1.6968  0.3556
  196DOPC  C21524289   1.082   6.844   7.290 -0.2472  0.4824 -0.1285
  196DOPC  H15R24290   1.084   6.736   7.313 -0.4941  0.3426 -0.7485
  196DOPC  H15S24291   1.104   6.849   7.182 -1.5708  0.9896 -0.3979
  196DOPC  C21624292   0.937   6.906   7.303 -0.5693  0.5285 -0.3521
  196DOPC  H16R24293   0.936   7.017   7.309  0.3080  0.5380 -0.2901
  196DOPC  H16S24294   0.902   6.873   7.403  0.0520 -0.5636 -0.4778
  196DOPC  C21724295   0.844   6.854   7.201 -0.3452 -0.5895  0.5006
  196DOPC  H17R24296   0.894   6.861   7.102  0.8047  0.7242  1.1476
  196DOPC  H17S24297   0.756   6.922   7.206  1.4786  1.7909  2.8272
  196DOPC  C21824298   0.792   6.717   7.223  0.0956  0.1830 -0.7228
  196DOPC  H18R24299   0.741   6.712   7.322  2.0710  1.2317  0.4122
  196DOPC  H18S24300   0.876   6.645   7.224 -0.5546 -0.5881 -1.0160
  196DOPC  H18T24301   0.716   6.685   7.149 -2.6214  3.6731  0.2516
  196DOPC   C3324302   2.496   6.585   6.787 -0.0327  0.0102 -0.4683
  196DOPC   H3X24303   2.456   6.487   6.752 -2.4759  0.8037 -0.0869
  196DOPC   H3Y24304   2.430   6.668   6.754 -0.4056  0.4698  1.3151
  196DOPC   C3424305   2.501   6.577   6.943 -0.1436 -0.5523  0.1357
  196DOPC   H4X24306   2.517   6.681   6.980  2.5555 -1.3005  1.3016
  196DOPC   H4Y24307   2.586   6.519   6.984  0.6419  0.2376 -0.3484
  196DOPC   C3524308   2.360   6.531   7.004  0.4595  0.5329 -0.2712
  196DOPC   H5X24309   2.334   6.438   6.950  0.9162  1.2063 -1.7152
  196DOPC   H5Y24310   2.286   6.606   6.968 -0.9017 -0.6594 -0.0076
  196DOPC   C3624311   2.360   6.519   7.157 -0.1199  0.4704  0.2761
  196DOPC   H6X24312   2.255   6.488   7.174 -1.1701  0.1510 -5.1304
  196DOPC   H6Y24313   2.444   6.457   7.195  1.2771  2.3284  0.3668
  196DOPC   C3724314   2.394   6.656   7.221 -0.2412  0.0017  0.6304
  196DOPC   H7X24315   2.501   6.680   7.205 -1.0092  2.7587 -1.0949
  196DOPC   H7Y24316   2.336   6.734   7.168 -1.2435 -1.6009 -0.7257
  196DOPC   C3824317   2.361   6.643   7.373  0.0038 -0.0750  0.0941
  196DOPC   H8X24318   2.395   6.542   7.404  1.9830 -0.5341 -3.1379
  196DOPC   H8Y24319   2.250   6.648   7.378  0.0713  2.8593 -0.1097
  196DOPC   C3924320   2.408   6.745   7.470 -0.4710  0.2218 -0.6774
  196DOPC   H9X24321   2.399   6.848   7.430 -0.6260 -0.1412 -1.6079
  196DOPC  C31024322   2.433   6.725   7.603  0.4893  0.0998  0.1995
  196DOPC  H10X24323   2.460   6.812   7.664 -1.7800  0.7790  0.3372
  196DOPC  C31124324   2.427   6.597   7.685  0.7032  0.3260 -0.0858
  196DOPC  H11X24325   2.498   6.601   7.770  0.6964 -0.6507 -0.0210
  196DOPC  H11Y24326   2.440   6.502   7.628 -0.3964 -0.3476  0.7614
  196DOPC  C31224327   2.288   6.565   7.745  0.0517  0.1424 -0.0327
  196DOPC  H12X24328   2.296   6.465   7.793  2.4425  0.2000 -0.1794
  196DOPC  H12Y24329   2.217   6.554   7.661 -1.8240 -2.2965  1.7104
  196DOPC  C31324330   2.229   6.658   7.855 -0.5038  0.1743 -0.2339
  196DOPC  H13X24331   2.204   6.753   7.803  0.5012 -0.0096 -1.0774
  196DOPC  H13Y24332   2.134   6.622   7.900  0.6017  0.3173  2.3613
  196DOPC  C31424333   2.331   6.687   7.969  0.2522  0.3306  0.1891
  196DOPC  H14X24334   2.416   6.751   7.934  0.5662 -0.0610  0.2289
  196DOPC  H14Y24335   2.279   6.752   8.042 -1.0613  1.9013 -1.9892
  196DOPC  C31524336   2.390   6.564   8.044 -0.1121 -0.4185 -0.2172
  196DOPC  H15X24337   2.489   6.578   8.092 -1.1080  0.8959  1.5741
  196DOPC  H15Y24338   2.419   6.496   7.961  1.6476 -0.0611  0.0832
  196DOPC  C31624339   2.298   6.506   8.152 -0.1661  0.1397  0.2633
  196DOPC  H16X24340   2.285   6.569   8.242 -2.2604 -0.2789  0.3044
  196DOPC  H16Y24341   2.208   6.477   8.094  0.0047  0.6375 -0.2533
  196DOPC  C31724342   2.356   6.367   8.197 -0.1617 -0.2311 -0.2215
  196DOPC  H17X24343   2.349   6.305   8.105 -0.3989  0.5717 -0.7487
  196DOPC  H17Y24344   2.459   6.386   8.235 -1.0017  1.5386  1.3318
  196DOPC  C31824345   2.275   6.291   8.306  0.3434  0.3228  0.3516
  196DOPC  H18X24346   2.175   6.299   8.259  0.7316  1.1720 -0.3812
  196DOPC  H18Y24347   2.302   6.184   8.319  3.0774  1.1614  2.5403
  196DOPC  H18Z24348   2.297   6.337   8.404  3.4577 -1.7301  0.7677
  197DOPC     N24349   1.616   3.783   6.051  0.3577 -0.2971 -0.4810
  197DOPC   C1224350   1.603   3.671   6.146 -0.4319  0.6949  0.4558
  197DOPC  H12A24351   1.586   3.711   6.245  1.7366  1.2180  0.6553
  197DOPC  H12B24352   1.701   3.628   6.154 -0.0013  1.5444 -0.0634
  197DOPC   C1324353   1.647   3.739   5.906 -0.0464  0.3611 -0.3044
  197DOPC  H13A24354   1.580   3.662   5.869 -0.5809  0.0188  1.3128
  197DOPC  H13B24355   1.638   3.822   5.837  1.5124  0.2627 -0.6496
  197DOPC  H13C24356   1.747   3.700   5.900 -0.7444 -1.4158 -1.1452
  197DOPC   C1424357   1.738   3.863   6.095  0.1801 -0.5101  0.0511
  197DOPC  H14A24358   1.725   3.917   6.188  1.5915 -1.2433  0.7066
  197DOPC  H14B24359   1.823   3.800   6.117  0.4541 -1.0310 -2.2934
  197DOPC  H14C24360   1.765   3.931   6.016 -0.2846 -0.8565 -0.4078
  197DOPC   C1524361   1.504   3.879   6.041  0.6210 -0.1268  0.1810
  197DOPC  H15A24362   1.526   3.953   5.965  2.0766 -1.3587 -0.6419
  197DOPC  H15B24363   1.497   3.939   6.131 -2.0941  2.7397 -1.7255
  197DOPC  H15C24364   1.404   3.839   6.037  0.2681  0.5754  1.2751
  197DOPC   C1124365   1.496   3.563   6.110 -0.1371 -0.1984 -0.7696
  197DOPC  H11A24366   1.525   3.512   6.015  1.6635 -1.3442  0.3084
  197DOPC  H11B24367   1.500   3.480   6.185 -0.7441  1.1293  0.7917
  197DOPC     P24368   1.273   3.657   6.213 -0.3172  0.0594  0.4452
  197DOPC   O1324369   1.155   3.567   6.217  0.0073  0.4315 -0.6905
  197DOPC   O1424370   1.247   3.800   6.211 -0.7887  0.0750 -0.2168
  197DOPC   O1224371   1.364   3.612   6.093 -0.0529  0.2175  0.2043
  197DOPC   O1124372   1.363   3.627   6.339 -0.2418 -0.6737  0.4101
  197DOPC    C124373   1.408   3.732   6.429  0.6411 -0.2043  0.9093
  197DOPC    HA24374   1.451   3.816   6.369 -0.5370 -1.1267 -1.3660
  197DOPC    HB24375   1.490   3.681   6.483 -0.2190 -0.5837  1.8935
  197DOPC    C224376   1.300   3.765   6.535 -0.8145 -0.5381 -0.1620
  197DOPC    HS24377   1.352   3.830   6.608 -0.6827  0.7319 -1.3533
  197DOPC   O2124378   1.244   3.642   6.603 -0.1716 -0.3521 -0.3041
  197DOPC   C2124379   1.326   3.574   6.681  0.5693  0.3903 -0.0233
  197DOPC   O2224380   1.437   3.608   6.715 -0.2729  0.0373  0.3192
  197DOPC   C2224381   1.240   3.456   6.737 -0.6854 -0.2468  0.0090
  197DOPC   H2R24382   1.230   3.381   6.656  2.2589 -1.3666  0.5702
  197DOPC   H2S24383   1.139   3.490   6.770  1.1386  2.9215  3.0120
  197DOPC    C324384   1.188   3.860   6.483 -0.4239 -0.4732 -0.4253
  197DOPC    HX24385   1.121   3.802   6.415  1.0693 -0.1713 -2.2396
  197DOPC    HY24386   1.228   3.940   6.417  0.5728  0.2024  0.9598
  197DOPC   O3124387   1.102   3.918   6.589  0.5501  0.0101 -1.0676
  197DOPC   C3124388   1.154   4.027   6.656  0.5947  0.0395  0.4813
  197DOPC   O3224389   1.255   4.083   6.621  0.0476 -0.1868 -0.2023
  197DOPC   C3224390   1.064   4.068   6.767  0.0943  0.3161 -0.0637
  197DOPC   H2X24391   1.125   4.125   6.840  1.1035 -1.9549  0.9605
  197DOPC   H2Y24392   0.987   4.133   6.720  1.4580  1.9215 -0.1631
  197DOPC   C2324393   1.308   3.387   6.860  0.1242 -0.1082  0.4054
  197DOPC   H3R24394   1.413   3.365   6.830  0.4702  1.3198  0.5105
  197DOPC   H3S24395   1.245   3.297   6.875  0.0318 -0.6240 -2.5257
  197DOPC   C2424396   1.312   3.478   6.985 -0.6471 -1.1633 -0.4818
  197DOPC   H4R24397   1.207   3.511   6.997  0.1346  1.3191  0.0301
  197DOPC   H4S24398   1.376   3.566   6.962 -0.8340 -0.5283  1.2742
  197DOPC   C2524399   1.366   3.399   7.104 -0.1075 -0.2195 -0.0172
  197DOPC   H5R24400   1.477   3.390   7.095  0.0771  0.5693  1.2657
  197DOPC   H5S24401   1.329   3.294   7.103  1.9398 -1.0117  0.3875
  197DOPC   C2624402   1.332   3.462   7.245 -0.5239 -0.6972 -0.4992
  197DOPC   H6R24403   1.222   3.460   7.257 -0.4630  1.8915  1.3127
  197DOPC   H6S24404   1.355   3.570   7.238 -0.0435 -0.5909  1.8737
  197DOPC   C2724405   1.411   3.396   7.352  0.1217 -0.0843 -0.4454
  197DOPC   H7R24406   1.513   3.436   7.331  0.1692  1.0825  1.7111
  197DOPC   H7S24407   1.425   3.286   7.348  1.1776 -0.0188  0.6807
  197DOPC   C2824408   1.360   3.433   7.493  0.1410  0.8632  0.1431
  197DOPC   H8R24409   1.409   3.357   7.558 -2.8729 -1.9850 -0.6325
  197DOPC   H8S24410   1.250   3.418   7.499  0.3363 -0.0231  2.2754
  197DOPC   C2924411   1.392   3.566   7.546 -0.3624 -0.0850 -0.0709
  197DOPC   H9R24412   1.432   3.636   7.471 -3.3261  0.6818 -1.0830
  197DOPC  C21024413   1.367   3.622   7.670 -0.6758 -0.1008 -0.7866
  197DOPC  H10R24414   1.395   3.727   7.687  0.1838 -0.3390 -0.6686
  197DOPC  C21124415   1.319   3.551   7.792 -0.0964 -0.2333  0.4587
  197DOPC  H11R24416   1.222   3.502   7.769  0.7059 -1.3834 -0.5704
  197DOPC  H11S24417   1.302   3.626   7.873  0.2047 -0.4762  0.7519
  197DOPC  C21224418   1.417   3.443   7.847  0.1871 -0.3697 -0.7186
  197DOPC  H12R24419   1.513   3.500   7.850 -0.2011  0.3411 -1.3864
  197DOPC  H12S24420   1.428   3.359   7.775 -0.8941  1.0045 -2.5581
  197DOPC  C21324421   1.399   3.404   8.000  0.1308  0.0517  0.3393
  197DOPC  H13R24422   1.293   3.375   8.014 -0.9282  1.5132 -3.3937
  197DOPC  H13S24423   1.418   3.487   8.072 -1.7463 -0.6723  1.7272
  197DOPC  C21424424   1.492   3.286   8.039 -0.4537  0.0878 -0.0749
  197DOPC  H14R24425   1.469   3.201   7.971  1.6483 -0.6989  0.1387
  197DOPC  H14S24426   1.476   3.255   8.144  0.1159  3.1937  1.0262
  197DOPC  C21524427   1.651   3.308   8.025  0.2296 -0.2885  0.3257
  197DOPC  H15R24428   1.677   3.401   8.079 -1.4007  0.6191 -0.3828
  197DOPC  H15S24429   1.681   3.324   7.919 -1.7912 -1.8872 -0.5677
  197DOPC  C21624430   1.724   3.182   8.069  0.1032 -0.0259 -0.0655
  197DOPC  H16R24431   1.657   3.098   8.040 -0.4512 -0.0576  1.2161
  197DOPC  H16S24432   1.734   3.168   8.179 -3.7816 -0.6215  0.3580
  197DOPC  C21724433   1.864   3.179   7.995  0.6003 -0.5303 -0.7756
  197DOPC  H17R24434   1.916   3.262   8.047 -0.8473  0.3487 -0.6473
  197DOPC  H17S24435   1.855   3.201   7.887  0.4658  1.0689 -0.4768
  197DOPC  C21824436   1.931   3.041   8.018 -0.4156  0.5815  0.1222
  197DOPC  H18R24437   2.041   3.055   8.016 -0.3406  0.1977  0.8735
  197DOPC  H18S24438   1.911   2.976   7.930  0.2885 -2.4929  2.0445
  197DOPC  H18T24439   1.901   2.990   8.113 -1.1685 -1.7927 -1.3098
  197DOPC   C3324440   1.005   3.944   6.838  0.3386  0.3121 -0.4066
  197DOPC   H3X24441   0.954   3.874   6.769  0.9448  0.1881 -0.7370
  197DOPC   H3Y24442   0.928   3.972   6.913  0.7507  1.1821 -0.3021
  197DOPC   C3424443   1.114   3.868   6.913 -0.4424 -1.0210  0.5271
  197DOPC   H4X24444   1.148   3.947   6.982  0.1818  1.4915 -2.4204
  197DOPC   H4Y24445   1.204   3.848   6.850  0.1901  1.5399  0.5314
  197DOPC   C3524446   1.064   3.745   6.982  0.2530  0.8791  0.0974
  197DOPC   H5X24447   1.152   3.727   7.046  1.1269  3.5092 -0.2491
  197DOPC   H5Y24448   1.054   3.672   6.899 -0.2682  0.7786  0.2453
  197DOPC   C3624449   0.932   3.760   7.056  1.1118 -0.1624  0.2412
  197DOPC   H6X24450   0.937   3.858   7.108  2.2520  1.0456 -1.9913
  197DOPC   H6Y24451   0.851   3.774   6.981  1.4136  1.3448  0.1793
  197DOPC   C3724452   0.896   3.637   7.144  0.0669 -0.0572  0.4313
  197DOPC   H7X24453   0.971   3.632   7.225  0.7168 -1.4049 -0.2168
  197DOPC   H7Y24454   0.797   3.649   7.194 -1.2116 -0.6670 -1.7953
  197DOPC   C3824455   0.889   3.506   7.073  0.7021  0.5989 -0.9599
  197DOPC   H8X24456   0.995   3.478   7.052  0.9177  0.0260  0.7088
  197DOPC   H8Y24457   0.835   3.533   6.980 -2.6277 -0.1482  0.6077
  197DOPC   C3924458   0.817   3.394   7.147 -0.1930  0.2209 -0.5307
  197DOPC   H9X24459   0.721   3.417   7.196  0.5810 -0.7379  1.5375
  197DOPC  C31024460   0.868   3.276   7.187 -0.5648 -0.0325 -0.0954
  197DOPC  H10X24461   0.804   3.201   7.235  0.0773 -0.8876 -0.5326
  197DOPC  C31124462   1.014   3.232   7.167 -0.7618 -0.7962 -0.5847
  197DOPC  H11X24463   1.086   3.316   7.178 -1.4407 -0.2225 -0.3949
  197DOPC  H11Y24464   1.038   3.179   7.072  0.1292 -0.8661 -0.3286
  197DOPC  C31224465   1.054   3.128   7.276  0.4738 -0.3911  0.4477
  197DOPC  H12X24466   1.149   3.078   7.248 -0.1069 -0.7773 -0.9209
  197DOPC  H12Y24467   0.987   3.039   7.274  1.0303 -0.8351  1.0701
  197DOPC  C31324468   1.046   3.184   7.417  0.0482 -0.6877  0.7418
  197DOPC  H13X24469   1.110   3.275   7.424 -1.8205  0.7640 -0.3572
  197DOPC  H13Y24470   0.943   3.219   7.437  0.2401 -0.4848  1.4167
  197DOPC  C31424471   1.069   3.079   7.522 -0.1390 -0.0556 -0.3660
  197DOPC  H14X24472   1.002   2.991   7.505 -1.2119  0.8763 -1.0635
  197DOPC  H14Y24473   1.172   3.039   7.522 -0.2002 -0.2390  0.3973
  197DOPC  C31524474   1.032   3.134   7.663 -0.6391 -0.0100  0.0873
  197DOPC  H15X24475   0.931   3.178   7.646 -0.0394  1.4532  0.1278
  197DOPC  H15Y24476   1.104   3.214   7.691 -1.0209  1.0818 -1.8351
  197DOPC  C31624477   1.010   3.031   7.775  0.4120  0.6644 -1.1481
  197DOPC  H16X24478   0.976   3.072   7.873  0.7572  0.2035 -0.8359
  197DOPC  H16Y24479   0.933   2.954   7.753  0.5999  0.1492 -0.0839
  197DOPC  C31724480   1.132   2.941   7.797  0.5065 -0.1572 -0.1070
  197DOPC  H17X24481   1.161   2.886   7.705 -0.9286 -2.0534  0.5255
  197DOPC  H17Y24482   1.215   3.006   7.830  0.3253 -0.6988  1.4649
  197DOPC  C31824483   1.117   2.833   7.903  0.1812  0.0807  0.3016
  197DOPC  H18X24484   1.069   2.740   7.866  0.4831  0.5445 -1.3508
  197DOPC  H18Y24485   1.216   2.798   7.936 -0.6900 -2.3758  0.4921
  197DOPC  H18Z24486   1.058   2.862   7.993  1.4792 -1.0570  1.5648
  198DOPC     N24487   5.204   5.748   6.224 -0.8457  0.0380  0.4248
  198DOPC   C1224488   5.166   5.608   6.237 -0.1535 -0.0639  0.1803
  198DOPC  H12A24489   5.203   5.542   6.160  0.8841  0.9859 -0.2426
  198DOPC  H12B24490   5.058   5.601   6.235 -0.2248  0.8895 -1.9381
  198DOPC   C1324491   5.152   5.811   6.103  0.7580 -0.3011 -0.5286
  198DOPC  H13A24492   5.190   5.767   6.013  0.0649 -1.1176 -0.4368
  198DOPC  H13B24493   5.044   5.800   6.105  0.6440  0.7111  1.0883
  198DOPC  H13C24494   5.165   5.918   6.111 -1.3127 -0.1357  3.4777
  198DOPC   C1424495   5.360   5.759   6.212 -0.0832 -0.4386  0.3258
  198DOPC  H14A24496   5.409   5.739   6.305 -0.4462  0.5014  0.7304
  198DOPC  H14B24497   5.408   5.691   6.144  0.8305  0.7982 -0.3136
  198DOPC  H14C24498   5.388   5.854   6.169  0.6154 -0.3555  0.9520
  198DOPC   C1524499   5.156   5.829   6.339 -0.2584  0.5873 -0.0082
  198DOPC  H15A24500   5.168   5.782   6.436 -0.8258  1.8664  0.7069
  198DOPC  H15B24501   5.052   5.857   6.332 -0.2339  0.3239 -2.2283
  198DOPC  H15C24502   5.213   5.920   6.347 -0.7447  0.9759 -0.8234
  198DOPC   C1124503   5.233   5.533   6.362  0.2330  0.1041  0.0133
  198DOPC  H11A24504   5.343   5.549   6.362  0.8537 -3.4183  1.2015
  198DOPC  H11B24505   5.190   5.565   6.460  1.9918 -2.3677  1.6900
  198DOPC     P24506   5.071   5.338   6.397 -0.4212 -0.2995  0.3503
  198DOPC   O1324507   5.051   5.199   6.358  0.6820 -0.1630  0.4700
  198DOPC   O1424508   4.964   5.428   6.362 -0.3335 -1.1031 -0.3801
  198DOPC   O1224509   5.211   5.393   6.350 -0.2642  0.6166 -0.3119
  198DOPC   O1124510   5.090   5.333   6.557  0.1096  0.1956  0.8709
  198DOPC    C124511   5.208   5.259   6.602 -0.4549 -0.6727 -0.4547
  198DOPC    HA24512   5.300   5.295   6.551 -0.9358 -0.2253 -1.0391
  198DOPC    HB24513   5.203   5.150   6.585  3.1788 -0.8718 -1.0605
  198DOPC    C224514   5.209   5.275   6.761  0.1604 -0.0967  0.1657
  198DOPC    HS24515   5.303   5.226   6.794  0.6453  0.4695 -0.3504
  198DOPC   O2124516   5.092   5.207   6.807  0.0350 -0.0814  0.3905
  198DOPC   C2124517   5.097   5.167   6.930 -0.6230 -0.3836 -0.4226
  198DOPC   O2224518   5.192   5.180   7.005  0.1853 -0.0157  0.3552
  198DOPC   C2224519   4.968   5.101   6.978  0.0418  1.3144  0.1755
  198DOPC   H2R24520   4.910   5.070   6.888  1.0904  3.5750 -1.3822
  198DOPC   H2S24521   4.907   5.172   7.037 -0.3965  1.4497 -0.4270
  198DOPC    C324522   5.204   5.426   6.796  0.0143 -0.2403 -0.1193
  198DOPC    HX24523   5.107   5.479   6.787  0.7948  1.0259 -1.6900
  198DOPC    HY24524   5.268   5.480   6.722 -0.0541 -0.1828 -0.1362
  198DOPC   O3124525   5.260   5.443   6.929  0.1936 -0.4971  0.3873
  198DOPC   C3124526   5.177   5.471   7.025 -0.7979 -0.3931  0.7343
  198DOPC   O3224527   5.056   5.482   7.014  0.2599  0.3028  0.7338
  198DOPC   C3224528   5.259   5.493   7.149  0.9090 -0.2215 -0.0854
  198DOPC   H2X24529   5.346   5.425   7.145  1.0730  0.0489 -2.2308
  198DOPC   H2Y24530   5.298   5.597   7.149 -0.2682  0.2434 -0.0523
  198DOPC   C2324531   4.991   4.984   7.081  0.0130  0.2851 -0.5569
  198DOPC   H3R24532   5.039   5.024   7.173 -1.9418  0.2694  0.5108
  198DOPC   H3S24533   5.049   4.908   7.024 -1.1894 -0.6507 -0.5612
  198DOPC   C2424534   4.861   4.915   7.130 -0.0786 -0.5304  0.1717
  198DOPC   H4R24535   4.803   4.883   7.041 -1.3414 -0.2287  0.8645
  198DOPC   H4S24536   4.797   4.983   7.190  1.5968  2.1571 -0.9134
  198DOPC   C2524537   4.882   4.788   7.220  0.0620 -0.1871  0.5178
  198DOPC   H5R24538   4.935   4.817   7.313  2.1505 -2.6151  0.2011
  198DOPC   H5S24539   4.950   4.716   7.169  0.6792 -0.4752  1.7076
  198DOPC   C2624540   4.748   4.706   7.245 -0.6450  0.5114  0.2194
  198DOPC   H6R24541   4.724   4.665   7.145 -0.5735 -1.1729  0.8563
  198DOPC   H6S24542   4.668   4.772   7.284  0.5871  2.0164  0.2956
  198DOPC   C2724543   4.763   4.583   7.328  0.2087  0.7380  0.0871
  198DOPC   H7R24544   4.841   4.513   7.291 -3.3557 -3.5833 -0.0432
  198DOPC   H7S24545   4.672   4.521   7.315 -0.6326  1.6964  1.2575
  198DOPC   C2824546   4.772   4.602   7.483  0.0116  0.1371 -0.2598
  198DOPC   H8R24547   4.701   4.681   7.514  0.4747  0.3107  0.3592
  198DOPC   H8S24548   4.875   4.633   7.510 -0.3762 -0.0180  1.5178
  198DOPC   C2924549   4.743   4.474   7.563  0.4523 -0.2335 -0.5777
  198DOPC   H9R24550   4.640   4.462   7.599  1.0494 -0.6857  1.0998
  198DOPC  C21024551   4.823   4.379   7.613  0.2432  0.3472 -0.2914
  198DOPC  H10R24552   4.780   4.299   7.675 -0.9208  1.8545  0.9251
  198DOPC  C21124553   4.971   4.371   7.617 -0.1330 -0.1205  0.7623
  198DOPC  H11R24554   5.011   4.466   7.660 -0.8232  0.3908  0.2976
  198DOPC  H11S24555   4.998   4.370   7.509  0.6324 -0.9997  0.9577
  198DOPC  C21224556   5.028   4.259   7.703  0.3665  0.1351 -0.6269
  198DOPC  H12R24557   5.139   4.269   7.693  0.4129 -1.6039 -2.7557
  198DOPC  H12S24558   4.998   4.158   7.666 -1.1604 -0.2089  1.3650
  198DOPC  C21324559   4.995   4.258   7.858  1.0292  0.2611  0.4501
  198DOPC  H13R24560   4.917   4.182   7.880  2.3508 -1.3342 -0.0936
  198DOPC  H13S24561   4.971   4.366   7.870  0.5998  0.0440  1.6542
  198DOPC  C21424562   5.116   4.216   7.942  0.2566 -0.0172 -0.5315
  198DOPC  H14R24563   5.214   4.264   7.918  1.5964 -1.2060  2.1551
  198DOPC  H14S24564   5.122   4.106   7.925  1.3754  0.0735 -0.7886
  198DOPC  C21524565   5.106   4.228   8.090  0.1687  0.1591  0.5436
  198DOPC  H15R24566   5.189   4.174   8.140 -1.2616 -2.2654  0.4463
  198DOPC  H15S24567   5.007   4.187   8.118 -1.8556  1.5297 -3.8115
  198DOPC  C21624568   5.119   4.375   8.142 -0.4496  0.0665 -0.1216
  198DOPC  H16R24569   5.047   4.438   8.085 -1.4003  0.2666  1.2532
  198DOPC  H16S24570   5.216   4.423   8.118 -1.9050  2.5901 -1.3783
  198DOPC  C21724571   5.079   4.393   8.291 -0.6329  0.3520 -0.4655
  198DOPC  H17R24572   5.168   4.372   8.353 -0.5079  0.7934 -0.4918
  198DOPC  H17S24573   5.005   4.313   8.314 -0.8963  1.5047  3.4593
  198DOPC  C21824574   5.022   4.527   8.320  0.2839 -1.1641  0.5176
  198DOPC  H18R24575   5.093   4.606   8.287 -0.5197 -0.2032  1.0148
  198DOPC  H18S24576   4.991   4.529   8.427  0.0904 -1.5284  0.4670
  198DOPC  H18T24577   4.932   4.537   8.256 -0.7722  1.0224  2.2036
  198DOPC   C3324578   5.174   5.485   7.271  0.0167 -0.9297 -0.1476
  198DOPC   H3X24579   5.084   5.550   7.265  0.2848 -0.6398 -1.0622
  198DOPC   H3Y24580   5.234   5.532   7.352  1.4322 -0.9146 -1.1793
  198DOPC   C3424581   5.123   5.347   7.309  0.3025  0.3927 -0.3694
  198DOPC   H4X24582   5.060   5.300   7.231  1.5412 -0.0173 -1.1569
  198DOPC   H4Y24583   5.060   5.368   7.398  0.1887  1.8516 -0.7574
  198DOPC   C3524584   5.232   5.247   7.343  0.1413  0.8543  0.3441
  198DOPC   H5X24585   5.321   5.309   7.365  1.0134 -0.0725 -0.5005
  198DOPC   H5Y24586   5.264   5.191   7.253  1.7029  1.3607  0.5624
  198DOPC   C3624587   5.197   5.152   7.458  0.4040 -0.1606  0.1512
  198DOPC   H6X24588   5.156   5.218   7.538 -1.1162  0.9787 -1.5013
  198DOPC   H6Y24589   5.120   5.075   7.438  2.2350 -2.1077  0.2249
  198DOPC   C3724590   5.324   5.095   7.519 -0.0988 -0.3389  0.2774
  198DOPC   H7X24591   5.366   5.028   7.442 -0.6083 -0.5768  0.2049
  198DOPC   H7Y24592   5.392   5.179   7.549 -0.6079 -0.2494  1.2282
  198DOPC   C3824593   5.297   5.018   7.649 -0.7846  0.1758 -0.5560
  198DOPC   H8X24594   5.247   5.089   7.719 -0.3429 -0.7170  0.6876
  198DOPC   H8Y24595   5.396   4.997   7.695 -0.8234  0.0746 -0.5188
  198DOPC   C3924596   5.227   4.886   7.614 -0.2995 -0.1955  0.2687
  198DOPC   H9X24597   5.135   4.897   7.555  0.4579 -3.5217 -1.7844
  198DOPC  C31024598   5.276   4.764   7.623 -0.3825 -0.0330  0.5687
  198DOPC  H10X24599   5.214   4.683   7.581  0.5450 -0.1755 -0.5645
  198DOPC  C31124600   5.404   4.730   7.689  0.5383 -0.4364 -0.1352
  198DOPC  H11X24601   5.431   4.787   7.780  2.4054 -1.6183  0.1191
  198DOPC  H11Y24602   5.485   4.741   7.614 -0.7707  1.5051 -1.3694
  198DOPC  C31224603   5.400   4.586   7.742  0.5522 -0.8158  0.2566
  198DOPC  H12X24604   5.387   4.508   7.663 -0.9034  0.2363 -0.5829
  198DOPC  H12Y24605   5.309   4.585   7.806 -1.6958  1.0546 -2.6413
  198DOPC  C31324606   5.511   4.545   7.836 -0.2808 -0.4065 -0.1140
  198DOPC  H13X24607   5.614   4.547   7.794  0.2361 -0.2486  1.1046
  198DOPC  H13Y24608   5.516   4.626   7.912 -0.8051  0.3128 -0.8354
  198DOPC  C31424609   5.493   4.407   7.912  0.0148 -0.5908  0.4166
  198DOPC  H14X24610   5.398   4.390   7.967 -0.8177  0.9795 -0.4782
  198DOPC  H14Y24611   5.504   4.322   7.842  0.8670  0.4399 -0.7448
  198DOPC  C31524612   5.598   4.385   8.020 -0.0883  0.4727 -0.1242
  198DOPC  H15X24613   5.600   4.470   8.091 -1.0992  0.0370  0.4577
  198DOPC  H15Y24614   5.700   4.394   7.977 -0.6782  2.3993 -1.2514
  198DOPC  C31624615   5.565   4.265   8.111 -0.4371  0.6349 -0.2216
  198DOPC  H16X24616   5.656   4.261   8.175 -0.7032  0.6064  0.1598
  198DOPC  H16Y24617   5.474   4.287   8.171 -0.5781 -0.0692 -0.1606
  198DOPC  C31724618   5.530   4.132   8.049  0.6946  0.7283  0.0226
  198DOPC  H17X24619   5.429   4.140   8.004  0.4107 -0.9284  0.2957
  198DOPC  H17Y24620   5.594   4.103   7.963  0.9187 -0.3731  0.5340
  198DOPC  C31824621   5.531   4.028   8.161 -0.2492 -0.4766  0.3887
  198DOPC  H18X24622   5.558   3.930   8.117  0.7852  0.4227 -1.0662
  198DOPC  H18Y24623   5.609   4.048   8.237  0.1517 -1.6396  0.3003
  198DOPC  H18Z24624   5.434   4.028   8.215  0.3725 -1.7747  1.5775
  199DOPC     N24625   5.819   5.811   6.264  0.1344  0.1328  0.2304
  199DOPC   C1224626   5.948   5.871   6.326  0.3207  0.1782  0.3269
  199DOPC  H12A24627   6.010   5.787   6.353  0.2441  0.4198  1.2829
  199DOPC  H12B24628   5.918   5.916   6.419  1.9614 -0.6833  1.3196
  199DOPC   C1324629   5.848   5.711   6.159  0.3857  0.3394  0.6193
  199DOPC  H13A24630   5.755   5.682   6.112  1.3001  3.1617 -3.3990
  199DOPC  H13B24631   5.910   5.751   6.080  3.1392  0.5572  2.7345
  199DOPC  H13C24632   5.881   5.613   6.191  2.0712  0.2600 -1.2366
  199DOPC   C1424633   5.751   5.928   6.207 -0.6032 -0.4934 -0.0936
  199DOPC  H14A24634   5.703   5.993   6.279 -0.0049 -0.9024  0.6912
  199DOPC  H14B24635   5.829   5.987   6.160  0.2041 -1.6170 -0.2036
  199DOPC  H14C24636   5.683   5.899   6.128 -1.0269  0.8719 -0.2598
  199DOPC   C1524637   5.731   5.749   6.373  0.0034  0.5442  0.4911
  199DOPC  H15A24638   5.636   5.719   6.333 -0.9260  0.3624  2.6727
  199DOPC  H15B24639   5.711   5.820   6.453  0.3001  3.0393 -1.5188
  199DOPC  H15C24640   5.786   5.672   6.425  1.1422  1.4174  0.6216
  199DOPC   C1124641   6.032   5.971   6.241 -0.2761  0.5686  0.0534
  199DOPC  H11A24642   5.972   6.062   6.219 -1.6194 -0.4991 -0.8453
  199DOPC  H11B24643   6.122   5.987   6.304 -0.9965  2.0959  0.7564
  199DOPC     P24644   6.182   5.812   6.089  0.4687 -0.2426 -0.2225
  199DOPC   O1324645   6.240   5.835   5.955 -0.2316  0.1534 -0.6257
  199DOPC   O1424646   6.145   5.675   6.127 -0.3176  0.1632 -0.1916
  199DOPC   O1224647   6.054   5.908   6.117 -0.4674  0.1306  0.1144
  199DOPC   O1124648   6.272   5.873   6.207 -0.1340 -0.0678  0.1111
  199DOPC    C124649   6.394   5.812   6.248 -0.8003  0.0660  0.7653
  199DOPC    HA24650   6.485   5.854   6.199 -0.4103  0.7465  2.0121
  199DOPC    HB24651   6.394   5.707   6.214 -2.4456  0.8722 -2.1039
  199DOPC    C224652   6.424   5.838   6.393  0.0626 -0.8317 -0.3027
  199DOPC    HS24653   6.331   5.810   6.448  1.4370 -1.7558  1.6719
  199DOPC   O2124654   6.456   5.980   6.418  0.3991  0.2011 -0.7310
  199DOPC   C2124655   6.356   6.046   6.473  0.9646 -0.4357  0.4352
  199DOPC   O2224656   6.241   6.006   6.493  0.7747 -0.5788  0.1737
  199DOPC   C2224657   6.400   6.195   6.498  0.3752  0.1058  0.6534
  199DOPC   H2R24658   6.369   6.263   6.416 -3.4454 -0.9640  1.0186
  199DOPC   H2S24659   6.511   6.195   6.508  0.3859  3.3467  2.0256
  199DOPC    C324660   6.530   5.754   6.457 -1.0998 -0.4523  0.8230
  199DOPC    HX24661   6.627   5.787   6.416 -0.5799 -2.2467  0.5325
  199DOPC    HY24662   6.518   5.647   6.431  0.0386 -0.7373  1.3995
  199DOPC   O3124663   6.526   5.765   6.602  0.0803  0.0608  0.4378
  199DOPC   C3124664   6.637   5.729   6.661  0.0350  0.4091 -0.4321
  199DOPC   O3224665   6.737   5.688   6.605 -0.4948  0.5987 -0.6974
  199DOPC   C3224666   6.615   5.749   6.809  0.0438 -0.6759  0.0354
  199DOPC   H2X24667   6.541   5.830   6.825 -0.3126 -0.6357 -1.6240
  199DOPC   H2Y24668   6.552   5.665   6.846 -0.5558 -1.3352 -2.3097
  199DOPC   C2324669   6.326   6.245   6.622 -0.7724  0.6760  0.1429
  199DOPC   H3R24670   6.215   6.240   6.623 -0.9473  3.0151  1.8441
  199DOPC   H3S24671   6.360   6.349   6.641 -0.2244  0.8689 -1.6723
  199DOPC   C2424672   6.379   6.161   6.746  0.2905  0.5230  0.1425
  199DOPC   H4R24673   6.489   6.152   6.731  0.0751 -1.3550 -0.5797
  199DOPC   H4S24674   6.331   6.061   6.742  1.8394 -0.4019  2.4954
  199DOPC   C2524675   6.361   6.220   6.888  1.1850  0.2226 -1.0332
  199DOPC   H5R24676   6.264   6.275   6.886  0.6822 -0.5883 -0.0427
  199DOPC   H5S24677   6.453   6.280   6.904  2.1269 -1.3705 -0.2537
  199DOPC   C2624678   6.359   6.114   7.003  0.0410 -1.2436 -0.6714
  199DOPC   H6R24679   6.436   6.035   6.994 -0.0157 -1.3973  0.1554
  199DOPC   H6S24680   6.261   6.063   6.990 -0.3615 -0.4194 -0.9462
  199DOPC   C2724681   6.371   6.178   7.145  0.0053  0.3282  0.3168
  199DOPC   H7R24682   6.268   6.215   7.162 -0.5572 -0.5380 -1.0098
  199DOPC   H7S24683   6.424   6.275   7.133 -0.2264  0.2944 -1.2234
  199DOPC   C2824684   6.415   6.094   7.265 -0.1895 -0.3644 -0.2054
  199DOPC   H8R24685   6.521   6.066   7.243  0.3590  0.5538  1.1308
  199DOPC   H8S24686   6.346   6.007   7.262  0.8656 -1.1953 -2.6951
  199DOPC   C2924687   6.415   6.177   7.396  0.1524  0.4819  0.0057
  199DOPC   H9R24688   6.482   6.263   7.408 -0.0764  0.6379  0.1700
  199DOPC  C21024689   6.319   6.169   7.489  0.4135  1.4149 -0.3771
  199DOPC  H10R24690   6.334   6.238   7.574  0.9558 -0.3060  0.9876
  199DOPC  C21124691   6.195   6.086   7.490  0.1905 -0.5206 -0.6650
  199DOPC  H11R24692   6.220   5.980   7.465 -1.3094 -0.8869 -0.7341
  199DOPC  H11S24693   6.132   6.120   7.405  0.1511 -1.9294 -1.2277
  199DOPC  C21224694   6.110   6.092   7.612  0.2490  0.0080 -0.4163
  199DOPC  H12R24695   6.016   6.040   7.584  0.3504 -0.0933 -0.5684
  199DOPC  H12S24696   6.087   6.197   7.639 -0.0021  0.1347 -1.0987
  199DOPC  C21324697   6.156   6.014   7.739  0.5118  0.4230  0.5677
  199DOPC  H13R24698   6.251   6.053   7.781  0.8155  1.1755 -0.7596
  199DOPC  H13S24699   6.177   5.907   7.718 -0.7301  0.3065 -0.1717
  199DOPC  C21424700   6.064   6.009   7.861 -0.0447 -0.2331  0.6739
  199DOPC  H14R24701   5.966   5.961   7.841  0.4921 -0.2494 -2.4346
  199DOPC  H14S24702   6.043   6.115   7.887 -1.2018 -0.0138 -0.9850
  199DOPC  C21524703   6.136   5.937   7.979 -0.5284 -0.8050  0.6768
  199DOPC  H15R24704   6.237   5.980   7.993 -0.4267  0.5212 -2.9692
  199DOPC  H15S24705   6.160   5.834   7.945  0.4419  0.0849 -1.5016
  199DOPC  C21624706   6.054   5.932   8.108  0.7845  0.0379  0.6981
  199DOPC  H16R24707   5.960   5.877   8.092  0.4013  0.7287  0.5123
  199DOPC  H16S24708   6.008   6.031   8.131 -0.5260  0.1595 -2.0410
  199DOPC  C21724709   6.120   5.878   8.234  0.6169  0.5241 -0.0990
  199DOPC  H17R24710   6.196   5.953   8.267 -1.1493  2.1755  0.3917
  199DOPC  H17S24711   6.169   5.785   8.199 -0.4189 -0.3238  0.6671
  199DOPC  C21824712   6.035   5.843   8.360 -0.5457  0.1018  0.3152
  199DOPC  H18R24713   6.107   5.806   8.436 -1.2761 -0.0704  0.9326
  199DOPC  H18S24714   5.953   5.769   8.343 -1.3114  0.6793  1.3887
  199DOPC  H18T24715   5.985   5.936   8.395  0.0835  1.1039 -1.3272
  199DOPC   C3324716   6.747   5.760   6.886 -0.4422  0.0001  0.4246
  199DOPC   H3X24717   6.826   5.821   6.839 -1.4998  0.5705 -0.6634
  199DOPC   H3Y24718   6.794   5.661   6.905 -0.4512 -0.1012 -0.0838
  199DOPC   C3424719   6.729   5.810   7.027  0.2380 -0.3369  0.3407
  199DOPC   H4X24720   6.672   5.905   7.034 -1.2413 -1.2437  0.8134
  199DOPC   H4Y24721   6.826   5.830   7.077  0.6181 -0.0860 -0.4741
  199DOPC   C3524722   6.657   5.710   7.119  0.0852 -0.5130  0.8460
  199DOPC   H5X24723   6.716   5.616   7.129 -1.6683 -1.7620  0.0263
  199DOPC   H5Y24724   6.556   5.689   7.078  0.8205 -1.4986 -0.5524
  199DOPC   C3624725   6.645   5.765   7.262  0.1859 -0.3073  0.5712
  199DOPC   H6X24726   6.746   5.796   7.296  0.3779  0.2112 -0.4463
  199DOPC   H6Y24727   6.587   5.860   7.261 -2.0781 -1.6037  1.6376
  199DOPC   C3724728   6.590   5.663   7.360  0.1198  0.2852 -0.6042
  199DOPC   H7X24729   6.484   5.634   7.347 -1.2870  4.3433  0.2483
  199DOPC   H7Y24730   6.652   5.573   7.341 -1.2879 -0.4528 -1.9075
  199DOPC   C3824731   6.621   5.708   7.501  0.1760 -0.3795 -0.0930
  199DOPC   H8X24732   6.730   5.721   7.517  0.0711 -0.6595  0.9207
  199DOPC   H8Y24733   6.595   5.628   7.573 -0.6597 -2.7756 -2.8439
  199DOPC   C3924734   6.533   5.829   7.533  0.1391  0.4604  0.5212
  199DOPC   H9X24735   6.485   5.878   7.447  1.1110 -0.9499 -0.8772
  199DOPC  C31024736   6.534   5.888   7.656  0.0548 -0.0266 -0.7229
  199DOPC  H10X24737   6.467   5.975   7.657 -0.4717 -0.4204 -0.9673
  199DOPC  C31124738   6.592   5.849   7.789 -1.3268  0.1366  0.1557
  199DOPC  H11X24739   6.517   5.892   7.859  0.5975  1.2124  1.7090
  199DOPC  H11Y24740   6.687   5.902   7.813 -2.3606  1.4399  1.5818
  199DOPC  C31224741   6.610   5.704   7.825 -0.7212  0.2730 -1.0892
  199DOPC  H12X24742   6.654   5.703   7.928  0.4632  0.0901 -1.5769
  199DOPC  H12Y24743   6.673   5.648   7.753  0.2740  0.0260 -0.0542
  199DOPC  C31324744   6.472   5.628   7.830  0.7689 -0.0345  0.1411
  199DOPC  H13X24745   6.389   5.692   7.869  1.2497 -0.3240  1.7211
  199DOPC  H13Y24746   6.441   5.607   7.725 -0.6235 -1.6645  0.8247
  199DOPC  C31424747   6.456   5.485   7.874  0.1248  0.3101  0.0034
  199DOPC  H14X24748   6.345   5.474   7.867  0.1189 -0.0088  0.5399
  199DOPC  H14Y24749   6.502   5.417   7.800 -1.3838 -0.3679 -0.3618
  199DOPC  C31524750   6.490   5.460   8.024  0.0810  0.3035  0.4123
  199DOPC  H15X24751   6.597   5.486   8.036  0.3686 -1.1569  1.2031
  199DOPC  H15Y24752   6.498   5.352   8.047  1.3298  0.1190 -0.7403
  199DOPC  C31624753   6.406   5.528   8.129  0.6231 -0.2869  0.1085
  199DOPC  H16X24754   6.415   5.636   8.101 -2.1939  1.1071  3.8109
  199DOPC  H16Y24755   6.298   5.504   8.124  0.9687 -1.7940 -0.4155
  199DOPC  C31724756   6.452   5.514   8.270  0.0634  0.0349 -0.8587
  199DOPC  H17X24757   6.547   5.570   8.282  1.2819 -2.3012  1.3197
  199DOPC  H17Y24758   6.373   5.552   8.337  0.9817 -3.1763  2.3789
  199DOPC  C31824759   6.469   5.366   8.323 -1.0376 -0.3295 -0.4385
  199DOPC  H18X24760   6.555   5.313   8.278 -1.0635  0.0868 -0.9826
  199DOPC  H18Y24761   6.483   5.376   8.433 -1.7591 -0.3689 -0.3370
  199DOPC  H18Z24762   6.382   5.301   8.299 -1.8740 -0.6682  2.9486
  200DOPC     N24763   1.621   5.922   5.936 -0.6150  0.7952 -0.1865
  200DOPC   C1224764   1.612   5.945   6.090  0.0468 -0.1084  0.1146
  200DOPC  H12A24765   1.705   5.927   6.141 -0.4744  0.5833  1.3586
  200DOPC  H12B24766   1.534   5.883   6.132  0.4765 -1.3748 -0.8846
  200DOPC   C1324767   1.757   5.952   5.893 -0.2949 -0.2584 -0.1996
  200DOPC  H13A24768   1.779   5.931   5.789 -1.1420 -0.8017 -0.2844
  200DOPC  H13B24769   1.784   6.053   5.920 -2.4423 -0.2371  2.3268
  200DOPC  H13C24770   1.825   5.891   5.950 -1.0209 -0.6950  0.2141
  200DOPC   C1424771   1.523   6.005   5.864  0.2783 -0.1546  0.1999
  200DOPC  H14A24772   1.423   5.991   5.902 -0.5654 -2.7476 -2.5747
  200DOPC  H14B24773   1.548   6.110   5.869 -1.5686  0.3354 -0.0357
  200DOPC  H14C24774   1.518   5.981   5.759 -1.0781 -1.0058  0.4301
  200DOPC   C1524775   1.597   5.779   5.919 -0.1123  0.6236 -0.1160
  200DOPC  H15A24776   1.678   5.733   5.972  0.4672  0.4745 -1.1018
  200DOPC  H15B24777   1.600   5.742   5.817 -0.3337 -0.9634  0.4275
  200DOPC  H15C24778   1.508   5.741   5.967 -0.3174  0.9118 -0.2635
  200DOPC   C1124779   1.580   6.094   6.136  0.4636  0.1091  0.3146
  200DOPC  H11A24780   1.506   6.131   6.062 -0.8912 -0.2015  1.4687
  200DOPC  H11B24781   1.539   6.102   6.239 -2.6950 -2.2397 -0.6013
  200DOPC     P24782   1.820   6.168   6.194 -0.0303 -0.2988 -0.2702
  200DOPC   O1324783   1.916   6.271   6.146  0.4528  0.0084 -0.0738
  200DOPC   O1424784   1.859   6.026   6.192 -0.0638 -0.1560 -0.0590
  200DOPC   O1224785   1.689   6.183   6.117  0.2331 -0.4531 -0.4366
  200DOPC   O1124786   1.775   6.200   6.339 -0.1719  0.4636  0.3200
  200DOPC    C124787   1.696   6.315   6.370 -0.2566 -0.5409  0.5847
  200DOPC    HA24788   1.597   6.326   6.321  1.2898  0.6769 -2.5501
  200DOPC    HB24789   1.756   6.401   6.334 -1.0606  0.5373  1.7620
  200DOPC    C224790   1.661   6.326   6.521  0.0412  0.0204 -0.4559
  200DOPC    HS24791   1.664   6.431   6.558  1.9241 -0.0052 -0.4139
  200DOPC   O2124792   1.748   6.240   6.598 -0.1388 -0.3639  0.2054
  200DOPC   C2124793   1.872   6.281   6.592  0.5678 -0.5363  0.0738
  200DOPC   O2224794   1.909   6.391   6.551 -0.7629 -0.1644  0.1787
  200DOPC   C2224795   1.975   6.172   6.640  0.1522 -0.8011 -0.0426
  200DOPC   H2R24796   2.078   6.209   6.616  0.1529 -2.3633 -2.8642
  200DOPC   H2S24797   1.962   6.078   6.582 -1.9527 -0.0655 -0.8627
  200DOPC    C324798   1.512   6.278   6.560 -0.3421 -0.0380 -0.0530
  200DOPC    HX24799   1.508   6.174   6.519  0.2050  0.6699 -1.9923
  200DOPC    HY24800   1.438   6.344   6.511 -1.1118  0.9330  2.2429
  200DOPC   O3124801   1.489   6.273   6.704  0.5928  0.0671 -0.2986
  200DOPC   C3124802   1.512   6.155   6.764  0.4719  0.1469  0.2873
  200DOPC   O3224803   1.526   6.048   6.708  0.2903  0.3457  0.6115
  200DOPC   C3224804   1.509   6.184   6.916 -0.6359  0.4572  0.7263
  200DOPC   H2X24805   1.597   6.248   6.935 -0.7347  0.0094  3.0887
  200DOPC   H2Y24806   1.425   6.252   6.943 -0.2563  0.7669  1.1407
  200DOPC   C2324807   1.955   6.129   6.784 -0.1703  0.0840 -0.0894
  200DOPC   H3R24808   2.014   6.038   6.808 -1.6255 -0.1663  3.1311
  200DOPC   H3S24809   1.849   6.099   6.797 -1.3194  2.9416 -1.9528
  200DOPC   C2424810   1.985   6.245   6.874 -0.3971  0.4160  0.0453
  200DOPC   H4R24811   1.907   6.324   6.873  0.3638  1.5350  4.9087
  200DOPC   H4S24812   2.078   6.294   6.839 -0.3621  0.3720  0.0753
  200DOPC   C2524813   1.987   6.201   7.021  0.3118 -0.6906  0.3260
  200DOPC   H5R24814   2.057   6.120   7.049 -0.7364 -1.1086  1.8734
  200DOPC   H5S24815   1.885   6.158   7.030  0.1656 -0.5931 -0.7467
  200DOPC   C2624816   1.996   6.321   7.117 -0.6195  0.6043 -0.5439
  200DOPC   H6R24817   1.936   6.408   7.082 -0.0808  1.4577  0.5995
  200DOPC   H6S24818   2.097   6.368   7.127 -0.7581  0.5703  1.1761
  200DOPC   C2724819   1.945   6.290   7.255 -0.0409 -0.5525 -0.2505
  200DOPC   H7R24820   2.028   6.251   7.318  0.7975 -0.1691 -1.1003
  200DOPC   H7S24821   1.869   6.210   7.242 -1.2408  0.6875 -1.1624
  200DOPC   C2824822   1.859   6.404   7.316 -0.1563 -0.7090 -0.6949
  200DOPC   H8R24823   1.788   6.356   7.387  0.2005  0.2829  0.3615
  200DOPC   H8S24824   1.800   6.452   7.235  0.0298  0.2575 -0.2711
  200DOPC   C2924825   1.940   6.512   7.382  0.5179  0.7912 -0.1289
  200DOPC   H9R24826   2.023   6.543   7.317  2.7979 -0.1176  2.1966
  200DOPC  C21024827   1.940   6.546   7.512 -0.1203  0.4442 -0.3969
  200DOPC  H10R24828   2.005   6.631   7.535  2.2843 -0.7681 -2.2191
  200DOPC  C21124829   1.847   6.497   7.624  0.1968 -0.4181 -0.6557
  200DOPC  H11R24830   1.902   6.511   7.719 -0.2648  1.9452 -0.6776
  200DOPC  H11S24831   1.821   6.389   7.621  1.7288 -0.7869 -2.0884
  200DOPC  C21224832   1.712   6.573   7.626 -0.4067 -0.4264  0.0269
  200DOPC  H12R24833   1.648   6.569   7.535 -1.7239  0.3923  0.8991
  200DOPC  H12S24834   1.739   6.680   7.622 -2.2055  0.0861  0.9197
  200DOPC  C21324835   1.630   6.536   7.749 -0.4252 -0.8102  0.0092
  200DOPC  H13R24836   1.696   6.551   7.837 -0.6206 -1.3278  0.2497
  200DOPC  H13S24837   1.605   6.428   7.741  0.8156 -0.9965 -1.6539
  200DOPC  C21424838   1.504   6.620   7.770  0.9723  0.0410  1.0202
  200DOPC  H14R24839   1.427   6.574   7.836 -0.7338 -1.4015 -1.8038
  200DOPC  H14S24840   1.450   6.629   7.674  1.9491 -2.1845  0.1914
  200DOPC  C21524841   1.537   6.757   7.831  0.6722 -0.2074  0.0474
  200DOPC  H15R24842   1.635   6.790   7.791  0.2307 -1.3554 -2.0951
  200DOPC  H15S24843   1.552   6.739   7.940 -0.0501  0.1304  0.2085
  200DOPC  C21624844   1.420   6.863   7.827 -0.1586 -0.0352 -0.1136
  200DOPC  H16R24845   1.404   6.882   7.719  0.2665  3.6367  0.3485
  200DOPC  H16S24846   1.461   6.955   7.874 -0.9241  0.8498 -1.1160
  200DOPC  C21724847   1.289   6.821   7.884  0.2881 -0.4987 -0.3646
  200DOPC  H17R24848   1.296   6.824   7.995  0.2401 -1.7101 -0.3195
  200DOPC  H17S24849   1.260   6.715   7.866 -0.3921 -0.1834 -1.2313
  200DOPC  C21824850   1.165   6.888   7.819  0.4165 -0.2652 -0.2184
  200DOPC  H18R24851   1.074   6.850   7.871  0.1256  1.3532  0.5325
  200DOPC  H18S24852   1.161   6.853   7.714  1.0697 -1.7847  0.2483
  200DOPC  H18T24853   1.181   6.998   7.827  1.1504 -0.2357 -1.7403
  200DOPC   C3324854   1.529   6.054   6.998  0.1304 -0.0468 -0.0930
  200DOPC   H3X24855   1.638   6.036   7.012 -0.2875 -2.5459  0.4036
  200DOPC   H3Y24856   1.479   5.967   6.953 -0.8445 -0.0213  0.8958
  200DOPC   C3424857   1.474   6.073   7.136 -0.0628 -0.3132  0.8888
  200DOPC   H4X24858   1.387   6.142   7.145  0.1355 -0.1502  1.6458
  200DOPC   H4Y24859   1.555   6.124   7.193  0.5412 -0.7640  0.4427
  200DOPC   C3524860   1.442   5.944   7.207 -0.2720 -0.2279  0.0047
  200DOPC   H5X24861   1.532   5.880   7.217  0.1167  0.4880  1.2581
  200DOPC   H5Y24862   1.377   5.884   7.139 -0.3308 -1.4748  1.1269
  200DOPC   C3624863   1.376   5.946   7.338  0.3220 -0.0957 -0.8594
  200DOPC   H6X24864   1.447   5.991   7.411  1.0947 -0.0050 -1.6477
  200DOPC   H6Y24865   1.288   6.013   7.336 -0.8110 -1.5216  0.0787
  200DOPC   C3724866   1.354   5.804   7.394 -0.4807  0.6564  0.0777
  200DOPC   H7X24867   1.274   5.759   7.332  1.5808  0.2224 -2.3903
  200DOPC   H7Y24868   1.439   5.741   7.362  0.0642  0.1910  2.2474
  200DOPC   C3824869   1.326   5.782   7.548  0.6858  0.1589  0.2914
  200DOPC   H8X24870   1.257   5.864   7.578 -1.7491 -1.8125  0.4453
  200DOPC   H8Y24871   1.415   5.813   7.607 -0.4499  1.0712  1.6002
  200DOPC   C3924872   1.256   5.650   7.579 -0.6928 -0.3286 -0.3556
  200DOPC   H9X24873   1.164   5.636   7.522 -1.5921 -0.4624  1.0688
  200DOPC  C31024874   1.295   5.550   7.655  0.7801  0.1135 -0.4291
  200DOPC  H10X24875   1.221   5.469   7.655 -1.9921  2.4989 -1.2721
  200DOPC  C31124876   1.412   5.547   7.741 -0.3670  0.5236 -0.5899
  200DOPC  H11X24877   1.408   5.462   7.813 -0.0568  0.0971 -1.0678
  200DOPC  H11Y24878   1.414   5.648   7.786 -2.1798  0.5956 -0.6038
  200DOPC  C31224879   1.542   5.520   7.668 -0.8805 -0.3248  0.6002
  200DOPC  H12X24880   1.562   5.619   7.621  0.0003 -0.5694  0.4424
  200DOPC  H12Y24881   1.529   5.440   7.592  0.3629 -0.4270  0.4681
  200DOPC  C31324882   1.655   5.478   7.759  0.5849 -0.0754  0.8635
  200DOPC  H13X24883   1.623   5.379   7.798 -1.1802  0.1392  0.0429
  200DOPC  H13Y24884   1.748   5.454   7.703  1.4386 -3.0946  3.2431
  200DOPC  C31424885   1.686   5.569   7.876 -0.1428 -0.0260 -0.7691
  200DOPC  H14X24886   1.712   5.670   7.838 -0.7078  0.1880 -0.6068
  200DOPC  H14Y24887   1.602   5.581   7.948  1.3029  1.7607  0.7321
  200DOPC  C31524888   1.806   5.514   7.958 -0.2259  0.3550  0.0755
  200DOPC  H15X24889   1.890   5.497   7.887  0.0893 -2.4712  1.0275
  200DOPC  H15Y24890   1.773   5.414   7.992 -0.5281  1.7346  4.6027
  200DOPC  C31624891   1.842   5.598   8.083 -0.0523  0.0408  0.5596
  200DOPC  H16X24892   1.751   5.623   8.142 -0.2250  1.4521 -0.2885
  200DOPC  H16Y24893   1.910   5.543   8.152  0.1800 -1.2589 -0.6544
  200DOPC  C31724894   1.915   5.727   8.050 -0.1395 -0.8553 -0.0842
  200DOPC  H17X24895   1.993   5.700   7.976 -2.9661  0.6707 -3.9999
  200DOPC  H17Y24896   1.847   5.798   7.997 -1.6887 -1.2262  1.3141
  200DOPC  C31824897   1.964   5.814   8.167 -0.5774 -0.5004  0.1668
  200DOPC  H18X24898   2.053   5.776   8.222 -0.1528  2.1905  1.5175
  200DOPC  H18Y24899   1.999   5.913   8.129 -1.5106 -0.6413 -1.1456
  200DOPC  H18Z24900   1.882   5.841   8.236  2.0124 -0.3599  3.4059
  201SOD    SOD24901   2.815   1.835  11.066 -0.2256 -0.0195  0.6257
  202SOD    SOD24902   5.240   4.755   5.811  0.2756  0.3918  0.1595
  203SOD    SOD24903   6.142   5.573  10.207  0.7886  0.0929  0.2412
  204SOD    SOD24904   2.718   5.076   4.715  0.1829 -0.3875 -0.1806
  205SOD    SOD24905   2.723   6.803  10.948  0.6306  0.2351 -0.1942
  206SOD    SOD24906   4.818   6.018   5.044  0.5972 -0.5737  0.0641
  207SOD    SOD24907   2.837   6.969   5.398 -0.1998  0.2388 -0.0454
  208SOD    SOD24908   2.880   5.969  11.489 -0.6393 -0.4009 -0.6881
  209SOD    SOD24909   4.325   0.977   6.170  0.2735 -0.4511 -0.5270
  210SOD    SOD24910   6.174   0.687  12.676 -0.5928  0.0312 -0.0322
  211SOD    SOD24911   7.192   6.068  10.277  0.1926 -0.6066  0.0095
  212SOD    SOD24912   5.797   1.365  10.048 -0.0017  0.5825  0.3648
  213SOD    SOD24913   1.016   0.355   5.594  0.0620  0.2248  0.2329
  214SOD    SOD24914   6.841   3.571  11.051  0.6314 -0.5784 -0.5512
  215SOD    SOD24915   0.771   7.225  10.009 -0.1531  0.6452  0.2392
  216SOD    SOD24916   4.083   0.483  11.852  0.3795  0.2495 -0.0982
  217SOD    SOD24917   2.842   7.366   5.469  0.0643  0.7099 -0.3605
  218SOD    SOD24918   0.389   4.021  10.238  0.0252  0.1302  0.0610
  219SOD    SOD24919   0.733   6.879  10.967  0.1611  0.1081 -0.2071
  220SOD    SOD24920   0.894   3.261   6.349 -0.4890 -0.2535 -0.0388
  221SOD    SOD24921   1.069   2.646   5.567  0.1801  0.1076 -0.0992
  222SOD    SOD24922   1.798   3.958  10.295 -0.1475  0.1878  0.2070
  223SOD    SOD24923   0.052   5.474   4.660  0.0114  0.7133 -0.0506
  224SOD    SOD24924   6.149   0.081   4.352 -0.0896 -0.2644 -0.3292
  225SOD    SOD24925   4.749   4.625   4.068  0.2837 -0.0787 -0.3902
  226SOD    SOD24926   2.726   6.389  12.379 -0.1883  0.4880 -0.3832
  227CLA    CLA24927   4.340   0.257   4.857 -0.3594 -0.3031  0.1164
  228CLA    CLA24928   3.612   4.168   3.933  0.3725 -0.0604  0.0965
  229CLA    CLA24929   1.573   5.327   4.636  0.0332 -0.4511 -0.2576
  230CLA    CLA24930   2.466   3.687  12.181 -0.5735  0.0080  0.1717
  231CLA    CLA24931   0.252   7.155  10.825 -0.1889  0.5052 -0.0065
  232CLA    CLA24932   2.418   7.496  10.918 -0.5160 -0.0519  0.0177
  233CLA    CLA24933   2.617   5.934  12.377  0.1707  0.2585  0.1692
  234CLA    CLA24934   6.243   3.854  11.192 -0.2165  0.3711  0.1316
  235CLA    CLA24935   3.123   6.760   6.102  0.3359 -0.1112  0.3640
  236CLA    CLA24936   2.610   0.500  11.342 -0.0061  0.4727  0.3388
  237CLA    CLA24937   6.823   1.711  12.055 -0.2356  0.0726 -0.2274
  238CLA    CLA24938   1.313   7.328   5.610  0.3842  0.3274  0.0294
  239CLA    CLA24939   4.204   4.484   4.395  0.1593  0.1863 -0.1619
  240CLA    CLA24940   4.267   6.989  11.621  0.2092  0.2290 -0.1708
  241CLA    CLA24941   0.865   0.581   5.597  0.1259  0.0643 -0.1379
  242CLA    CLA24942   3.846   7.449  12.419  0.1258  0.4157  0.0390
  243CLA    CLA24943   7.261   3.288   5.298  0.3798  0.1186 -0.2614
  244CLA    CLA24944   5.104   7.161   4.339 -0.3825  0.0134 -0.0829
  245CLA    CLA24945   6.546   6.717   5.072 -0.1230 -0.0483  0.2205
  246CLA    CLA24946   4.223   0.721  11.836 -0.1840 -0.1342 -0.2490
  247CLA    CLA24947   2.412   4.407   4.139  0.4266  0.2466 -0.0429
  248CLA    CLA24948   4.822   4.932   4.474 -0.4807  0.3524 -0.2243
  249CLA    CLA24949   2.625   2.745   5.599 -0.1899  0.0360 -0.0372
  250CLA    CLA24950   6.202   2.480  11.973 -0.1372 -0.0011 -0.2854
  251CLA    CLA24951   6.758   5.085  10.590 -0.4046 -0.3484  0.2269
  252CLA    CLA24952   5.500   4.766   5.789  0.8055 -0.0001 -0.0397
  253TIP3   OH224953   4.469   2.566  12.250 -0.3691 -0.2509  0.0047
  253TIP3    H124954   4.456   2.498  12.316  2.0932 -1.4385 -0.6275
  253TIP3    H224955   4.451   2.648  12.297 -1.5628 -1.2067  1.2960
  254TIP3   OH224956   0.910   5.502  11.237  0.2465 -0.1779  0.0369
  254TIP3    H124957   0.993   5.476  11.275  0.8586  0.4781 -0.8153
  254TIP3    H224958   0.927   5.505  11.142 -0.5053  0.7784 -0.0840
  255TIP3   OH224959   6.588   4.269  12.831  0.5138  0.0402 -0.8877
  255TIP3    H124960   6.664   4.224  12.868  0.8115  1.1278 -0.1036
  255TIP3    H224961   6.540   4.201  12.784  0.6909 -1.2000  0.6260
  256TIP3   OH224962   0.982   5.419  12.516 -0.4336  1.1783  0.7167
  256TIP3    H124963   0.901   5.370  12.499  1.1966 -1.2704 -0.5461
  256TIP3    H224964   0.989   5.479  12.442  0.9975 -1.6824 -1.6610
  257TIP3   OH224965   0.239   4.394  12.158 -0.2675 -0.4068  0.5516
  257TIP3    H124966   0.246   4.370  12.066  0.8643  0.7316  0.3110
  257TIP3    H224967   0.147   4.383  12.180 -0.6184 -0.2946 -0.8290
  258TIP3   OH224968   1.951   5.790  11.250  0.2365  0.3256 -0.2959
  258TIP3    H124969   1.964   5.873  11.297  1.3758 -0.0882  0.1437
  258TIP3    H224970   2.025   5.785  11.189  1.2954 -1.2773  1.0431
  259TIP3   OH224971   2.306   3.140  11.635 -0.2196  0.1815 -0.1216
  259TIP3    H124972   2.391   3.181  11.625 -0.1056 -0.2323 -0.9079
  259TIP3    H224973   2.324   3.046  11.629 -0.6047  0.0445  0.6849
  260TIP3   OH224974   0.160   1.129  12.048  0.3904  0.1937 -0.4852
  260TIP3    H124975   0.115   1.170  11.974 -1.1297  0.3554  0.4975
  260TIP3    H224976   0.106   1.149  12.124  0.5715 -2.0758  0.3282
  261TIP3   OH224977   1.695   1.960  10.384  0.2905  0.1074 -0.5452
  261TIP3    H124978   1.774   1.929  10.339 -0.3400 -0.6782 -1.1522
  261TIP3    H224979   1.629   1.893  10.365 -0.8257  1.2717 -0.9685
  262TIP3   OH224980   6.608   1.013  12.786  0.1562 -1.0292 -0.3453
  262TIP3    H124981   6.620   0.931  12.833 -0.6840 -2.4466 -2.4495
  262TIP3    H224982   6.521   1.005  12.745  0.6465  0.2851 -1.7597
  263TIP3   OH224983   4.424   0.912  11.979  0.0505  0.4468  0.1005
  263TIP3    H124984   4.378   0.863  11.910  0.8028  1.1729 -0.9585
  263TIP3    H224985   4.420   0.855  12.056 -0.8962 -0.3521 -0.5137
  264TIP3   OH224986   1.611   1.796  12.831  0.2566 -0.1414  0.0177
  264TIP3    H124987   1.603   1.800  12.927 -3.9782 -0.3408 -0.1158
  264TIP3    H224988   1.614   1.702  12.811 -1.5048 -0.2260 -0.0351
  265TIP3   OH224989   4.291   6.331  12.512  0.4948 -0.4751  0.0268
  265TIP3    H124990   4.275   6.240  12.489  0.1068 -0.3742 -0.1065
  265TIP3    H224991   4.373   6.329  12.561  1.9465 -0.5742 -2.2529
  266TIP3   OH224992   6.587   6.060  10.589 -0.1060  0.3349  0.4065
  266TIP3    H124993   6.647   6.023  10.654  1.0437 -1.4848 -1.5621
  266TIP3    H224994   6.643   6.114  10.533  0.1114 -2.3687 -2.2162
  267TIP3   OH224995   0.081   6.315  10.021  0.1648  0.1212  0.1151
  267TIP3    H124996   0.134   6.265   9.958 -1.0112 -0.2512 -0.6018
  267TIP3    H224997   0.139   6.387  10.048  0.5102  0.6628 -1.8611
  268TIP3   OH224998   1.147   3.461  11.463 -1.1267 -0.0753  0.0037
  268TIP3    H124999   1.090   3.513  11.407 -0.7222 -0.0251 -0.3686
  268TIP3    H225000   1.133   3.496  11.551 -2.5812 -0.8673  0.1249
  269TIP3   OH225001   7.602   5.513  11.061  0.4343  0.2740  0.3771
  269TIP3    H125002   7.514   5.550  11.053  0.3733  0.0246 -0.1376
  269TIP3    H225003   7.598   5.459  11.140 -0.0402 -0.1740  0.0573
  270TIP3   OH225004   2.037   0.030  11.641 -0.3901  1.0757 -0.2584
  270TIP3    H125005   2.114   0.011  11.696  0.4869  1.2980 -1.3666
  270TIP3    H225006   1.985   0.090  11.694 -0.5358 -0.1815  1.0936
  271TIP3   OH225007   6.777   2.320  10.104  0.2099  0.5692 -0.3330
  271TIP3    H125008   6.822   2.400  10.076  1.4879  0.4648  1.2466
  271TIP3    H225009   6.684   2.344  10.106  0.6704  2.5319  1.5798
  272TIP3   OH225010   1.577   4.080  11.140 -0.1791  0.7950 -0.3457
  272TIP3    H125011   1.665   4.054  11.165  0.2346  1.4157 -1.0968
  272TIP3    H225012   1.537   4.000  11.106 -0.2945  0.2587  1.0029
  273TIP3   OH225013   1.047   3.918  10.271 -0.3860 -0.0524  0.4833
  273TIP3    H125014   1.071   3.991  10.327 -2.4469 -0.4816  2.0109
  273TIP3    H225015   1.067   3.840  10.323 -0.1558 -0.5458 -0.3129
  274TIP3   OH225016   0.200   3.642  12.774 -0.4491  0.7677 -0.3176
  274TIP3    H125017   0.266   3.582  12.810 -0.8153 -0.3826 -1.4607
  274TIP3    H225018   0.227   3.729  12.804  0.4346  0.1021  0.9048
  275TIP3   OH225019   0.086   4.800  12.576  0.6859 -0.2787  0.2220
  275TIP3    H125020   0.123   4.742  12.509  0.7265  0.1282 -0.1106
  275TIP3    H225021   0.160   4.826  12.630  0.8241  0.2332 -0.2139
  276TIP3   OH225022   2.232   0.319  12.343 -0.2996  0.1084 -0.3007
  276TIP3    H125023   2.154   0.342  12.393 -1.0840 -1.9301 -0.4920
  276TIP3    H225024   2.222   0.226  12.324  3.0085 -0.6826  1.1125
  277TIP3   OH225025   0.682   0.409  10.012  0.1476 -0.1951  0.5416
  277TIP3    H125026   0.651   0.417  10.102  1.1827  0.7897  0.8394
  277TIP3    H225027   0.623   0.346   9.971 -1.2313  0.4353  1.5038
  278TIP3   OH225028   6.260   2.485  12.267  0.1511  0.0994  0.0248
  278TIP3    H125029   6.224   2.490  12.178 -1.2061  0.5608  0.5679
  278TIP3    H225030   6.186   2.509  12.324  0.8888 -0.5642  1.3022
  279TIP3   OH225031   2.905   2.390  12.896  0.0736  0.2257  0.3240
  279TIP3    H125032   2.873   2.299  12.898 -0.3745  0.3582 -0.4318
  279TIP3    H225033   2.833   2.440  12.859  0.3061  0.9066  0.7763
  280TIP3   OH225034   5.228   5.394  11.638 -0.0723  0.5245  0.1031
  280TIP3    H125035   5.300   5.435  11.590 -1.1554  0.8312 -1.3302
  280TIP3    H225036   5.151   5.411  11.584 -0.9847 -1.1102  0.8362
  281TIP3   OH225037   4.719   5.970  12.779  0.3442 -0.0727  0.4442
  281TIP3    H125038   4.787   5.915  12.741  1.0932  0.8230  0.4222
  281TIP3    H225039   4.653   5.979  12.710 -0.1300 -1.4819  0.6949
  282TIP3   OH225040   0.066   5.863  12.087  0.1874 -0.0169 -0.0162
  282TIP3    H125041   0.055   5.890  12.178  0.3517 -0.8041  0.2373
  282TIP3    H225042   0.143   5.912  12.058  0.9365 -0.7631  0.6688
  283TIP3   OH225043   2.963   0.415  11.479  0.4657 -0.5371  0.2162
  283TIP3    H125044   2.887   0.367  11.510  0.6999  0.2938  2.1954
  283TIP3    H225045   3.028   0.347  11.459  0.3974 -1.1428  1.8839
  284TIP3   OH225046   0.786   5.607   4.446 -0.8375 -0.1749 -0.1920
  284TIP3    H125047   0.744   5.524   4.468 -1.6557  0.4660  0.8066
  284TIP3    H225048   0.872   5.583   4.414  0.7476 -1.3201  4.1942
  285TIP3   OH225049   0.410   0.957   4.308  0.1427 -0.0928  0.1099
  285TIP3    H125050   0.379   0.954   4.398 -1.4698  1.1331 -0.3472
  285TIP3    H225051   0.335   0.988   4.258  0.6781 -1.7123 -1.8343
  286TIP3   OH225052   4.828   1.005   6.144  1.2144  0.1795  0.3181
  286TIP3    H125053   4.806   0.955   6.222  0.8429  1.1668  0.8569
  286TIP3    H225054   4.878   1.080   6.177 -1.4427  2.2341 -0.0019
  287TIP3   OH225055   5.676   2.850   4.871  0.0809  0.4214 -0.0637
  287TIP3    H125056   5.697   2.808   4.788 -1.6821 -0.7822  0.0380
  287TIP3    H225057   5.755   2.840   4.924  0.8386  0.1941 -1.2055
  288TIP3   OH225058   5.674   4.710   4.162 -0.0942  0.4990 -0.8384
  288TIP3    H125059   5.667   4.734   4.255  0.9602  0.1350 -0.6483
  288TIP3    H225060   5.717   4.785   4.121  0.1945  0.3171 -0.8714
  289TIP3   OH225061   5.529   3.990   6.065  0.4119 -0.0834  0.1299
  289TIP3    H125062   5.600   3.928   6.047  0.8166 -0.1800  1.9014
  289TIP3    H225063   5.572   4.063   6.109  0.2060  2.2866 -3.2233
  290TIP3   OH225064   6.922   6.492   5.186 -0.6033  0.1352  0.1081
  290TIP3    H125065   6.856   6.471   5.120 -0.4625 -0.2166  0.0770
  290TIP3    H225066   7.005   6.480   5.141 -0.5040 -0.2495  0.3957
  291TIP3   OH225067   6.822   5.108   6.497 -0.6173  0.1683 -0.7499
  291TIP3    H125068   6.749   5.048   6.480  0.7221 -1.0994 -2.2860
  291TIP3    H225069   6.885   5.055   6.547 -0.0622  0.7524 -0.8205
  292TIP3   OH225070   3.412   2.400   4.116  0.4191 -0.7281 -0.0797
  292TIP3    H125071   3.480   2.453   4.158 -0.2416  1.4897 -1.6694
  292TIP3    H225072   3.336   2.407   4.175  0.4733 -0.3124 -0.0630
  293TIP3   OH225073   6.259   3.631   4.284 -0.0446  0.0164  0.3190
  293TIP3    H125074   6.271   3.653   4.376  1.7587 -2.2281  0.7006
  293TIP3    H225075   6.168   3.600   4.279  0.2927 -1.3029  1.7046
  294TIP3   OH225076   2.422   6.981   5.547  0.2791  0.4680 -0.4615
  294TIP3    H125077   2.384   7.050   5.602 -1.6655  0.6520 -1.9274
  294TIP3    H225078   2.395   6.899   5.590 -2.1245  0.5879 -1.5788
  295TIP3   OH225079   0.194   6.590   5.023  0.5490  0.4383 -0.4126
  295TIP3    H125080   0.166   6.652   5.090  0.3331  1.4585 -1.4220
  295TIP3    H225081   0.285   6.613   5.005  0.1320  1.2320 -1.6010
  296TIP3   OH225082   2.365   6.885   3.602 -0.0613  0.4200 -0.1940
  296TIP3    H125083   2.380   6.816   3.538  0.3182  1.4765 -1.2833
  296TIP3    H225084   2.313   6.844   3.671  0.4739 -1.0353 -0.6308
  297TIP3   OH225085   6.099   5.797   5.392 -0.5056  0.1908 -0.1842
  297TIP3    H125086   6.121   5.711   5.357 -1.9187  0.1003 -0.9266
  297TIP3    H225087   6.153   5.858   5.341  0.0329 -0.2054 -0.0912
  298TIP3   OH225088   0.346   3.169   6.113  0.7600  0.5344 -0.2436
  298TIP3    H125089   0.275   3.187   6.052  1.5707  0.2268 -1.3103
  298TIP3    H225090   0.305   3.170   6.199 -0.6782 -0.4584 -0.8905
  299TIP3   OH225091   6.023   2.683   5.514 -0.1871  0.7998  0.1993
  299TIP3    H125092   6.014   2.776   5.492 -0.9502  0.8993  0.8545
  299TIP3    H225093   5.953   2.667   5.578 -0.2213 -0.2869 -0.0887
  300TIP3   OH225094   2.070   3.195   5.036 -0.3133 -0.0107  0.1351
  300TIP3    H125095   2.114   3.110   5.032  0.2912  0.3252 -0.6638
  300TIP3    H225096   2.106   3.244   4.962  1.4061  1.9068  2.0873
  301TIP3   OH225097   5.319   6.155   5.168  0.0028  0.1677 -0.7041
  301TIP3    H125098   5.378   6.135   5.240  0.2837 -1.7987 -1.4364
  301TIP3    H225099   5.377   6.181   5.096 -0.2306  1.2580 -0.5222
  302TIP3   OH225100   3.790   3.193   4.402  0.1324  0.2221 -0.0711
  302TIP3    H125101   3.881   3.207   4.427  0.6460 -1.1018 -1.0761
  302TIP3    H225102   3.739   3.239   4.469  1.5149  0.4454  0.8639
  303TIP3   OH225103   1.813   3.352   4.900  0.4156  0.1400 -0.3927
  303TIP3    H125104   1.719   3.365   4.882  0.2933  0.1490  0.2309
  303TIP3    H225105   1.815   3.289   4.972  0.9296 -0.7783 -1.1883
  304TIP3   OH225106   5.444   7.120   6.701  0.1402  0.1488  0.3086
  304TIP3    H125107   5.511   7.073   6.751  0.9282  0.6814 -0.2241
  304TIP3    H225108   5.468   7.212   6.710 -1.4769  0.5014  1.4707
  305TIP3   OH225109   1.660   7.291   6.296  0.0227 -0.0615  0.0673
  305TIP3    H125110   1.586   7.289   6.357 -0.0828 -0.0136 -0.0602
  305TIP3    H225111   1.665   7.203   6.261 -1.2844  0.4486 -1.5090
  306TIP3   OH225112   2.525   1.890   4.048  0.3896  0.2265  0.0505
  306TIP3    H125113   2.618   1.909   4.058  0.3902  0.2555 -0.0100
  306TIP3    H225114   2.518   1.797   4.070  0.3703  0.3192  0.4375
  307TIP3   OH225115   6.138   1.000   4.145  0.9662 -0.3071 -0.6551
  307TIP3    H125116   6.093   0.938   4.088  0.4453  1.1987 -1.9601
  307TIP3    H225117   6.074   1.022   4.213  0.4814  0.2029 -1.2700
  308TIP3   OH225118   3.891   4.973   5.362  0.6249 -0.4442 -0.3671
  308TIP3    H125119   3.937   4.927   5.292 -0.5548  0.5869 -1.8922
  308TIP3    H225120   3.930   5.061   5.362  0.2257 -0.2646 -0.1329
  309TIP3   OH225121   3.058   2.477   5.349 -0.2076  0.4300 -0.0056
  309TIP3    H125122   3.112   2.452   5.274 -0.1515  0.7069 -0.0582
  309TIP3    H225123   2.973   2.500   5.310 -0.7106 -1.0208  0.1714
  310TIP3   OH225124   1.838   1.520   4.427 -0.2249  0.2076  0.2798
  310TIP3    H125125   1.900   1.476   4.485 -0.5915 -0.0224  0.4981
  310TIP3    H225126   1.765   1.544   4.483  0.0491  1.2846  0.2112
  311TIP3   OH225127   1.946   0.939   5.440 -0.4245 -0.6311  0.1989
  311TIP3    H125128   1.883   0.868   5.456 -2.2439  0.8225 -0.0918
  311TIP3    H225129   1.923   1.006   5.504  0.9209 -0.0896  0.1416
  312TIP3   OH225130   0.304   3.852   4.102 -0.2113  0.5890  0.1647
  312TIP3    H125131   0.320   3.943   4.128  0.1279  0.4320  0.5269
  312TIP3    H225132   0.313   3.852   4.007  0.0788  0.8800  0.1908
  313TIP3   OH225133   1.187   2.221   5.821  0.4038 -0.0627 -0.3663
  313TIP3    H125134   1.272   2.183   5.843  0.5317  0.6956  0.5204
  313TIP3    H225135   1.132   2.203   5.897  0.5157  1.6037  0.1568
  314TIP3   OH225136   4.721   3.231   5.700  0.0580  0.5916 -0.2371
  314TIP3    H125137   4.748   3.222   5.792  0.4522 -0.8836 -0.4713
  314TIP3    H225138   4.663   3.157   5.685 -0.6802  1.3075 -0.9551
  315TIP3   OH225139   7.073   3.416   4.649 -0.5548 -0.4089  0.3664
  315TIP3    H125140   7.111   3.496   4.611 -0.9345 -0.1135  0.5909
  315TIP3    H225141   7.137   3.348   4.631 -1.6373 -0.7961 -2.8128
  316TIP3   OH225142   4.112   4.691   5.496 -0.0929  0.3335  0.4792
  316TIP3    H125143   4.150   4.620   5.444 -0.8999  0.8588 -0.8972
  316TIP3    H225144   4.026   4.658   5.523 -0.0269  0.3889  0.7612
  317TIP3   OH225145   0.671   5.162   6.501 -0.4189  0.0645  0.6026
  317TIP3    H125146   0.631   5.091   6.551  0.3422  0.8569  2.4001
  317TIP3    H225147   0.598   5.218   6.475 -0.9041 -0.7906  0.0788
  318TIP3   OH225148   3.137   4.595   5.506  0.3688  0.5059  0.3061
  318TIP3    H125149   3.111   4.559   5.591  0.3878 -0.5782 -0.1204
  318TIP3    H225150   3.192   4.526   5.468 -1.1421  0.1642 -1.3651
  319TIP3   OH225151   4.072   5.206   4.563 -0.0052  0.0838  0.2450
  319TIP3    H125152   4.098   5.129   4.614  1.1122  0.4673  0.2794
  319TIP3    H225153   4.125   5.277   4.599  1.6054  0.1807 -2.1263
  320TIP3   OH225154   5.246   7.489   6.363  0.2034  0.2784 -0.2702
  320TIP3    H125155   5.312   7.557   6.362  0.8478 -0.3295  0.1714
  320TIP3    H225156   5.219   7.480   6.271  0.7345  0.5288 -0.4518
  321TIP3   OH225157   4.268   6.707   3.720 -0.0168  0.1247 -0.3014
  321TIP3    H125158   4.286   6.666   3.805  0.8670  0.9081 -0.0916
  321TIP3    H225159   4.236   6.635   3.665  3.2055 -1.3643 -0.4945
  322TIP3   OH225160   1.679   4.769   4.795 -0.0735  0.1142  0.5150
  322TIP3    H125161   1.679   4.862   4.771 -0.3709  0.2658  1.0812
  322TIP3    H225162   1.734   4.727   4.729  0.1983  0.7188  0.3514
  323TIP3   OH225163   2.141   1.527  10.266 -0.1479  0.2066  0.0463
  323TIP3    H125164   2.205   1.568  10.324 -0.0681  0.3798 -0.1608
  323TIP3    H225165   2.154   1.433  10.278 -1.4724  0.2135  1.7812
  324TIP3   OH225166   3.902   4.999  10.807  0.3232  0.4475  0.2558
  324TIP3    H125167   3.830   4.938  10.815  1.9973 -1.4595  2.0006
  324TIP3    H225168   3.861   5.086  10.811 -1.7508 -0.4597  4.2712
  325TIP3   OH225169   6.797   7.670  10.517  0.5452  0.5671  0.5501
  325TIP3    H125170   6.832   7.582  10.507  0.0861  0.3846  0.5199
  325TIP3    H225171   6.864   7.727  10.478  0.5920  0.1884  0.0591
  326TIP3   OH225172   1.320   0.583  10.843 -0.1357  0.1330 -0.1745
  326TIP3    H125173   1.242   0.635  10.865 -0.0254  0.5411 -0.7458
  326TIP3    H225174   1.286   0.494  10.829 -0.6234  0.4611 -1.1922
  327TIP3   OH225175   5.313   5.486  12.552  0.0103 -0.3810  0.1469
  327TIP3    H125176   5.387   5.519  12.603 -1.2014  3.1688 -0.0903
  327TIP3    H225177   5.338   5.500  12.461 -0.6335  0.1762  0.0449
  328TIP3   OH225178   2.044   7.444  11.784  0.2407 -0.5023 -0.5801
  328TIP3    H125179   1.979   7.487  11.729 -0.9942 -0.4668  0.8499
  328TIP3    H225180   2.089   7.383  11.725 -0.8626 -0.3060 -1.6637
  329TIP3   OH225181   4.200   6.810  11.088 -0.1480 -0.5816 -0.3553
  329TIP3    H125182   4.194   6.837  10.997 -1.9295 -1.5254 -0.5649
  329TIP3    H225183   4.289   6.774  11.097  0.2914  0.1755 -1.5055
  330TIP3   OH225184   3.691   3.801  12.108  0.2576  0.3752  0.2687
  330TIP3    H125185   3.655   3.888  12.122  0.9912  0.9669 -1.3675
  330TIP3    H225186   3.784   3.810  12.129  0.5005  0.2047 -0.7090
  331TIP3   OH225187   2.222   5.007  10.854 -0.2313 -0.1926  0.3805
  331TIP3    H125188   2.133   5.016  10.886  0.6133 -0.8517  3.2249
  331TIP3    H225189   2.238   4.913  10.854  1.1700 -0.0010  2.2246
  332TIP3   OH225190   3.230   4.284  11.412 -0.1300 -0.4245 -0.3379
  332TIP3    H125191   3.270   4.337  11.481  0.9305 -0.0997 -1.1750
  332TIP3    H225192   3.257   4.194  11.432 -1.5066 -0.6288  0.7912
  333TIP3   OH225193   1.540   1.844  10.114  0.1745  0.2374  0.2035
  333TIP3    H125194   1.533   1.811  10.203  2.2552 -0.2933  0.2297
  333TIP3    H225195   1.512   1.935  10.119  0.4286  0.2657  1.4442
  334TIP3   OH225196   2.401   4.384  11.851  0.4330  1.1673  0.6221
  334TIP3    H125197   2.318   4.348  11.820  0.1382  1.3999  1.1281
  334TIP3    H225198   2.424   4.330  11.927  0.9185  0.8931  0.2928
  335TIP3   OH225199   0.541   6.746  10.937 -0.4475 -0.3117  0.3559
  335TIP3    H125200   0.453   6.781  10.922 -0.7096  1.0002  3.8861
  335TIP3    H225201   0.529   6.651  10.939 -1.5508 -0.2073 -0.2881
  336TIP3   OH225202   7.418   1.151   9.683  0.0176 -0.4719 -0.1147
  336TIP3    H125203   7.362   1.083   9.647  0.6322 -1.4062  0.6368
  336TIP3    H225204   7.488   1.103   9.727 -1.1432  0.5253  3.0991
  337TIP3   OH225205   0.144   1.314  11.369 -0.0110  0.2004  0.5823
  337TIP3    H125206   0.057   1.283  11.345  0.7624 -1.5631 -0.1456
  337TIP3    H225207   0.134   1.409  11.379 -1.9871  0.0409  0.4883
  338TIP3   OH225208   0.975   2.949  11.186 -0.1350  0.3924 -0.5597
  338TIP3    H125209   0.975   3.024  11.246 -0.6077  0.4279 -0.6031
  338TIP3    H225210   0.910   2.971  11.119 -2.2463 -1.1553  0.8290
  339TIP3   OH225211   5.696   1.303  11.517  0.4839 -0.1287 -0.3616
  339TIP3    H125212   5.731   1.274  11.433  2.1574 -2.8757  1.1277
  339TIP3    H225213   5.767   1.354  11.557  0.0865  0.2846 -0.1638
  340TIP3   OH225214   6.008   6.659  12.499  0.3260  0.1471  0.0440
  340TIP3    H125215   5.931   6.705  12.466 -0.1735 -0.3256  0.5218
  340TIP3    H225216   5.991   6.567  12.481  1.3038  0.1275 -0.8780
  341TIP3   OH225217   3.209   3.086  12.868 -0.4299  0.4933  0.9195
  341TIP3    H125218   3.223   3.086  12.774 -0.5065 -1.0626  0.8757
  341TIP3    H225219   3.121   3.122  12.879 -0.2010  1.2032  0.4411
  342TIP3   OH225220   6.443   3.583   9.950 -0.2094  0.1869  0.4162
  342TIP3    H125221   6.468   3.623  10.034 -1.3883  1.2143  0.3031
  342TIP3    H225222   6.350   3.605   9.940 -0.1519 -0.1611 -1.0360
  343TIP3   OH225223   4.644   5.386  11.861  0.7244  0.1829 -0.1308
  343TIP3    H125224   4.731   5.378  11.822  1.3889 -1.2614  1.4987
  343TIP3    H225225   4.661   5.420  11.949 -0.4611  0.7666 -0.1076
  344TIP3   OH225226   0.882   1.669  10.757  0.0444 -0.0078  0.0792
  344TIP3    H125227   0.875   1.574  10.741  1.6621 -0.0429 -0.5573
  344TIP3    H225228   0.855   1.680  10.848  1.4607 -1.3191  0.6894
  345TIP3   OH225229   1.587   6.352  11.954  0.0581 -0.0936  0.3073
  345TIP3    H125230   1.525   6.398  12.011 -0.3927  1.3809 -1.3187
  345TIP3    H225231   1.548   6.265  11.943 -1.5758  0.6807 -0.3707
  346TIP3   OH225232   6.306   7.558  10.870 -0.5427  0.1085  0.1948
  346TIP3    H125233   6.360   7.480  10.871 -1.7217 -0.7881  2.8016
  346TIP3    H225234   6.368   7.631  10.870  0.5661 -0.7828 -1.5916
  347TIP3   OH225235   0.117   5.089  11.869  0.0374 -0.3512 -0.0451
  347TIP3    H125236   0.122   5.108  11.963 -1.3574 -1.0808  0.2030
  347TIP3    H225237   0.155   5.002  11.860  1.1619  0.1507 -0.3376
  348TIP3   OH225238   2.916   1.398  12.127 -0.0051 -0.1328  0.4442
  348TIP3    H125239   2.960   1.377  12.044 -1.1213  0.9950 -0.4687
  348TIP3    H225240   2.988   1.411  12.189  0.9125  0.1734 -0.6368
  349TIP3   OH225241   5.726   1.209  10.208  0.5083  0.2825 -0.3654
  349TIP3    H125242   5.765   1.123  10.199  1.7616  0.8626 -0.6745
  349TIP3    H225243   5.640   1.193  10.247 -0.9942 -1.4768 -3.9217
  350TIP3   OH225244   3.850   5.286  11.760 -0.0028 -0.4071  0.2635
  350TIP3    H125245   3.779   5.236  11.719 -0.1217  0.6324 -0.8420
  350TIP3    H225246   3.905   5.219  11.800 -1.0033 -1.3125  0.1962
  351TIP3   OH225247   3.335   7.385  12.682 -0.2374 -0.3753  0.6073
  351TIP3    H125248   3.388   7.456  12.647 -0.4503  0.8892  2.6890
  351TIP3    H225249   3.399   7.318  12.707 -0.0177 -0.8638 -1.0926
  352TIP3   OH225250   4.133   7.033  10.409 -0.9922  0.3679 -0.0746
  352TIP3    H125251   4.078   7.104  10.441 -0.0748  0.1014  2.2396
  352TIP3    H225252   4.222   7.065  10.421 -0.5796 -0.9138  0.4289
  353TIP3   OH225253   4.760   1.046  11.707 -0.4644 -0.0586 -0.5181
  353TIP3    H125254   4.791   1.063  11.618  2.8139 -0.6010  0.3915
  353TIP3    H225255   4.732   0.955  11.706 -1.0423  0.1177 -1.1112
  354TIP3   OH225256   4.540   2.190  12.271 -0.1905  0.8019 -0.1087
  354TIP3    H125257   4.479   2.246  12.319  2.0366  2.8106  0.6067
  354TIP3    H225258   4.610   2.249  12.243  1.8838 -1.4741 -0.0750
  355TIP3   OH225259   6.918   2.799  12.527 -0.3394  0.0766 -0.0033
  355TIP3    H125260   7.014   2.800  12.523 -0.3658  0.5115 -0.5884
  355TIP3    H225261   6.897   2.708  12.548  0.2159  0.0686  0.5520
  356TIP3   OH225262   5.328   6.741  11.550 -0.0636 -0.2898  0.1401
  356TIP3    H125263   5.384   6.778  11.482 -0.8958  0.1382 -0.3319
  356TIP3    H225264   5.246   6.790  11.543 -0.9423 -1.7181 -0.0232
  357TIP3   OH225265   5.088   6.912  11.526 -0.2816 -0.4793 -0.3325
  357TIP3    H125266   5.023   6.941  11.461  1.3455  1.4597 -1.2108
  357TIP3    H225267   5.079   6.975  11.598  2.1931  1.3896 -1.5376
  358TIP3   OH225268   2.684   3.277  10.639 -0.1295 -0.4191  0.2551
  358TIP3    H125269   2.772   3.305  10.666 -0.1223 -0.4115  0.2235
  358TIP3    H225270   2.653   3.347  10.582  0.0373 -0.6487 -0.1222
  359TIP3   OH225271   0.918   3.829  10.034  0.0350 -0.2922  0.1120
  359TIP3    H125272   0.949   3.855  10.120 -0.5226 -0.7913  0.4737
  359TIP3    H225273   0.842   3.886  10.018  2.0505  2.1246 -1.5067
  360TIP3   OH225274   7.211   0.444  11.032  0.2666 -0.1367 -0.6221
  360TIP3    H125275   7.244   0.441  11.122 -1.7083 -0.9266  0.1065
  360TIP3    H225276   7.197   0.353  11.008  1.0213  0.0480 -1.8660
  361TIP3   OH225277   5.021   2.242  11.443  0.3984  0.0316  0.4064
  361TIP3    H125278   5.007   2.153  11.474  0.7939 -0.8231 -1.6851
  361TIP3    H225279   4.936   2.270  11.410  0.7625 -0.5220 -1.1049
  362TIP3   OH225280   2.350   7.657  12.807  0.0226  0.3467 -0.0999
  362TIP3    H125281   2.387   7.595  12.870 -0.7806  0.3981  0.4327
  362TIP3    H225282   2.260   7.671  12.836 -0.5875 -0.1533 -1.6495
  363TIP3   OH225283   0.090   3.239  11.500  0.3557 -0.4567 -0.0168
  363TIP3    H125284   0.006   3.251  11.456 -0.1123  1.0696  1.2309
  363TIP3    H225285   0.146   3.307  11.463  0.3022  0.0908  0.8908
  364TIP3   OH225286   1.408   5.392  11.534 -0.2592 -0.0159 -0.4121
  364TIP3    H125287   1.371   5.425  11.616 -1.4879  0.2626 -1.0508
  364TIP3    H225288   1.337   5.341  11.495  0.6505 -0.9989 -0.8345
  365TIP3   OH225289   6.598   4.410  11.022 -0.1064  0.1414  0.8196
  365TIP3    H125290   6.638   4.326  11.042 -0.1578  0.6056  3.2316
  365TIP3    H225291   6.575   4.405  10.929  1.6193 -1.7451  0.4316
  366TIP3   OH225292   3.521   6.482  10.807 -0.4699 -0.3906  0.3138
  366TIP3    H125293   3.537   6.524  10.891  0.4284 -0.7829  0.3551
  366TIP3    H225294   3.435   6.514  10.780 -0.9528 -0.5589  1.5615
  367TIP3   OH225295   5.182   3.904  11.108 -0.0576  0.1543  0.2655
  367TIP3    H125296   5.184   3.971  11.177  1.9676  1.0049 -0.5166
  367TIP3    H225297   5.268   3.863  11.113 -0.0855 -0.1584 -1.3573
  368TIP3   OH225298   4.615   0.120  11.905 -0.2822 -0.8476 -0.5611
  368TIP3    H125299   4.691   0.165  11.867  0.6942  0.0222  2.1545
  368TIP3    H225300   4.620   0.031  11.872  2.1799 -0.9063 -0.1845
  369TIP3   OH225301   2.856   7.483   9.984 -0.1131  0.4891  0.3511
  369TIP3    H125302   2.843   7.400  10.029  1.3991 -0.5133 -0.9237
  369TIP3    H225303   2.781   7.490   9.925 -0.5008  0.2758  0.8104
  370TIP3   OH225304   1.054   4.509  10.010  0.0244 -0.2596 -0.1526
  370TIP3    H125305   1.081   4.596  10.039  0.6978 -1.0361  1.7884
  370TIP3    H225306   1.112   4.488   9.937 -1.4547  1.6365 -1.9854
  371TIP3   OH225307   0.181   7.323  12.063 -0.8098  0.2063  0.6853
  371TIP3    H125308   0.151   7.412  12.079 -0.2066  0.6770 -0.6679
  371TIP3    H225309   0.146   7.300  11.977 -0.1725 -0.5074  0.5996
  372TIP3   OH225310   6.847   4.982  12.367 -0.1302  0.0966  0.2220
  372TIP3    H125311   6.802   5.061  12.336  2.6233  1.8253  0.2538
  372TIP3    H225312   6.932   4.984  12.324 -0.0447 -3.1007 -0.0041
  373TIP3   OH225313   1.411   1.645  11.209  0.3285  0.1258 -0.9201
  373TIP3    H125314   1.413   1.740  11.219  0.1835  0.1646 -1.2137
  373TIP3    H225315   1.324   1.628  11.172  0.0376 -0.2004 -0.1143
  374TIP3   OH225316   6.570   6.637  10.062 -0.1631 -0.3737 -0.6667
  374TIP3    H125317   6.586   6.726  10.032 -3.0074  0.1918 -0.8265
  374TIP3    H225318   6.487   6.613  10.021 -0.6325 -2.2180  1.2130
  375TIP3   OH225319   5.519   7.072  12.018  0.0259  0.1221  0.4245
  375TIP3    H125320   5.437   7.042  11.979  0.0990 -0.9459  1.0525
  375TIP3    H225321   5.566   7.114  11.946 -1.1315  0.8869  0.0958
  376TIP3   OH225322   6.301   1.005  11.455 -0.4715 -0.2456  0.1976
  376TIP3    H125323   6.327   1.076  11.514 -2.0056 -0.6600  1.4584
  376TIP3    H225324   6.262   1.049  11.380 -1.9423  0.2852  1.2296
  377TIP3   OH225325   5.531   5.174  10.742 -0.2500 -0.2411  0.0630
  377TIP3    H125326   5.592   5.119  10.692 -1.1996 -1.7419  0.5151
  377TIP3    H225327   5.452   5.177  10.688 -1.3756 -2.0664  1.4758
  378TIP3   OH225328   3.666   0.168  11.783 -0.2445 -0.3064  0.3529
  378TIP3    H125329   3.661   0.076  11.755  0.9412 -0.4840  0.6430
  378TIP3    H225330   3.656   0.164  11.878 -0.9512 -0.0471  0.2937
  379TIP3   OH225331   7.493   0.657  11.385  0.3371  0.2200  0.4177
  379TIP3    H125332   7.440   0.734  11.405 -0.7027 -0.3828  0.0622
  379TIP3    H225333   7.562   0.690  11.329  1.4576  1.3597  2.3364
  380TIP3   OH225334   6.717   4.945  10.310 -0.5575 -0.3736 -0.1058
  380TIP3    H125335   6.711   4.964  10.404 -0.0971  1.5391 -0.4421
  380TIP3    H225336   6.626   4.939  10.282 -0.7464  1.4352  0.0294
  381TIP3   OH225337   2.120   4.228  12.254  0.2808  0.3015  0.3281
  381TIP3    H125338   2.186   4.284  12.295  0.8284 -0.6084  0.7192
  381TIP3    H225339   2.166   4.187  12.180  0.5435 -1.2592  1.3082
  382TIP3   OH225340   7.159   0.361  11.945 -0.0704  0.3367 -0.0167
  382TIP3    H125341   7.081   0.412  11.922 -1.1511 -0.6868  1.1727
  382TIP3    H225342   7.188   0.398  12.028  1.0844  1.0901 -0.7411
  383TIP3   OH225343   6.627   0.570  11.862 -0.1338 -0.3132 -0.0827
  383TIP3    H125344   6.631   0.665  11.847 -0.3542 -0.2326  0.3275
  383TIP3    H225345   6.544   0.544  11.823 -0.0185 -0.3596 -0.2998
  384TIP3   OH225346   5.718   3.607  12.239  0.0242  0.0792  0.6345
  384TIP3    H125347   5.742   3.530  12.290  0.6014 -1.6469 -2.0535
  384TIP3    H225348   5.801   3.648  12.217 -0.2132  0.7215  0.8966
  385TIP3   OH225349   6.386   1.053  12.581  0.0609 -0.1157  0.7360
  385TIP3    H125350   6.297   1.074  12.554 -0.0384 -2.3051 -0.9107
  385TIP3    H225351   6.440   1.121  12.542 -0.5582 -0.7939 -1.4264
  386TIP3   OH225352   1.114   6.890  12.169  0.0032 -0.3262 -0.5612
  386TIP3    H125353   1.166   6.962  12.130  0.6568 -0.9205 -0.8140
  386TIP3    H225354   1.145   6.812  12.123  0.4835 -0.9952  0.8586
  387TIP3   OH225355   5.762   4.005  11.798 -0.2415 -0.0714 -0.1266
  387TIP3    H125356   5.771   3.927  11.853 -1.1422 -0.2217 -0.1640
  387TIP3    H225357   5.764   3.973  11.709  0.8865  0.1346 -0.1842
  388TIP3   OH225358   6.230   2.873  10.649 -0.0787 -0.2717 -0.3154
  388TIP3    H125359   6.272   2.897  10.732 -0.5675 -0.8542  0.1070
  388TIP3    H225360   6.294   2.815  10.607  1.2476  1.8930 -1.4834
  389TIP3   OH225361   2.924   6.721  11.326 -0.3311 -0.8967  0.1402
  389TIP3    H125362   2.902   6.765  11.244  1.2016  0.1042  0.2287
  389TIP3    H225363   2.926   6.791  11.391  0.1759 -1.4025  0.6789
  390TIP3   OH225364   4.144   5.473  11.162  0.1942 -0.4414 -0.0527
  390TIP3    H125365   4.184   5.388  11.145  2.1930  0.5327 -0.4608
  390TIP3    H225366   4.169   5.527  11.087  0.0303  0.8640  0.8018
  391TIP3   OH225367   5.066   0.251  11.246 -0.6124 -0.1605  0.3118
  391TIP3    H125368   5.007   0.312  11.290 -0.4124 -0.0352  0.4100
  391TIP3    H225369   5.145   0.251  11.300 -0.4717 -0.2228  0.1073
  392TIP3   OH225370   4.820   0.708  12.196  0.3363  0.0095  0.1075
  392TIP3    H125371   4.781   0.782  12.243 -1.6548 -0.8135 -0.1707
  392TIP3    H225372   4.833   0.741  12.107  0.6607  0.4196  0.3029
  393TIP3   OH225373   4.397   3.450  11.691 -0.3841 -0.2765  0.1315
  393TIP3    H125374   4.379   3.450  11.785  0.5833  1.6177  0.3779
  393TIP3    H225375   4.322   3.495  11.652 -0.0423  0.3781  0.2095
  394TIP3   OH225376   6.390   1.511  12.612  0.2434  0.1242  0.3488
  394TIP3    H125377   6.376   1.605  12.604  1.0904  0.2786  0.5614
  394TIP3    H225378   6.485   1.502  12.625 -0.1296 -0.5385  3.1824
  395TIP3   OH225379   0.056   7.219  10.587 -0.1085  0.6002  0.5967
  395TIP3    H125380   0.131   7.181  10.633  1.3724 -0.0163 -2.0796
  395TIP3    H225381  -0.017   7.161  10.608  0.8815 -0.6078  0.8415
  396TIP3   OH225382   6.283   5.729  10.588  0.2193 -0.1689  0.1637
  396TIP3    H125383   6.294   5.816  10.625 -2.5094  0.7314 -0.8964
  396TIP3    H225384   6.259   5.674  10.662 -1.0452  0.6763  0.4062
  397TIP3   OH225385   0.982   3.332  11.039 -0.2110 -0.0672 -0.5450
  397TIP3    H125386   1.023   3.392  10.977 -0.7244  3.3022  2.1324
  397TIP3    H225387   0.889   3.337  11.019 -0.1408 -1.1972 -1.2446
  398TIP3   OH225388   6.710   5.631  10.634  0.1420 -0.0079 -0.1372
  398TIP3    H125389   6.711   5.564  10.565  1.2615 -0.1113 -0.0310
  398TIP3    H225390   6.733   5.712  10.588  0.0709  0.0767 -0.0237
  399TIP3   OH225391   6.458   6.456   9.788  0.3509  0.3061 -0.0390
  399TIP3    H125392   6.410   6.487   9.865 -1.2374 -0.9285 -0.4795
  399TIP3    H225393   6.483   6.366   9.810 -2.6391 -1.1379 -1.9410
  400TIP3   OH225394   5.914   3.745  10.240  0.3803 -0.4162  0.0501
  400TIP3    H125395   5.980   3.678  10.224  1.2134  0.3259  0.2544
  400TIP3    H225396   5.866   3.753  10.158  1.3260 -0.1533 -0.4904
  401TIP3   OH225397   2.917   6.578  11.617  0.2395 -0.1386 -0.3398
  401TIP3    H125398   2.963   6.513  11.670 -0.6375 -0.9773 -0.5778
  401TIP3    H225399   2.918   6.657  11.670  0.7368 -0.5304  0.2514
  402TIP3   OH225400   0.309   5.672  12.722  0.4761  0.3501 -0.1272
  402TIP3    H125401   0.312   5.626  12.806 -1.7108  1.0831  0.4163
  402TIP3    H225402   0.246   5.621  12.670  0.4567  0.9213 -0.6694
  403TIP3   OH225403   7.443   0.160  11.295 -0.4523  0.0939 -0.2593
  403TIP3    H125404   7.478   0.073  11.279  3.0020  1.0578  1.2786
  403TIP3    H225405   7.453   0.206  11.211  1.0616  0.0168 -0.1357
  404TIP3   OH225406   1.667   4.062  12.391  0.0864 -0.9023  0.0895
  404TIP3    H125407   1.722   4.114  12.450 -0.3960  0.4508 -0.6339
  404TIP3    H225408   1.615   4.126  12.343 -0.0961 -2.0194 -1.2604
  405TIP3   OH225409   5.372   4.869  12.025 -0.1587  0.2896 -0.3253
  405TIP3    H125410   5.393   4.859  11.932  2.6952 -1.4596  0.3736
  405TIP3    H225411   5.295   4.813  12.038  0.0096 -0.2402 -1.4636
  406TIP3   OH225412   2.829   6.901  10.765 -0.5870  0.1536  0.3979
  406TIP3    H125413   2.808   6.879  10.674 -2.0629  0.5338  0.6206
  406TIP3    H225414   2.806   6.994  10.772  1.3964  0.6748  0.6505
  407TIP3   OH225415   7.217   7.586  12.214 -0.3332  0.5564 -0.1959
  407TIP3    H125416   7.284   7.618  12.274 -0.5535 -0.7752  0.8050
  407TIP3    H225417   7.148   7.652  12.219  0.1156  1.0083  0.1866
  408TIP3   OH225418   2.749   0.244  10.060 -0.2786  0.3027 -0.1140
  408TIP3    H125419   2.669   0.193  10.076  0.0882 -0.3168 -0.2055
  408TIP3    H225420   2.817   0.177  10.046  0.5129  0.7944  1.1896
  409TIP3   OH225421   4.339   7.529  10.297  0.5854 -0.7061 -0.3746
  409TIP3    H125422   4.343   7.593  10.226 -0.4638  0.7515  0.8244
  409TIP3    H225423   4.246   7.521  10.318  0.8582 -1.2088  0.7247
  410TIP3   OH225424   6.356   1.777  12.630  0.2393 -0.2547 -0.4029
  410TIP3    H125425   6.435   1.811  12.589  0.3209  1.3527  0.9574
  410TIP3    H225426   6.302   1.855  12.646 -0.4621 -0.9932  1.0772
  411TIP3   OH225427   7.186   2.659  10.785 -0.4243  0.0247 -0.0484
  411TIP3    H125428   7.274   2.627  10.800 -0.1646  0.7221 -0.0441
  411TIP3    H225429   7.180   2.669  10.689  0.9203  3.7309  0.0685
  412TIP3   OH225430   3.172   7.679  10.581  0.2503  0.1234 -0.1439
  412TIP3    H125431   3.173   7.625  10.660 -0.5327  0.8771  0.4036
  412TIP3    H225432   3.195   7.767  10.612 -0.4966  0.5211 -0.6817
  413TIP3   OH225433   6.028   1.374  10.581  0.0023  0.2083 -0.0307
  413TIP3    H125434   5.934   1.363  10.566  0.1229 -1.5302  0.2423
  413TIP3    H225435   6.070   1.321  10.513  0.8167  1.4685 -0.5350
  414TIP3   OH225436   6.231   4.703  12.029 -0.5952  0.1358  0.0892
  414TIP3    H125437   6.221   4.651  11.949 -0.2349  0.2067 -0.0049
  414TIP3    H225438   6.215   4.793  12.001 -0.6278  0.1426  0.1298
  415TIP3   OH225439   6.656   7.464   9.808 -0.4513 -1.1367  0.1426
  415TIP3    H125440   6.659   7.395   9.742  1.4135 -0.8670 -0.1193
  415TIP3    H225441   6.615   7.538   9.764 -2.3055 -1.9669  0.3717
  416TIP3   OH225442   0.384   5.119  12.412  0.1179  0.1895  0.0571
  416TIP3    H125443   0.403   5.177  12.485 -0.5218 -0.0037  0.3883
  416TIP3    H225444   0.464   5.067  12.402 -0.3160 -0.8831  1.6707
  417TIP3   OH225445   0.947   5.572  10.969 -0.0452 -0.2069  0.3411
  417TIP3    H125446   0.918   5.575  10.878 -1.6373 -0.1327  0.8253
  417TIP3    H225447   1.018   5.636  10.974 -0.0832 -0.0563 -0.7819
  418TIP3   OH225448   3.192   7.503  12.231  0.2079  0.4849 -0.3992
  418TIP3    H125449   3.286   7.497  12.216  0.2774  4.1732 -2.6144
  418TIP3    H225450   3.152   7.447  12.164  0.7684 -0.7969  0.3137
  419TIP3   OH225451   2.748   5.420  11.213 -0.8479 -0.0162 -0.2497
  419TIP3    H125452   2.806   5.371  11.156  0.5634 -1.0967  1.9760
  419TIP3    H225453   2.804   5.453  11.283 -2.4252  1.5427  0.3832
  420TIP3   OH225454   4.127   3.217  11.722  0.3805 -0.0201 -0.5079
  420TIP3    H125455   4.112   3.250  11.811  0.0297 -0.8374 -0.2567
  420TIP3    H225456   4.054   3.156  11.707 -0.5445  1.3878 -2.0117
  421TIP3   OH225457   4.406   3.984  11.138 -0.0304 -0.3154  0.2022
  421TIP3    H125458   4.481   3.924  11.134  0.3374  0.2047 -1.2911
  421TIP3    H225459   4.440   4.063  11.181  0.7811  0.5428 -1.8921
  422TIP3   OH225460   4.207   3.236  11.101  0.7060  0.2137  0.1884
  422TIP3    H125461   4.177   3.321  11.134  0.3498 -0.1797  0.9099
  422TIP3    H225462   4.138   3.175  11.128  0.7344 -0.2343 -0.7255
  423TIP3   OH225463   2.588   7.340  10.075  0.2081  0.2366  0.0274
  423TIP3    H125464   2.561   7.421  10.118 -0.6468 -0.0442  0.0452
  423TIP3    H225465   2.679   7.328  10.101 -0.6132 -0.6008  2.8689
  424TIP3   OH225466   4.294   5.985  10.013  0.4268  0.2034  0.2785
  424TIP3    H125467   4.340   6.044   9.953  0.0278 -1.1033 -1.4302
  424TIP3    H225468   4.231   6.040  10.058 -0.5561  1.0006 -1.9099
  425TIP3   OH225469   5.670   6.657  11.164 -0.5014 -0.2402 -0.1829
  425TIP3    H125470   5.695   6.665  11.257 -0.9943  0.8664 -0.1289
  425TIP3    H225471   5.611   6.581  11.162  0.2192 -0.8238  0.2529
  426TIP3   OH225472   3.418   7.086  12.301  0.2692 -0.2474 -0.2772
  426TIP3    H125473   3.339   7.124  12.340  0.0359  0.3192 -1.2654
  426TIP3    H225474   3.487   7.148  12.322  0.6893 -1.2726  1.5096
  427TIP3   OH225475   2.049   7.548  10.624 -0.0186  0.3566  0.1166
  427TIP3    H125476   1.968   7.515  10.584 -0.7207  2.4071 -0.3266
  427TIP3    H225477   2.071   7.483  10.690 -1.3456 -0.8805 -0.5834
  428TIP3   OH225478   5.140   1.507  11.566 -0.0615  0.2151  0.0254
  428TIP3    H125479   5.099   1.422  11.584  0.4439 -0.0880 -0.2447
  428TIP3    H225480   5.227   1.501  11.606 -0.6089  1.2157  1.4584
  429TIP3   OH225481   5.509   2.839  10.625 -0.0806  0.1931  0.1131
  429TIP3    H125482   5.487   2.905  10.690 -0.0957 -2.7941  3.4214
  429TIP3    H225483   5.425   2.817  10.584 -0.2075  1.4496 -0.3640
  430TIP3   OH225484   4.360   6.093  10.613  0.1353 -0.2044  0.1600
  430TIP3    H125485   4.360   6.032  10.687 -0.3395  0.3790  0.6579
  430TIP3    H225486   4.267   6.113  10.599  0.3275  2.4493  1.7744
  431TIP3   OH225487   0.361   3.085  11.007  0.3765  0.0498  0.0591
  431TIP3    H125488   0.300   3.096  10.934  1.3755  1.2601 -0.6368
  431TIP3    H225489   0.369   3.173  11.045  1.1891 -0.2204  0.5362
  432TIP3   OH225490   4.830   4.536  11.503  0.3414  0.8963 -0.2525
  432TIP3    H125491   4.813   4.446  11.476 -1.5615  1.3714 -0.7700
  432TIP3    H225492   4.857   4.528  11.595 -0.1351 -0.1658 -0.1873
  433TIP3   OH225493   6.622   4.431  10.734 -0.0089 -0.3253  0.3460
  433TIP3    H125494   6.557   4.468  10.675  0.1507 -0.3791  0.1365
  433TIP3    H225495   6.679   4.379  10.677  0.6264  0.2793  0.4328
  434TIP3   OH225496   0.173   3.734  12.493  0.0053  0.3076 -0.5003
  434TIP3    H125497   0.084   3.731  12.458  0.0607  0.6112 -0.6662
  434TIP3    H225498   0.177   3.816  12.541  0.0981  0.1443 -0.2271
  435TIP3   OH225499   2.809   3.881  10.543 -0.0400  0.7411 -0.6102
  435TIP3    H125500   2.724   3.901  10.581 -0.4749 -3.0051  0.7145
  435TIP3    H225501   2.799   3.904  10.450 -2.3290  0.8221 -0.4087
  436TIP3   OH225502   0.667   1.893   9.877 -0.5135 -0.1282  0.2875
  436TIP3    H125503   0.613   1.879   9.799 -0.9730  1.1475  0.3532
  436TIP3    H225504   0.654   1.986   9.899  0.6301 -0.1448  1.1175
  437TIP3   OH225505   6.404   4.043  12.119  0.1309 -0.2051 -0.1121
  437TIP3    H125506   6.473   4.037  12.053  0.0954  1.6855 -0.3944
  437TIP3    H225507   6.323   4.031  12.070  0.0375  2.2887 -0.6933
  438TIP3   OH225508   0.715   5.503  12.851  0.5031  0.1039 -0.1513
  438TIP3    H125509   0.747   5.426  12.805 -0.6922 -0.2879 -0.3652
  438TIP3    H225510   0.782   5.570  12.837  1.4630 -0.8366 -0.1225
  439TIP3   OH225511   5.851   5.545  11.754  0.3853  0.4341  0.4082
  439TIP3    H125512   5.844   5.474  11.691  0.4860  1.5293 -0.8868
  439TIP3    H225513   5.774   5.600  11.738  1.2877  1.6437  0.0487
  440TIP3   OH225514   4.305   1.313  12.235  0.1125 -0.4412  0.0541
  440TIP3    H125515   4.241   1.355  12.292 -0.5321  0.0773 -1.0260
  440TIP3    H225516   4.254   1.275  12.164  1.0376  0.7290 -1.2925
  441TIP3   OH225517   4.358   7.268  12.342  0.1525 -0.6244  0.7241
  441TIP3    H125518   4.337   7.361  12.351 -1.7380 -1.0631  1.3556
  441TIP3    H225519   4.361   7.253  12.247  0.4507  0.0673  0.6209
  442TIP3   OH225520   6.723   6.084  11.587  0.2466 -0.1664 -0.6527
  442TIP3    H125521   6.643   6.090  11.534  0.9685  0.7788 -1.6853
  442TIP3    H225522   6.699   6.119  11.672 -0.3871  0.3440 -1.0341
  443TIP3   OH225523   6.314   1.793  11.012  0.6691  0.5775  0.4625
  443TIP3    H125524   6.405   1.766  11.027  0.9996  0.9772 -0.6942
  443TIP3    H225525   6.321   1.871  10.956 -0.3979  0.1718 -0.2725
  444TIP3   OH225526   4.164   3.361  11.953 -0.0781  0.1074 -0.3021
  444TIP3    H125527   4.086   3.415  11.940 -0.9042 -1.2192 -1.1702
  444TIP3    H225528   4.231   3.422  11.980 -1.2375  1.4096 -0.2418
  445TIP3   OH225529   0.032   1.529  10.868  0.1253  0.0877 -0.8566
  445TIP3    H125530   0.004   1.575  10.948  1.3657 -0.3021 -0.1814
  445TIP3    H225531   0.121   1.559  10.853 -0.6900  1.6277 -3.2201
  446TIP3   OH225532   7.381   0.416  10.007 -0.5089  0.2778  0.1110
  446TIP3    H125533   7.345   0.328   9.992  2.0116 -0.9610  0.6757
  446TIP3    H225534   7.323   0.474   9.959 -2.5723 -1.6330  0.1316
  447TIP3   OH225535   0.840   1.294  10.978  0.3948 -0.4489  0.1013
  447TIP3    H125536   0.925   1.325  11.009 -0.8171  0.5258  2.8296
  447TIP3    H225537   0.778   1.322  11.046 -1.9113 -2.3764 -1.0313
  448TIP3   OH225538   0.934   1.187  11.749 -0.1771  0.6234  0.0725
  448TIP3    H125539   1.000   1.204  11.816  0.6913 -1.4246 -0.1789
  448TIP3    H225540   0.883   1.268  11.744  1.7082  1.9356  0.9485
  449TIP3   OH225541   4.719   3.007  11.729 -0.0202  0.1495  0.6585
  449TIP3    H125542   4.635   2.969  11.754  0.7502 -2.0362  0.1435
  449TIP3    H225543   4.782   2.966  11.789  1.0936 -0.8255 -1.1198
  450TIP3   OH225544   4.781   7.142  11.585  0.0932  0.2455 -0.1291
  450TIP3    H125545   4.692   7.166  11.559  0.2529  0.9690 -0.0366
  450TIP3    H225546   4.824   7.116  11.504 -0.5078 -1.1421 -0.0237
  451TIP3   OH225547   2.051   4.845  11.859 -0.2977 -0.2118  0.5342
  451TIP3    H125548   2.077   4.753  11.856  0.8302  0.1083 -1.1005
  451TIP3    H225549   2.109   4.885  11.924  1.1230 -0.1609 -0.7103
  452TIP3   OH225550   6.470   4.477  11.927 -0.1236  0.3952 -0.1523
  452TIP3    H125551   6.526   4.400  11.915  2.3065  2.1493 -1.0402
  452TIP3    H225552   6.413   4.454  12.000  1.6049 -1.6642  0.6715
  453TIP3   OH225553   3.035   6.163  11.537 -0.1894  0.0650 -0.1616
  453TIP3    H125554   3.010   6.204  11.620  1.2890  0.5491  0.0879
  453TIP3    H225555   3.066   6.237  11.483  3.2025 -0.6651  0.5408
  454TIP3   OH225556   1.943   6.775  11.085 -0.2296  0.5276  0.1283
  454TIP3    H125557   1.873   6.790  11.149 -0.3266 -1.5050  0.5621
  454TIP3    H225558   1.913   6.701  11.033  2.2512 -1.6196  1.4774
  455TIP3   OH225559   6.773   5.151  10.906 -0.2427  0.1809 -0.2964
  455TIP3    H125560   6.762   5.135  10.812 -1.4725 -0.4625 -0.0575
  455TIP3    H225561   6.736   5.074  10.949 -1.8391  1.4780  0.7711
  456TIP3   OH225562   3.044   5.365  11.617 -0.3332 -0.3490  0.4580
  456TIP3    H125563   3.134   5.397  11.614 -0.8509  1.0980 -0.4510
  456TIP3    H225564   3.049   5.275  11.583  0.8043 -0.4281  0.7925
  457TIP3   OH225565   5.099   5.779  12.004  0.4223  0.4186 -0.0541
  457TIP3    H125566   5.054   5.764  11.921  0.2365 -0.7978  0.2469
  457TIP3    H225567   5.188   5.750  11.988  0.2226 -0.4546  0.3484
  458TIP3   OH225568   0.964   5.965  11.229 -0.8081 -0.1082 -0.3200
  458TIP3    H125569   1.030   5.897  11.213 -0.3654  0.0315  0.8446
  458TIP3    H225570   1.008   6.029  11.284 -2.1785 -0.4934  1.3244
  459TIP3   OH225571   0.321   2.954  10.520 -0.4019  0.4799 -0.2928
  459TIP3    H125572   0.287   3.043  10.508 -0.3648  0.3092 -1.8536
  459TIP3    H225573   0.416   2.964  10.512 -0.4885  0.0829 -2.2646
  460TIP3   OH225574   2.578   5.654  11.308  0.0669 -0.1229 -0.3393
  460TIP3    H125575   2.493   5.641  11.350  1.0765 -0.3528  1.7593
  460TIP3    H225576   2.618   5.567  11.308  0.7230  0.1725 -0.3005
  461TIP3   OH225577   7.168   3.637  12.526 -0.4297 -0.7356  0.2714
  461TIP3    H125578   7.079   3.641  12.561 -0.4753  1.0758  0.0910
  461TIP3    H225579   7.222   3.608  12.599 -1.1455 -1.6933  0.4299
  462TIP3   OH225580   2.427   7.174  11.389 -0.1741 -0.1087 -0.1998
  462TIP3    H125581   2.516   7.208  11.402 -0.8735  2.1362 -0.7987
  462TIP3    H225582   2.440   7.094  11.337  1.5816 -0.9519  1.4024
  463TIP3   OH225583   5.844   3.912  12.353 -0.2767  0.0207 -0.0211
  463TIP3    H125584   5.773   3.854  12.379 -1.6932  1.6821  0.0047
  463TIP3    H225585   5.884   3.939  12.436 -0.6071  0.2924  0.0471
  464TIP3   OH225586   0.318   6.299  11.937  0.1291 -0.0451 -0.0407
  464TIP3    H125587   0.223   6.308  11.928  0.4102  2.0877 -1.8994
  464TIP3    H225588   0.351   6.389  11.935  2.0473 -0.4016  3.9841
  465TIP3   OH225589   1.353   6.928  11.607 -0.2038 -0.0218 -0.6602
  465TIP3    H125590   1.418   6.997  11.596  0.1541 -0.1124  0.6735
  465TIP3    H225591   1.386   6.855  11.554 -1.5262  1.3473 -3.6282
  466TIP3   OH225592   7.649   7.069  11.931 -0.2426 -0.3481 -0.1184
  466TIP3    H125593   7.699   7.108  11.859 -0.0022  0.2008  0.3445
  466TIP3    H225594   7.559   7.098  11.916 -0.2592 -0.5339 -0.3974
  467TIP3   OH225595   3.159   7.191  12.752 -0.1282 -0.2457 -0.8280
  467TIP3    H125596   3.254   7.182  12.761 -0.1817  1.2013  3.0934
  467TIP3    H225597   3.148   7.275  12.707  0.5798  1.3043  1.7064
  468TIP3   OH225598   3.918   3.468  12.733 -0.9217  0.0473 -0.1812
  468TIP3    H125599   3.884   3.522  12.804  0.0516 -0.7169  0.9055
  468TIP3    H225600   3.955   3.531  12.671  0.0815  0.6768  1.0065
  469TIP3   OH225601   6.798   4.070  12.862 -0.0704 -0.2102  0.3321
  469TIP3    H125602   6.798   3.990  12.915  1.2092 -0.4069  0.0709
  469TIP3    H225603   6.840   4.045  12.780  0.7826  0.8356  0.4316
  470TIP3   OH225604   1.166   1.111  11.938  0.6156 -0.0390 -0.5138
  470TIP3    H125605   1.143   1.070  11.855  0.7306  0.2377 -0.6823
  470TIP3    H225606   1.217   1.044  11.984  0.4864 -0.2201 -0.6300
  471TIP3   OH225607   7.208   2.456  11.874  0.0454  0.5503 -0.1344
  471TIP3    H125608   7.196   2.378  11.929 -1.3626  1.4063  0.8428
  471TIP3    H225609   7.197   2.424  11.785  0.6183 -0.5666  0.1763
  472TIP3   OH225610   3.018   7.412  12.418  0.2916  0.0462  0.1060
  472TIP3    H125611   3.086   7.438  12.356  0.2849  1.2595  0.5873
  472TIP3    H225612   2.978   7.495  12.446  0.7975 -0.3908  2.3206
  473TIP3   OH225613   6.285   4.732  12.468 -0.2846  0.1101 -0.3549
  473TIP3    H125614   6.320   4.706  12.554  0.2938  1.2084 -0.2422
  473TIP3    H225615   6.241   4.653  12.435  1.0097 -0.8642  0.1719
  474TIP3   OH225616   3.172   4.197  12.176  0.0024  0.1079 -0.3578
  474TIP3    H125617   3.189   4.288  12.198 -0.5456  0.0576  0.3215
  474TIP3    H225618   3.190   4.149  12.257  0.3938 -0.3994 -0.7436
  475TIP3   OH225619   4.553   3.696  11.640  0.6356  0.0485 -0.3476
  475TIP3    H125620   4.589   3.745  11.714 -0.2187  0.2967 -0.0870
  475TIP3    H225621   4.507   3.623  11.680  1.2280 -0.5328 -0.7031
  476TIP3   OH225622   3.711   4.281  11.043 -0.0828 -0.0342 -0.2137
  476TIP3    H125623   3.724   4.330  11.124 -0.9035  1.0837 -0.7344
  476TIP3    H225624   3.799   4.262  11.011  0.2494  0.8539  0.1561
  477TIP3   OH225625   7.590   1.655  11.088  0.5694 -1.2585  0.1918
  477TIP3    H125626   7.609   1.748  11.101  0.2916 -1.2478  0.5521
  477TIP3    H225627   7.496   1.647  11.108  0.6750 -1.6799  0.5211
  478TIP3   OH225628   3.785   6.232  12.471 -0.1462  0.0878  0.2184
  478TIP3    H125629   3.753   6.316  12.505 -1.3858 -0.3481  0.1771
  478TIP3    H225630   3.756   6.230  12.380  2.6332  0.9775 -0.7716
  479TIP3   OH225631   3.868   4.928  11.630  0.4120  0.2428  0.0107
  479TIP3    H125632   3.928   4.857  11.603  1.2248  0.8415  0.2044
  479TIP3    H225633   3.849   4.974  11.548 -0.0824 -0.1681 -0.1089
  480TIP3   OH225634   0.861   5.639  10.711  0.3150  0.4974 -0.4960
  480TIP3    H125635   0.811   5.562  10.683  0.4942  0.4572 -0.7162
  480TIP3    H225636   0.949   5.624  10.676  0.7852  0.0323  0.8074
  481TIP3   OH225637   2.163   4.790  11.548  0.8276  0.1391  0.2089
  481TIP3    H125638   2.177   4.782  11.643  3.3825  1.6451  0.0267
  481TIP3    H225639   2.097   4.859  11.540 -1.6318 -1.9590  0.8810
  482TIP3   OH225640   4.714   5.805  11.827 -0.1789 -0.0728 -0.1748
  482TIP3    H125641   4.643   5.869  11.823  0.1612  0.2889 -0.5887
  482TIP3    H225642   4.748   5.814  11.916 -0.0696  0.4031 -0.2581
  483TIP3   OH225643   3.344   3.632  10.741 -0.2930  0.2563  0.1176
  483TIP3    H125644   3.344   3.728  10.736  0.8382  0.2296 -0.6669
  483TIP3    H225645   3.425   3.611  10.788 -0.0903 -0.3433 -0.4965
  484TIP3   OH225646   4.249   0.235  10.157 -0.4609 -0.1734  0.4826
  484TIP3    H125647   4.197   0.161  10.128 -0.9922 -0.5297  2.2143
  484TIP3    H225648   4.337   0.200  10.170 -0.8146 -0.6571  1.7434
  485TIP3   OH225649   2.463   3.427  12.964 -0.1526 -0.5219  0.5501
  485TIP3    H125650   2.492   3.435  12.873  0.8697 -2.0346  0.7035
  485TIP3    H225651   2.540   3.395  13.011 -1.1570 -1.4431  1.6273
  486TIP3   OH225652   4.221   3.248  10.288 -0.0163  0.4818  0.0712
  486TIP3    H125653   4.227   3.342  10.270  0.0854  0.4873  0.1356
  486TIP3    H225654   4.300   3.211  10.250 -0.9115  0.1580 -1.6133
  487TIP3   OH225655   4.819   4.948  10.284 -0.0569  0.0856  0.6354
  487TIP3    H125656   4.888   5.014  10.289  0.4227 -0.2298 -1.1214
  487TIP3    H225657   4.749   4.991  10.235 -0.6821  0.0399  1.4758
  488TIP3   OH225658   5.648   6.888   9.795  0.5371 -0.3901  0.4057
  488TIP3    H125659   5.603   6.804   9.797 -0.8025  0.2491 -0.8954
  488TIP3    H225660   5.620   6.932   9.875 -1.4771  0.1125 -0.5174
  489TIP3   OH225661   0.361   6.137  10.305  0.3157 -0.0692  0.1200
  489TIP3    H125662   0.377   6.114  10.397 -1.7037 -0.2289  0.4868
  489TIP3    H225663   0.318   6.060  10.269  0.7464  0.1412 -0.8612
  490TIP3   OH225664   5.881   2.789  11.869 -0.1508 -0.3935 -0.1366
  490TIP3    H125665   5.860   2.700  11.841  1.4979 -0.7718 -0.2227
  490TIP3    H225666   5.918   2.779  11.956 -1.7216  0.4247  0.6764
  491TIP3   OH225667   6.096   1.122  12.543 -1.0360  0.0021  0.0183
  491TIP3    H125668   6.126   1.192  12.601 -0.0524  0.4064 -0.9312
  491TIP3    H225669   6.097   1.161  12.455  0.1343 -1.3441 -0.6285
  492TIP3   OH225670   2.486   0.363  10.269  0.3520 -0.1813 -0.0718
  492TIP3    H125671   2.407   0.395  10.225  1.9978  0.7272 -2.5970
  492TIP3    H225672   2.502   0.277  10.232 -0.4078 -1.1886  1.8161
  493TIP3   OH225673   6.707   0.366  11.617  0.5108 -0.3933 -0.0951
  493TIP3    H125674   6.626   0.355  11.567  0.0365  0.3124  0.4873
  493TIP3    H225675   6.685   0.335  11.705  1.1560 -1.0573 -0.1554
  494TIP3   OH225676   0.872   1.390  10.720 -0.1456 -0.4410 -0.4048
  494TIP3    H125677   0.895   1.366  10.810  0.0010  0.9352 -0.0481
  494TIP3    H225678   0.781   1.362  10.711 -0.9267  1.4393  0.9871
  495TIP3   OH225679   6.708   6.961  10.669 -1.2233 -0.0552  0.2504
  495TIP3    H125680   6.783   6.915  10.704 -0.0959  0.9856 -0.6905
  495TIP3    H225681   6.663   6.996  10.746 -0.3110 -0.0473  0.7897
  496TIP3   OH225682   7.594   6.938  10.737  0.2944 -1.1666  0.4723
  496TIP3    H125683   7.500   6.946  10.719  0.2981 -1.4199  0.3328
  496TIP3    H225684   7.598   6.902  10.826  0.2499 -1.6507  0.2816
  497TIP3   OH225685   7.084   3.856  12.357 -0.1303  0.3305 -0.0490
  497TIP3    H125686   7.107   3.835  12.448 -2.0247  0.0253  0.4103
  497TIP3    H225687   7.035   3.780  12.327 -0.0612  0.7020 -1.1303
  498TIP3   OH225688   6.640   3.742  10.705  0.3335  0.2097  0.3844
  498TIP3    H125689   6.707   3.676  10.686  0.4300  0.4516 -0.1401
  498TIP3    H225690   6.602   3.762  10.620 -0.0340  0.4714  0.6081
  499TIP3   OH225691   3.002   3.843  12.522 -0.0956  0.3597 -0.6331
  499TIP3    H125692   2.920   3.890  12.505  0.2212  0.9324 -0.6199
  499TIP3    H225693   2.977   3.751  12.526 -0.8751  0.5969  0.2075
  500TIP3   OH225694   6.179   2.190  12.068 -0.1298 -0.4625  0.5558
  500TIP3    H125695   6.182   2.277  12.028 -1.1503  0.4711  2.3838
  500TIP3    H225696   6.270   2.161  12.071  0.1044  0.0034 -1.1378
  501TIP3   OH225697   2.348   0.093  10.687  0.0627 -0.1758 -0.0420
  501TIP3    H125698   2.389   0.174  10.718  0.4005 -0.3608  0.0013
  501TIP3    H225699   2.384   0.025  10.745 -1.0009 -0.2189  0.5939
  502TIP3   OH225700   7.476   0.934  12.275  0.1030 -0.7232  0.4868
  502TIP3    H125701   7.440   0.921  12.188  0.4265 -2.8686  0.5983
  502TIP3    H225702   7.401   0.924  12.334 -0.1767  1.0626  0.4749
  503TIP3   OH225703   5.782   5.042   9.824  0.0015  0.1648 -0.0178
  503TIP3    H125704   5.824   4.988   9.891  2.1500 -0.4678 -1.7679
  503TIP3    H225705   5.722   4.982   9.780 -0.2178  0.1595  0.2830
  504TIP3   OH225706   6.001   6.467  10.359 -0.1682  0.5647 -0.4854
  504TIP3    H125707   6.012   6.520  10.281 -0.0456  0.5160 -0.5016
  504TIP3    H225708   6.011   6.528  10.432  1.0161  0.3874 -0.4844
  505TIP3   OH225709   4.535   3.545  11.152 -0.2015 -0.2393 -0.2027
  505TIP3    H125710   4.502   3.543  11.242  2.7830  2.3537  1.1229
  505TIP3    H225711   4.539   3.638  11.129 -0.2715 -0.8063 -2.7980
  506TIP3   OH225712   1.185   2.494  10.710  0.8194  0.8102 -0.1873
  506TIP3    H125713   1.219   2.413  10.748  0.3905  0.9778  0.5697
  506TIP3    H225714   1.124   2.465  10.642  0.1277  0.4795  0.5553
  507TIP3   OH225715   5.416   1.146  10.302  0.1428  0.8389  0.2208
  507TIP3    H125716   5.361   1.069  10.320 -0.9459  1.6867  0.6541
  507TIP3    H225717   5.497   1.129  10.350 -0.6644  0.6287  1.5699
  508TIP3   OH225718   3.263   2.895  11.409 -0.2289  0.7645  0.1976
  508TIP3    H125719   3.308   2.949  11.474 -1.0907 -1.2209  2.6029
  508TIP3    H225720   3.319   2.818  11.401 -0.1279  0.9898 -1.5099
  509TIP3   OH225721   4.034   6.314  11.250 -0.1411  0.1631  0.1884
  509TIP3    H125722   3.971   6.358  11.307  0.9571 -0.1371  1.6865
  509TIP3    H225723   4.097   6.382  11.227  0.4606 -0.1383  0.8971
  510TIP3   OH225724   5.937   2.610  11.008  0.4581  0.1615  0.7403
  510TIP3    H125725   5.968   2.651  11.088 -0.9612  2.2248  0.3258
  510TIP3    H225726   5.912   2.683  10.951  0.4472 -1.2495 -1.1930
  511TIP3   OH225727   3.189   2.192  11.768  0.1936  0.3694 -0.3166
  511TIP3    H125728   3.113   2.140  11.743  1.5073 -1.7422 -0.1824
  511TIP3    H225729   3.153   2.268  11.814 -1.7861 -1.2988  1.0353
  512TIP3   OH225730   6.180   4.130  12.644 -0.2084 -0.1009  0.1722
  512TIP3    H125731   6.182   4.217  12.683 -0.6010  0.2003 -0.4608
  512TIP3    H225732   6.269   4.097  12.654 -0.2651  0.0350  1.1643
  513TIP3   OH225733   0.369   1.533  12.667  0.4610 -0.2093  0.4117
  513TIP3    H125734   0.449   1.585  12.661  0.3561  0.0255  1.0188
  513TIP3    H225735   0.367   1.501  12.757 -1.6502  2.3086  1.4361
  514TIP3   OH225736   4.076   0.984  11.966  0.0247  0.4349 -0.0081
  514TIP3    H125737   4.111   0.900  11.939  1.1605  1.0719 -0.5943
  514TIP3    H225738   4.121   1.004  12.048 -0.1752  0.5174  0.0835
  515TIP3   OH225739   5.170   3.976  12.192  0.4369 -0.5448  1.0341
  515TIP3    H125740   5.255   4.019  12.193 -0.0407  0.4564  0.6243
  515TIP3    H225741   5.189   3.886  12.167  1.3435 -0.2261  0.5104
  516TIP3   OH225742   2.141   1.495  11.654  0.2065 -0.0072  0.8794
  516TIP3    H125743   2.130   1.586  11.681 -0.6510 -0.0465  0.7104
  516TIP3    H225744   2.233   1.475  11.670  0.1961  0.6144  1.7617
  517TIP3   OH225745   5.181   6.242  11.931  0.4441 -0.1446 -0.1118
  517TIP3    H125746   5.153   6.178  11.997 -0.6861 -0.7594 -1.1519
  517TIP3    H225747   5.222   6.190  11.862  0.6134  0.3756 -0.4097
  518TIP3   OH225748   2.963   0.039  11.062  0.1070 -0.4080  0.1484
  518TIP3    H125749   3.018   0.116  11.043 -2.1886  1.4908  0.6833
  518TIP3    H225750   2.952   0.041  11.157  0.7489 -1.9909  0.2777
  519TIP3   OH225751   2.600   3.432  12.293 -0.1912 -0.1216 -0.3556
  519TIP3    H125752   2.545   3.379  12.235 -0.8358 -1.1739  1.1641
  519TIP3    H225753   2.567   3.522  12.282 -4.3476 -1.0029  2.6250
  520TIP3   OH225754   4.926   4.589  12.061 -0.2697  0.1026 -0.2810
  520TIP3    H125755   4.938   4.631  11.976  0.6713 -2.4123 -1.4783
  520TIP3    H225756   4.831   4.586  12.074 -0.3750  2.4152 -0.1732
  521TIP3   OH225757   0.055   6.899  11.336 -0.2319  0.1949  0.5813
  521TIP3    H125758   0.062   6.970  11.399 -0.7400  0.0088  0.8565
  521TIP3    H225759   0.046   6.943  11.251 -0.6432  0.4620  0.7604
  522TIP3   OH225760   4.563   1.419  11.429 -0.4365  0.1010  0.0730
  522TIP3    H125761   4.551   1.468  11.510 -0.0602 -0.3506  0.4056
  522TIP3    H225762   4.536   1.480  11.360  1.0339  1.1646  0.3823
  523TIP3   OH225763   4.214   2.885  12.103 -0.3412 -0.0918 -0.0947
  523TIP3    H125764   4.280   2.825  12.068  0.8095  0.6455  0.7301
  523TIP3    H225765   4.252   2.972  12.090 -1.0919  0.3455  0.5353
  524TIP3   OH225766   0.666   7.038  11.256 -0.4948 -0.5505  0.3198
  524TIP3    H125767   0.707   6.955  11.234 -1.3702 -1.4774  2.0287
  524TIP3    H225768   0.573   7.024  11.240 -0.4511  0.9013 -1.6277
  525TIP3   OH225769   0.894   4.587  11.261 -0.0784 -0.3772 -0.2762
  525TIP3    H125770   0.846   4.636  11.193  1.2867 -0.1712 -1.1215
  525TIP3    H225771   0.918   4.505  11.219  0.0662 -0.6042  0.2454
  526TIP3   OH225772   7.649   0.782  11.636  0.2374  0.0713 -0.0306
  526TIP3    H125773   7.712   0.819  11.574  0.4157  0.9104  0.6271
  526TIP3    H225774   7.649   0.688  11.617 -1.0516  0.4767 -2.5030
  527TIP3   OH225775   6.491   0.847  10.517  0.0205 -0.0598 -0.0242
  527TIP3    H125776   6.581   0.830  10.491  0.2023 -0.0184  0.5666
  527TIP3    H225777   6.475   0.788  10.590 -0.6811 -0.6128 -0.6050
  528TIP3   OH225778   2.818   5.688  11.074  0.7595 -0.0292  0.0750
  528TIP3    H125779   2.890   5.729  11.122  0.6485 -1.0520  1.1428
  528TIP3    H225780   2.761   5.651  11.142 -0.2916 -0.0551 -0.7822
  529TIP3   OH225781   4.357   4.511  10.034  0.4614  0.4933  0.1643
  529TIP3    H125782   4.400   4.564   9.967 -1.7240  0.6439 -1.2155
  529TIP3    H225783   4.425   4.495  10.099  2.6497  0.4804 -1.9883
  530TIP3   OH225784   3.829   7.186  11.629 -0.4099 -0.2855 -0.4665
  530TIP3    H125785   3.899   7.137  11.672  1.1513  1.7727 -0.5282
  530TIP3    H225786   3.815   7.140  11.546 -1.6014 -2.7333  0.9840
  531TIP3   OH225787   5.342   6.167  12.993 -0.0057 -0.1773 -0.2113
  531TIP3    H125788   5.257   6.131  13.020  0.3703 -0.9894 -0.0794
  531TIP3    H225789   5.338   6.167  12.897 -1.0820  2.0878 -0.2472
  532TIP3   OH225790   1.926   6.525  11.384 -0.5155 -0.7110  0.0861
  532TIP3    H125791   1.990   6.468  11.342 -1.0320 -1.5683  0.4368
  532TIP3    H225792   1.978   6.595  11.422  0.1831 -1.2093  0.0697
  533TIP3   OH225793   7.002   3.227  10.426  0.6192  0.6272 -0.5393
  533TIP3    H125794   7.016   3.137  10.457 -0.3648  0.3666 -0.8157
  533TIP3    H225795   7.026   3.282  10.501 -1.7297  0.0121  0.7692
  534TIP3   OH225796   1.278   2.429  11.006 -0.2481 -0.0861 -0.0255
  534TIP3    H125797   1.310   2.350  10.962  1.0071  0.7267 -0.6554
  534TIP3    H225798   1.357   2.479  11.027 -0.8303 -0.1916  2.7750
  535TIP3   OH225799   0.088   4.894  11.486  0.5838 -0.0977  0.3097
  535TIP3    H125800   0.109   4.868  11.396  2.2405  0.1615  0.5832
  535TIP3    H225801   0.079   4.811  11.533 -0.3595 -0.2358 -0.0994
  536TIP3   OH225802   4.312   0.513  11.426 -0.2903 -0.4329 -0.0744
  536TIP3    H125803   4.366   0.562  11.364  1.4164 -0.1086  1.5797
  536TIP3    H225804   4.310   0.424  11.391  2.2953 -0.7254  0.3526
  537TIP3   OH225805   5.004   5.250  11.327  0.5839  0.5379  0.3701
  537TIP3    H125806   5.067   5.179  11.340 -0.2009 -0.5829 -1.4242
  537TIP3    H225807   5.058   5.328  11.317  1.6589 -0.2235 -0.0710
  538TIP3   OH225808   0.763   6.128  11.349  0.3058 -0.1833 -0.1522
  538TIP3    H125809   0.814   6.062  11.302  1.8762  1.4285 -0.8325
  538TIP3    H225810   0.707   6.167  11.281 -0.4939 -0.6725  0.2116
  539TIP3   OH225811   4.914   1.317  10.888 -0.4460  0.3781  0.2790
  539TIP3    H125812   4.862   1.239  10.867 -0.7875  0.6647  0.0700
  539TIP3    H225813   4.867   1.358  10.961  0.2188 -0.0949  0.9991
  540TIP3   OH225814   2.526   0.901  12.631 -0.0305 -0.2135  0.0587
  540TIP3    H125815   2.617   0.926  12.647  0.1005 -1.4719  1.5231
  540TIP3    H225816   2.522   0.808  12.653 -1.5097 -0.3651 -0.7108
  541TIP3   OH225817   1.381   5.065  11.432  0.0765 -0.3260 -0.1172
  541TIP3    H125818   1.439   5.009  11.484  0.9455  0.0892 -0.6035
  541TIP3    H225819   1.436   5.093  11.358 -0.8745 -0.2285 -0.8003
  542TIP3   OH225820   1.195   3.010  12.355  0.1167  0.0300 -0.3856
  542TIP3    H125821   1.107   2.996  12.320  0.3260  0.7703 -1.2524
  542TIP3    H225822   1.238   2.925  12.348 -0.1449 -0.0469 -1.0785
  543TIP3   OH225823   6.129   4.722  11.031 -0.3178 -0.1129 -0.1683
  543TIP3    H125824   6.036   4.702  11.044 -0.1182 -0.4210  0.9426
  543TIP3    H225825   6.164   4.644  10.987 -0.6896  0.2559 -1.1503
  544TIP3   OH225826   2.732   7.149  10.728 -0.2031 -0.0451  0.2101
  544TIP3    H125827   2.735   7.238  10.764 -1.8913  0.8576 -1.6832
  544TIP3    H225828   2.773   7.157  10.642  0.2621 -1.2909  0.2900
  545TIP3   OH225829   0.595   6.570  10.463 -0.9985  0.5145 -0.2150
  545TIP3    H125830   0.586   6.656  10.504 -0.1043 -0.1691  1.5648
  545TIP3    H225831   0.622   6.589  10.373 -1.4221  2.0957 -0.0399
  546TIP3   OH225832   1.483   6.734  12.321  0.1492  0.3453  0.2023
  546TIP3    H125833   1.403   6.759  12.367  0.1223  1.5048 -0.4234
  546TIP3    H225834   1.460   6.740  12.228  0.6663 -0.3583  0.0203
  547TIP3   OH225835   4.330   0.602  10.499 -0.0431 -0.2267  0.2088
  547TIP3    H125836   4.294   0.690  10.490 -2.5252 -0.8415  2.8001
  547TIP3    H225837   4.274   0.547  10.444  1.4858 -0.2955 -1.3853
  548TIP3   OH225838   1.863   1.936  11.591 -0.9293  0.0390  0.7103
  548TIP3    H125839   1.931   1.872  11.611  0.3025  0.1866 -2.4887
  548TIP3    H225840   1.790   1.884  11.557 -1.1927  0.1273  1.1302
  549TIP3   OH225841   4.717   6.914  13.121 -0.8122 -0.1702 -0.0511
  549TIP3    H125842   4.683   6.868  13.044 -0.9268 -0.6566  0.2812
  549TIP3    H225843   4.780   6.852  13.159  0.7571  0.8463 -0.8566
  550TIP3   OH225844   2.537   3.304  12.530  0.4259  0.2265  0.0068
  550TIP3    H125845   2.445   3.276  12.529  0.8877 -1.3867 -0.2660
  550TIP3    H225846   2.545   3.362  12.454 -0.1862 -0.2664 -0.4469
  551TIP3   OH225847   4.026   5.348  11.539 -0.7091 -0.0498  0.3396
  551TIP3    H125848   4.089   5.410  11.503 -0.6470 -1.1297 -1.5482
  551TIP3    H225849   3.959   5.403  11.580  0.2645  1.1857  0.3471
  552TIP3   OH225850   3.577   1.438  11.390  0.0956 -0.0314 -0.1811
  552TIP3    H125851   3.551   1.354  11.428 -0.6070  0.8798  1.4699
  552TIP3    H225852   3.612   1.487  11.464 -0.1066  1.3698 -0.9855
  553TIP3   OH225853   6.084   3.775  12.462  0.0227 -0.8112 -0.4053
  553TIP3    H125854   6.053   3.854  12.506  1.5579  0.1048 -0.9110
  553TIP3    H225855   6.095   3.711  12.532  0.0974 -0.1380  0.2052
  554TIP3   OH225856   1.665   6.581  11.425  0.3289  0.0190 -0.1719
  554TIP3    H125857   1.634   6.491  11.424  0.4990 -0.1340 -3.9256
  554TIP3    H225858   1.757   6.575  11.450  0.0598 -0.6606  0.7242
  555TIP3   OH225859   0.107   2.338  12.077 -0.0852 -0.1159  0.2115
  555TIP3    H125860   0.020   2.357  12.041 -1.1387 -0.4571  2.4111
  555TIP3    H225861   0.155   2.420  12.067 -1.2130  0.6009  0.4144
  556TIP3   OH225862   1.228   7.448  12.502  0.1185  0.4339 -0.1245
  556TIP3    H125863   1.291   7.437  12.430  0.9533  1.3342  0.4348
  556TIP3    H225864   1.185   7.363  12.509  1.6781 -0.4051 -0.1647
  557TIP3   OH225865   0.229   5.057  10.223  0.1498 -0.0368 -0.1428
  557TIP3    H125866   0.177   5.057  10.143 -0.3517  0.9770  0.1660
  557TIP3    H225867   0.183   4.997  10.282  0.2033 -0.3486 -0.4239
  558TIP3   OH225868   4.428   3.895  10.787  0.1113 -0.1773 -0.1526
  558TIP3    H125869   4.487   3.964  10.758 -1.5774  1.3754 -0.0497
  558TIP3    H225870   4.415   3.841  10.709  0.2564  0.5173 -0.6691
  559TIP3   OH225871   5.608   2.703   9.854 -0.0721  0.0893  0.4794
  559TIP3    H125872   5.521   2.743   9.860  0.0568  0.2520  1.4446
  559TIP3    H225873   5.658   2.743   9.926  1.4643  1.6042 -1.3051
  560TIP3   OH225874   0.261   4.148  12.787 -0.0792  0.0712 -0.5674
  560TIP3    H125875   0.311   4.182  12.861 -0.7883 -2.4229  1.1645
  560TIP3    H225876   0.323   4.149  12.714  1.4399  0.2177  0.6754
  561TIP3   OH225877   3.348   7.140  10.436 -0.0811 -0.0488  0.2644
  561TIP3    H125878   3.384   7.118  10.350 -0.9270 -0.7628  0.0814
  561TIP3    H225879   3.417   7.115  10.498  0.6421  0.7370 -0.2147
  562TIP3   OH225880   7.598   0.068  10.781  0.8503  0.6399 -0.3349
  562TIP3    H125881   7.663   0.132  10.809  0.3443  1.5847 -1.2159
  562TIP3    H225882   7.620   0.052  10.689  0.5172  0.1054 -0.3228
  563TIP3   OH225883   6.212   3.056  11.318  0.2860  0.5568 -0.0992
  563TIP3    H125884   6.185   3.068  11.409  1.2470  2.2574 -0.0014
  563TIP3    H225885   6.185   3.136  11.273  0.8704  0.2450 -1.0396
  564TIP3   OH225886   6.513   2.155  10.573 -0.4146  0.1695  0.1797
  564TIP3    H125887   6.575   2.082  10.577 -1.3856 -0.7466 -0.8178
  564TIP3    H225888   6.507   2.177  10.480  0.3748  2.0131  0.5279
  565TIP3   OH225889   5.185   5.098  11.679 -0.6475  0.3228  0.8857
  565TIP3    H125890   5.262   5.041  11.681 -0.4625  0.5011 -0.3584
  565TIP3    H225891   5.200   5.156  11.604 -1.4182  1.1830  1.3716
  566TIP3   OH225892   1.599   0.337  11.010 -0.5350  0.3549 -0.0261
  566TIP3    H125893   1.598   0.242  10.997 -0.0488  0.2602  0.5998
  566TIP3    H225894   1.508   0.358  11.032 -0.8219  0.1615 -0.9677
  567TIP3   OH225895   6.229   4.196  10.842 -0.0201  0.3319  0.3608
  567TIP3    H125896   6.139   4.201  10.809  0.5484  0.7428 -1.2422
  567TIP3    H225897   6.219   4.181  10.936 -1.7637  0.8827  0.3118
  568TIP3   OH225898   3.553   3.324  11.713 -0.3073 -0.0989 -0.1847
  568TIP3    H125899   3.476   3.376  11.738  0.0029 -0.0985  0.8408
  568TIP3    H225900   3.528   3.282  11.631 -1.7464 -0.8057  0.5670
  569TIP3   OH225901   1.227   4.833  12.417 -0.7013  0.0405  0.3002
  569TIP3    H125902   1.234   4.829  12.321  2.2950  1.5950  0.3274
  569TIP3    H225903   1.256   4.747  12.446 -2.2202 -0.6533 -0.1743
  570TIP3   OH225904   0.609   5.323  11.461  0.4328  0.0476 -0.1440
  570TIP3    H125905   0.625   5.287  11.549  2.2070  0.1610 -0.3888
  570TIP3    H225906   0.695   5.352  11.431 -0.4903  1.9352 -1.0995
  571TIP3   OH225907   7.444   7.242  10.711  0.0975  0.2463  0.1699
  571TIP3    H125908   7.464   7.209  10.798 -1.3940  0.6092  0.6934
  571TIP3    H225909   7.484   7.329  10.708  1.7717 -0.5105 -0.2369
  572TIP3   OH225910   5.997   6.368  12.530  0.1271  0.2463  0.1715
  572TIP3    H125911   5.904   6.385  12.544 -0.1856 -0.7799 -0.6081
  572TIP3    H225912   6.019   6.301  12.595  0.3655  0.5958  0.4558
  573TIP3   OH225913   4.281   3.138  12.082  0.5009 -0.0873 -0.4185
  573TIP3    H125914   4.316   3.187  12.157 -0.9292  0.7368 -0.2643
  573TIP3    H225915   4.240   3.204  12.027 -3.9750 -1.2291  1.1268
  574TIP3   OH225916   3.174   3.078  12.099  0.2407 -0.0379 -0.6603
  574TIP3    H125917   3.148   3.168  12.120 -0.9253 -0.3235 -0.7769
  574TIP3    H225918   3.228   3.050  12.173  1.3262  1.0271 -1.0193
  575TIP3   OH225919   5.550   0.249  11.243 -0.3778 -0.1518 -0.2900
  575TIP3    H125920   5.636   0.285  11.262 -0.5962  0.2325 -0.0026
  575TIP3    H225921   5.567   0.170  11.193  0.1077  0.4248 -1.0558
  576TIP3   OH225922   0.047   0.642  10.740 -0.1251  0.4161 -0.1454
  576TIP3    H125923  -0.019   0.651  10.810 -0.3189  0.4974 -0.3379
  576TIP3    H225924   0.012   0.693  10.667 -0.1985 -0.1411 -0.5049
  577TIP3   OH225925   1.411   2.752  11.909 -0.1563 -0.3186  0.1660
  577TIP3    H125926   1.390   2.799  11.828 -0.4963 -0.6056  0.0832
  577TIP3    H225927   1.467   2.679  11.880  1.6879  0.9073  0.4814
  578TIP3   OH225928   6.390   3.339  10.264 -0.0588 -0.4347 -0.4171
  578TIP3    H125929   6.318   3.399  10.245  0.4267 -0.4012 -2.4649
  578TIP3    H225930   6.429   3.373  10.344 -1.6859  0.1286  0.1832
  579TIP3   OH225931   2.313   2.279  10.773 -0.6399  0.0629  0.5375
  579TIP3    H125932   2.248   2.222  10.732 -0.6871 -0.6986  1.6275
  579TIP3    H225933   2.263   2.333  10.834 -0.7242  1.9074 -1.0585
  580TIP3   OH225934   6.662   0.660  11.592 -0.3125 -0.5408 -0.6590
  580TIP3    H125935   6.702   0.575  11.609  0.3330  0.0725  1.0265
  580TIP3    H225936   6.571   0.649  11.619 -0.3127 -0.7667 -0.7435
  581TIP3   OH225937   3.083   1.329  11.926 -0.0544 -0.0358 -0.0948
  581TIP3    H125938   3.035   1.285  11.855 -0.2334  0.7598 -0.4760
  581TIP3    H225939   3.167   1.352  11.886  1.0410 -2.1631  0.7984
  582TIP3   OH225940   1.689   3.284  11.912 -0.3540 -0.0561  0.1562
  582TIP3    H125941   1.760   3.329  11.958  0.3138 -1.2002  0.2728
  582TIP3    H225942   1.666   3.342  11.840  0.3090  0.5870  0.4516
  583TIP3   OH225943   3.980   2.561  11.077 -0.2468  0.0335 -0.0101
  583TIP3    H125944   3.948   2.484  11.124  2.2034 -0.6694  0.6127
  583TIP3    H225945   4.019   2.526  10.997 -0.2646  0.7706 -0.3504
  584TIP3   OH225946   2.896   4.897  11.084 -0.2242 -0.3168 -0.4409
  584TIP3    H125947   2.816   4.845  11.071 -0.6806  0.4989 -1.0203
  584TIP3    H225948   2.941   4.854  11.157 -1.6437 -0.2782  0.5031
  585TIP3   OH225949   4.027   1.813  12.296  0.1197 -1.0182  0.1440
  585TIP3    H125950   3.959   1.848  12.239 -0.0134 -0.2846  0.7386
  585TIP3    H225951   3.978   1.768  12.366  0.2693 -1.4113 -0.0020
  586TIP3   OH225952   7.100   6.862  10.417  0.0677  0.1760 -0.2320
  586TIP3    H125953   7.103   6.936  10.356 -1.1601  0.5815  0.1688
  586TIP3    H225954   7.191   6.840  10.433  0.4451  1.4250 -0.5931
  587TIP3   OH225955   6.452   1.113  12.054  0.4931 -0.3142  0.5106
  587TIP3    H125956   6.393   1.041  12.075  1.0463 -1.1080 -0.5252
  587TIP3    H225957   6.396   1.179  12.014  0.0837 -0.4445  0.8655
  588TIP3   OH225958   6.204   5.317  11.928 -0.0686  0.4098  0.2151
  588TIP3    H125959   6.153   5.388  11.889 -0.6225  0.4162  0.9528
  588TIP3    H225960   6.171   5.308  12.017  0.5208 -0.2678  0.3796
  589TIP3   OH225961   3.833   5.304  10.361 -0.2965  0.5977 -0.9769
  589TIP3    H125962   3.838   5.342  10.273 -0.8592 -0.8502 -1.6848
  589TIP3    H225963   3.809   5.212  10.345 -0.4318  0.3162  0.6984
  590TIP3   OH225964   7.536   0.852  11.043  0.5648 -0.5176 -0.2044
  590TIP3    H125965   7.460   0.832  11.097  1.8574 -0.3002  1.8099
  590TIP3    H225966   7.513   0.933  10.997 -1.7127 -2.2671 -2.4261
  591TIP3   OH225967   6.114   7.618  10.223  0.0378 -0.0940 -0.0312
  591TIP3    H125968   6.130   7.552  10.156 -0.4671  1.2378 -1.5394
  591TIP3    H225969   6.187   7.610  10.283 -1.1408 -3.5169  1.1502
  592TIP3   OH225970   1.323   2.151  11.011  0.1465 -0.0645 -0.0494
  592TIP3    H125971   1.309   2.163  11.105 -0.4400  1.8814 -0.3372
  592TIP3    H225972   1.395   2.088  11.005  0.5553  0.1909  1.7124
  593TIP3   OH225973   7.343   5.203  11.466  0.0659 -0.0225 -0.4109
  593TIP3    H125974   7.391   5.198  11.549  0.4690  0.2343 -0.6219
  593TIP3    H225975   7.351   5.115  11.428  1.0820  0.2254 -0.8243
  594TIP3   OH225976   4.832   0.663  11.496 -0.2837 -0.0052  0.6421
  594TIP3    H125977   4.862   0.745  11.536  0.7157 -0.1877  0.3008
  594TIP3    H225978   4.743   0.651  11.529 -0.9482  1.8877 -0.3265
  595TIP3   OH225979   7.395   2.201  12.307 -0.0913  0.3114 -0.1482
  595TIP3    H125980   7.400   2.209  12.403  0.9235 -1.2340 -0.0405
  595TIP3    H225981   7.381   2.107  12.292  1.3325  0.2865 -1.5471
  596TIP3   OH225982   5.352   5.568  12.109  0.2524  0.2286  0.1195
  596TIP3    H125983   5.341   5.604  12.197 -0.2550 -1.3646  0.7503
  596TIP3    H225984   5.441   5.593  12.084  1.2943 -1.2355  2.0720
  597TIP3   OH225985   4.103   6.290  12.264  0.2083  0.1025  0.2325
  597TIP3    H125986   4.143   6.207  12.236 -0.4435  0.0206 -0.5092
  597TIP3    H225987   4.177   6.344  12.292  0.6698 -0.6310  0.4643
  598TIP3   OH225988   0.199   0.554  10.108 -0.1214 -0.7304 -0.2015
  598TIP3    H125989   0.221   0.621  10.043  0.6576 -0.0596  0.7244
  598TIP3    H225990   0.124   0.508  10.070  1.0497 -1.1510 -2.1245
  599TIP3   OH225991   3.693   0.111  12.056 -0.8984 -0.4494  0.2856
  599TIP3    H125992   3.744   0.116  12.137  3.4060  1.0885 -2.1699
  599TIP3    H225993   3.679   0.017  12.043 -0.3471 -0.8161  2.0326
  600TIP3   OH225994   5.756   2.005  11.810  0.4377 -0.0224 -0.4079
  600TIP3    H125995   5.838   2.055  11.812 -0.6090  1.7614  1.7631
  600TIP3    H225996   5.687   2.072  11.814 -1.1774 -1.4831 -2.0082
  601TIP3   OH225997   0.773   7.490  12.745 -0.1845  0.4124 -0.0004
  601TIP3    H125998   0.695   7.529  12.705  0.0927  0.3655 -0.5923
  601TIP3    H225999   0.842   7.501  12.680  0.3364  0.5543  0.5611
  602TIP3   OH226000   0.683   4.574  10.777  0.4395  0.0086  0.1627
  602TIP3    H126001   0.624   4.634  10.730  0.1924  1.0850  1.7619
  602TIP3    H226002   0.635   4.491  10.779  0.4609 -0.0820 -1.4405
  603TIP3   OH226003   4.060   4.212  11.629  1.1813  0.3653  0.0874
  603TIP3    H126004   3.977   4.243  11.591  1.3398  0.5947 -0.0707
  603TIP3    H226005   4.037   4.188  11.719  0.9012  0.2475 -0.0121
  604TIP3   OH226006   0.289   1.321  11.731 -0.7200  0.1933  0.0956
  604TIP3    H126007   0.223   1.385  11.756 -0.2575 -0.1014  2.2522
  604TIP3    H226008   0.348   1.316  11.806  0.5562 -1.0927 -0.9281
  605TIP3   OH226009   0.330   3.703  11.394 -0.5436 -0.1339  0.2032
  605TIP3    H126010   0.265   3.757  11.439  1.7348  2.0998  1.0464
  605TIP3    H226011   0.363   3.759  11.324 -0.2924 -1.6468 -0.9445
  606TIP3   OH226012   3.903   5.123  11.427  0.1025 -0.1157  0.1575
  606TIP3    H126013   3.943   5.109  11.341 -0.4077 -1.6472  0.1289
  606TIP3    H226014   3.943   5.203  11.460  0.1557  0.6272 -1.5992
  607TIP3   OH226015   2.550   5.219  10.676 -0.1184  0.0983  0.4154
  607TIP3    H126016   2.543   5.221  10.771 -0.8600 -1.6257  0.4264
  607TIP3    H226017   2.623   5.160  10.658 -0.1738  0.1751 -0.0816
  608TIP3   OH226018   1.855   3.609  12.275 -0.1402 -0.4223  0.1238
  608TIP3    H126019   1.780   3.665  12.294  0.6303  0.7073 -0.1075
  608TIP3    H226020   1.878   3.571  12.360 -0.4335 -0.0913  0.3552
  609TIP3   OH226021   4.560   3.279  10.893  0.3528 -0.1511  0.2677
  609TIP3    H126022   4.509   3.198  10.903 -0.4122  0.3507  0.4930
  609TIP3    H226023   4.643   3.260  10.938 -0.0729 -0.5920  0.8933
  610TIP3   OH226024   5.100   0.849  12.159 -0.2277 -0.2037  0.3908
  610TIP3    H126025   5.131   0.929  12.200  0.3461 -0.0298 -0.3776
  610TIP3    H226026   5.005   0.860  12.154 -0.0240  1.0547 -1.0079
  611TIP3   OH226027   2.451   4.265  12.094 -0.1861  0.2387  0.1557
  611TIP3    H126028   2.447   4.180  12.137 -0.1851 -0.0510 -0.4083
  611TIP3    H226029   2.509   4.317  12.149  1.7161 -0.8568 -0.6987
  612TIP3   OH226030   4.371   5.550  12.090 -0.4370 -0.6195  0.3182
  612TIP3    H126031   4.320   5.491  12.145 -0.5126 -0.3377  0.5487
  612TIP3    H226032   4.454   5.503  12.076 -0.6955 -1.0126  0.0638
  613TIP3   OH226033   4.193   4.070  10.784 -0.3317 -0.2532  0.1400
  613TIP3    H126034   4.236   4.151  10.756 -1.5451 -0.3287 -2.2325
  613TIP3    H226035   4.265   4.007  10.796  0.3950  0.0835 -2.0168
  614TIP3   OH226036   4.935   6.163  12.384  0.5816  0.8281  0.1566
  614TIP3    H126037   5.028   6.158  12.364  0.7523  2.3880  0.4425
  614TIP3    H226038   4.892   6.153  12.299  0.9008 -1.3653  0.1902
  615TIP3   OH226039   7.499   3.530  11.170  0.0838 -0.1666  0.0180
  615TIP3    H126040   7.564   3.522  11.239 -0.9503 -0.7228  0.9647
  615TIP3    H226041   7.447   3.606  11.194  0.0254 -0.0669 -0.4123
  616TIP3   OH226042   4.942   3.304  12.166  0.5798 -0.6080  0.2546
  616TIP3    H126043   4.892   3.293  12.085  1.1174  0.6434 -0.2720
  616TIP3    H226044   4.876   3.317  12.234  0.1509 -0.1612 -0.2415
  617TIP3   OH226045   6.577   2.802  11.907  0.2977 -0.1324  0.1802
  617TIP3    H126046   6.574   2.759  11.822  0.3331 -0.6451  0.4356
  617TIP3    H226047   6.545   2.737  11.969 -0.4449  0.4833  0.4678
  618TIP3   OH226048   7.062   6.956  10.693  0.2093 -0.3152  0.4100
  618TIP3    H126049   7.084   7.046  10.670  0.8458  0.1021  2.3906
  618TIP3    H226050   7.019   6.920  10.616  0.6214  1.4475 -0.6825
  619TIP3   OH226051   3.978   7.176  10.934 -0.0358 -0.2590 -0.2947
  619TIP3    H126052   4.062   7.199  10.972  0.2883 -0.6745 -0.7442
  619TIP3    H226053   3.916   7.178  11.007  0.3822 -0.0489  0.0534
  620TIP3   OH226054   5.675   5.958  10.599  0.6189  0.3335 -0.2176
  620TIP3    H126055   5.662   6.005  10.681 -0.6320  1.0185 -0.7807
  620TIP3    H226056   5.759   5.913  10.610  1.3897  1.9062  0.7207
  621TIP3   OH226057   6.192   4.406  12.734  0.1655 -0.4592  0.1400
  621TIP3    H126058   6.106   4.415  12.694 -0.0406 -2.6795 -0.0400
  621TIP3    H226059   6.184   4.453  12.818 -2.0707 -2.6428  1.2763
  622TIP3   OH226060   3.456   2.296  10.407  0.4457 -0.2256  0.0732
  622TIP3    H126061   3.471   2.370  10.466  0.7409 -1.1502  1.1954
  622TIP3    H226062   3.508   2.317  10.329  1.4886  0.1983  0.8559
  623TIP3   OH226063   3.688   0.483  10.061 -0.2171  0.2065  0.1958
  623TIP3    H126064   3.620   0.427  10.099 -0.7477  0.3310 -0.5420
  623TIP3    H226065   3.654   0.572  10.070 -0.2821  0.2482 -0.4205
  624TIP3   OH226066   2.467   0.329  10.750  0.1347  0.5285 -0.5091
  624TIP3    H126067   2.524   0.406  10.757 -0.4781  1.1586 -1.8905
  624TIP3    H226068   2.383   0.359  10.786  0.4654 -0.1788  0.8926
  625TIP3   OH226069   5.384   4.947  12.850 -0.3401  0.8624  0.0103
  625TIP3    H126070   5.475   4.965  12.823  0.5691 -0.9206  1.6496
  625TIP3    H226071   5.358   5.025  12.899  0.7248  0.9150  0.5194
  626TIP3   OH226072   3.955   0.216  10.858  0.1172  0.3844 -0.1462
  626TIP3    H126073   4.011   0.159  10.909 -0.6806  0.4979  0.8794
  626TIP3    H226074   3.996   0.302  10.864  0.6078  0.1902 -0.6101
  627TIP3   OH226075   3.997   0.691  10.237 -0.1633  0.3501 -0.4496
  627TIP3    H126076   3.947   0.671  10.316  0.5433  1.5980  0.3511
  627TIP3    H226077   3.963   0.630  10.171  0.1498 -1.6293  1.1268
  628TIP3   OH226078   0.543   3.901  12.678  0.4551 -0.8622 -0.3756
  628TIP3    H126079   0.540   3.986  12.633  2.5411 -0.1636  0.6832
  628TIP3    H226080   0.506   3.919  12.765  2.5879 -0.4991  0.5262
  629TIP3   OH226081   7.176   5.177  10.690 -0.1143  0.3248  0.2478
  629TIP3    H126082   7.130   5.184  10.606  3.0721 -0.9243 -1.7888
  629TIP3    H226083   7.242   5.246  10.686  0.0204  0.3210  1.8329
  630TIP3   OH226084   0.783   0.808  10.411  0.1164  0.2963 -0.0768
  630TIP3    H126085   0.807   0.741  10.347  2.5357  3.3349 -2.6170
  630TIP3    H226086   0.856   0.810  10.473  1.8460  2.7611 -2.0268
  631TIP3   OH226087   4.230   1.320  11.945  0.2292 -0.9044 -0.0887
  631TIP3    H126088   4.237   1.415  11.942  1.3160 -0.9085  1.2389
  631TIP3    H226089   4.137   1.303  11.958  0.1490  0.0360  0.7006
  632TIP3   OH226090   0.849   0.355  12.589 -0.3018 -0.3238 -0.4425
  632TIP3    H126091   0.868   0.286  12.652  0.9275  0.5561  0.1794
  632TIP3    H226092   0.776   0.320  12.538 -0.7656 -1.4171  0.8906
  633TIP3   OH226093   4.949   4.785  12.745  0.4892  0.5358 -0.4219
  633TIP3    H126094   4.958   4.862  12.689  1.1783  1.2814  0.6895
  633TIP3    H226095   5.033   4.741  12.739  0.0827 -0.1752 -1.0889
  634TIP3   OH226096   1.214   3.777  10.601 -0.9315 -0.2032 -0.0117
  634TIP3    H126097   1.151   3.741  10.539  0.2539 -1.6116 -0.4426
  634TIP3    H226098   1.176   3.756  10.687 -0.9371 -1.3169 -0.2609
  635TIP3   OH226099   0.958   0.870   9.949  0.5660 -0.0901  0.1749
  635TIP3    H126100   0.900   0.941   9.975  0.2694 -1.1708  2.7530
  635TIP3    H226101   0.900   0.803   9.913  0.8349  0.8466 -2.1557
  636TIP3   OH226102   1.233   2.224  10.768 -0.3050  0.5174  0.2412
  636TIP3    H126103   1.270   2.171  10.839  0.3614 -0.9354 -1.1281
  636TIP3    H226104   1.144   2.189  10.757 -0.3787  0.6862  0.2919
  637TIP3   OH226105   6.440   6.353  12.583 -0.1150 -0.6834 -0.1572
  637TIP3    H126106   6.424   6.262  12.560 -1.5789 -0.3090 -0.7531
  637TIP3    H226107   6.516   6.351  12.641  0.6801 -2.1438 -1.1928
  638TIP3   OH226108   7.299   3.499  12.711 -0.2442  0.0578 -0.0933
  638TIP3    H126109   7.368   3.433  12.711 -0.4272 -0.2191 -2.6927
  638TIP3    H226110   7.223   3.454  12.748  0.2547 -0.4340  0.3619
  639TIP3   OH226111   5.011   6.748  11.009 -0.0867 -0.1581 -1.0575
  639TIP3    H126112   4.990   6.655  11.001 -0.8896 -0.0936 -0.0076
  639TIP3    H226113   4.928   6.793  10.991 -0.1108  0.2653  0.0160
  640TIP3   OH226114   5.292   0.012  12.786 -0.3560  0.2878 -0.6407
  640TIP3    H126115   5.246  -0.072  12.779  0.1344 -0.0922  0.4037
  640TIP3    H226116   5.385  -0.012  12.791 -0.1679  0.9362 -0.9961
  641TIP3   OH226117   0.078   1.586   9.722  0.2659 -0.1691 -0.3059
  641TIP3    H126118   0.092   1.559   9.631  0.4397 -0.6863 -0.1264
  641TIP3    H226119   0.125   1.670   9.728 -1.7956  1.1391 -1.3564
  642TIP3   OH226120   5.080   1.988  10.125 -0.0569  0.1006 -0.0567
  642TIP3    H126121   4.992   1.998  10.162  0.6461 -0.6337  1.9672
  642TIP3    H226122   5.077   1.904  10.079 -0.2400 -0.2926  0.6458
  643TIP3   OH226123   4.207   1.229  10.294  0.0274  0.0823 -0.3495
  643TIP3    H126124   4.201   1.195  10.204  2.7313  2.5727 -1.6204
  643TIP3    H226125   4.149   1.305  10.295  1.0889  0.9186 -0.4983
  644TIP3   OH226126   6.632   6.330  10.995  0.7841 -1.1818 -0.0959
  644TIP3    H126127   6.618   6.416  11.037  3.8272 -0.1335 -1.0087
  644TIP3    H226128   6.624   6.267  11.067  0.0676 -0.0098  0.8961
  645TIP3   OH226129   1.848   4.335  11.981  0.1691 -0.3859 -0.2365
  645TIP3    H126130   1.936   4.368  11.962  0.4305 -1.8613 -1.8051
  645TIP3    H226131   1.790   4.404  11.948  0.6005  2.1241  3.6325
  646TIP3   OH226132   3.881   5.392  11.261 -0.0831 -0.0460 -0.5042
  646TIP3    H126133   3.913   5.309  11.226  0.4179  0.1822 -0.5979
  646TIP3    H226134   3.948   5.456  11.236  0.2646  0.1374  0.8340
  647TIP3   OH226135   5.372   0.349  12.613 -0.3017 -0.1889 -0.5734
  647TIP3    H126136   5.300   0.325  12.671 -2.0275  0.6327 -2.2958
  647TIP3    H226137   5.444   0.370  12.673 -1.6862 -0.2828  1.2253
  648TIP3   OH226138   5.763   3.537  10.877 -0.1631  0.7082 -0.0199
  648TIP3    H126139   5.709   3.461  10.897  2.0434 -0.7070  1.0134
  648TIP3    H226140   5.813   3.511  10.800  0.9963  0.8764  0.6526
  649TIP3   OH226141   2.615   1.754  11.129  0.3660  0.4117  0.4748
  649TIP3    H126142   2.556   1.695  11.082 -0.5499  1.1895  0.6142
  649TIP3    H226143   2.614   1.722  11.219  0.2045  0.3916  0.4662
  650TIP3   OH226144   2.380   1.962  11.904  0.1743 -0.2109  0.0603
  650TIP3    H126145   2.366   1.934  11.995  1.1699 -1.0179 -0.0173
  650TIP3    H226146   2.291   1.971  11.868 -0.2205 -0.5224  0.9216
  651TIP3   OH226147   6.892   5.543  12.540  0.2132  0.4223 -0.3744
  651TIP3    H126148   6.984   5.568  12.542 -0.1115  1.6308  0.3850
  651TIP3    H226149   6.881   5.498  12.457  1.8280 -1.1444  0.2018
  652TIP3   OH226150   3.285   4.422  12.325  0.1181 -0.2381 -0.7662
  652TIP3    H126151   3.212   4.457  12.377  1.5421 -0.8511  1.8210
  652TIP3    H226152   3.337   4.499  12.302 -0.5881  0.0538 -1.4164
  653TIP3   OH226153   5.983   3.397  11.777  0.2690 -0.2025  0.1378
  653TIP3    H126154   6.059   3.392  11.720  0.9679  0.7532  0.9645
  653TIP3    H226155   5.966   3.306  11.802  1.0483 -0.4313 -0.1486
  654TIP3   OH226156   5.725   2.252  12.193  0.2108  0.5231 -0.2015
  654TIP3    H126157   5.743   2.285  12.105 -1.4505  0.1480 -0.7149
  654TIP3    H226158   5.706   2.159  12.180  0.6269  0.3046  0.6568
  655TIP3   OH226159   0.236   5.526  11.653  0.0477  0.4434  0.5598
  655TIP3    H126160   0.255   5.434  11.637  1.1325  0.8900 -0.9218
  655TIP3    H226161   0.299   5.553  11.720 -0.0976  0.1948  0.8004
  656TIP3   OH226162   4.450   1.623  11.898  0.2577 -0.2089 -0.1083
  656TIP3    H126163   4.355   1.609  11.889  0.0190  0.3505  1.3372
  656TIP3    H226164   4.481   1.545  11.943  0.4716 -0.3387 -0.4798
  657TIP3   OH226165   5.621   2.014   9.752  0.0808 -0.3486 -0.3518
  657TIP3    H126166   5.625   1.919   9.741  0.6513 -0.2359 -1.1540
  657TIP3    H226167   5.662   2.049   9.673 -1.4850  0.5983 -0.7803
  658TIP3   OH226168   2.312   3.606  11.659  0.5727 -0.2423  0.1846
  658TIP3    H126169   2.389   3.614  11.603  1.0995  0.0690  0.9364
  658TIP3    H226170   2.339   3.545  11.728  0.2248  0.0569  0.5861
  659TIP3   OH226171   1.079   6.497  11.093 -0.2693 -0.2057 -0.7536
  659TIP3    H126172   1.054   6.450  11.013 -1.5643  1.4611 -1.3971
  659TIP3    H226173   1.078   6.590  11.068  1.1153  0.2547  0.7428
  660TIP3   OH226174   0.950   2.244  11.163  0.2706  0.3600 -0.3990
  660TIP3    H126175   0.922   2.234  11.254  1.3055  0.6527 -0.0346
  660TIP3    H226176   1.042   2.268  11.168  0.4564 -0.0174 -1.5416
  661TIP3   OH226177   2.487   6.247  12.483 -0.3042  0.1628  0.7454
  661TIP3    H126178   2.435   6.267  12.406 -0.7809 -1.0640  0.7175
  661TIP3    H226179   2.528   6.162  12.463  0.1761  0.1986  1.5324
  662TIP3   OH226180   5.096   7.045  12.874 -0.1412 -0.4121  0.2010
  662TIP3    H126181   5.071   7.074  12.787  0.9717 -2.3300 -0.8149
  662TIP3    H226182   5.082   6.950  12.874 -1.4553 -0.2991  2.6000
  663TIP3   OH226183   6.248   2.612  10.913  0.2472  0.2031  0.0561
  663TIP3    H126184   6.190   2.564  10.854 -1.5835  2.0810  0.1913
  663TIP3    H226185   6.267   2.694  10.867  0.2679  0.9167  1.2795
  664TIP3   OH226186   2.088   1.167  12.172  0.2363  0.0507  0.5048
  664TIP3    H126187   2.129   1.106  12.111  1.0369 -0.8796  1.8896
  664TIP3    H226188   2.031   1.112  12.226 -0.4438  0.8365  0.5952
  665TIP3   OH226189   6.491   7.422  12.479 -0.0472 -0.4752 -0.2145
  665TIP3    H126190   6.399   7.405  12.460  0.0906 -0.5999 -0.7807
  665TIP3    H226191   6.524   7.339  12.514 -0.1504 -0.4214  0.0175
  666TIP3   OH226192   6.637   4.916  12.764  0.3251 -0.5323 -0.3642
  666TIP3    H126193   6.574   4.967  12.714 -2.2684 -1.0944  2.1023
  666TIP3    H226194   6.664   4.975  12.835  1.6090 -0.7793 -0.6074
  667TIP3   OH226195   3.819   3.275  11.201  0.3305  0.2657  0.3487
  667TIP3    H126196   3.884   3.204  11.201  0.6241  0.4759 -1.7792
  667TIP3    H226197   3.863   3.346  11.248  0.5720 -0.4700  1.2840
  668TIP3   OH226198   0.302   2.284  10.641  0.1301  0.3763  0.0786
  668TIP3    H126199   0.261   2.317  10.562  0.4023 -1.1448 -0.7264
  668TIP3    H226200   0.316   2.362  10.695 -1.4257  1.2484 -0.7063
  669TIP3   OH226201   7.163   7.046   9.863  0.1025 -0.0099  0.3084
  669TIP3    H126202   7.121   7.006   9.939 -0.4702  2.9305  1.7049
  669TIP3    H226203   7.101   7.033   9.791 -0.6599 -0.4900  1.0331
  670TIP3   OH226204   0.854   1.524  10.415 -0.4480  0.1071 -0.8247
  670TIP3    H126205   0.776   1.481  10.451  0.9022 -1.3992  0.4496
  670TIP3    H226206   0.889   1.462  10.352  0.2609  0.3422 -0.6724
  671TIP3   OH226207   7.366   4.165  10.704  0.6168  0.0367 -0.0603
  671TIP3    H126208   7.350   4.223  10.629  1.0400  0.8529  0.4686
  671TIP3    H226209   7.303   4.193  10.770  0.3186 -0.6121 -0.0647
  672TIP3   OH226210   7.528   3.661  10.810 -0.0867 -0.4937 -0.3726
  672TIP3    H126211   7.516   3.710  10.729 -2.9249 -0.6286 -0.1635
  672TIP3    H226212   7.559   3.726  10.873  2.3261 -0.4284 -1.5252
  673TIP3   OH226213   6.952   0.503  11.287  0.8351  0.2267 -0.2354
  673TIP3    H126214   7.018   0.448  11.328  0.1669 -0.0427  0.4872
  673TIP3    H226215   6.914   0.554  11.359  1.3169  1.5226 -0.8587
  674TIP3   OH226216   4.618   2.036  10.578 -0.9589 -0.0804 -0.3276
  674TIP3    H126217   4.708   2.044  10.608 -0.8429 -1.7459 -0.1032
  674TIP3    H226218   4.610   2.097  10.505  0.6501 -0.6477 -1.0095
  675TIP3   OH226219   2.204   1.205  11.063 -0.0646 -0.0913 -0.2585
  675TIP3    H126220   2.238   1.264  11.130  0.1908 -0.9614  0.4076
  675TIP3    H226221   2.262   1.129  11.066  0.5142  0.2243 -2.1298
  676TIP3   OH226222   1.210   5.475  10.606  0.2072  0.6625 -0.0679
  676TIP3    H126223   1.157   5.554  10.596 -0.4112  0.0033 -2.9771
  676TIP3    H226224   1.298   5.501  10.577  0.1921  0.5090 -0.2575
  677TIP3   OH226225   5.894   6.062  11.151  0.1691  0.0481 -0.1088
  677TIP3    H126226   5.885   6.153  11.126  2.1668  0.1244 -0.7024
  677TIP3    H226227   5.804   6.030  11.158 -0.5856  2.1568  0.5638
  678TIP3   OH226228   5.670   4.235  10.442 -0.0212  0.2601  0.9906
  678TIP3    H126229   5.612   4.159  10.443 -0.1386  0.2183 -1.6104
  678TIP3    H226230   5.757   4.200  10.458 -0.2091 -0.2580  0.8827
  679TIP3   OH226231   0.656   1.678  10.052  0.6217  0.6700 -0.5527
  679TIP3    H126232   0.576   1.687  10.103  1.9637  1.5546  1.5743
  679TIP3    H226233   0.644   1.736   9.977  0.0305  2.4012  0.8121
  680TIP3   OH226234   3.117   5.238  12.363 -0.0232  0.2653 -0.1887
  680TIP3    H126235   3.138   5.147  12.343  0.4717  0.5595 -1.0727
  680TIP3    H226236   3.045   5.233  12.426 -1.3869 -0.7283 -1.7376
  681TIP3   OH226237   5.843   0.012  11.277  0.1728 -0.2898  0.0375
  681TIP3    H126238   5.846   0.085  11.215 -0.0802  0.0926  0.4737
  681TIP3    H226239   5.896   0.040  11.351  0.5497 -0.7849 -0.0324
  682TIP3   OH226240   2.459   0.012  12.323  0.6569 -0.2689 -0.4345
  682TIP3    H126241   2.372   0.051  12.314  0.0652 -1.8529 -1.9607
  682TIP3    H226242   2.454  -0.039  12.404 -0.0333 -0.8439 -0.8354
  683TIP3   OH226243   0.518   1.573  10.677 -0.0184  0.0392 -0.0615
  683TIP3    H126244   0.524   1.566  10.582 -1.0558  0.3282 -0.1597
  683TIP3    H226245   0.583   1.639  10.700 -0.4308  0.6739 -0.6810
  684TIP3   OH226246   3.741   4.092  10.624 -0.1218  0.2494 -0.1727
  684TIP3    H126247   3.781   4.130  10.546  1.7501 -1.1391  0.0293
  684TIP3    H226248   3.655   4.061  10.594 -0.4041  1.8168 -1.0705
  685TIP3   OH226249   5.614   1.192  11.746  0.5518  0.3421  0.0990
  685TIP3    H126250   5.647   1.230  11.664  0.8372  0.9301  0.4750
  685TIP3    H226251   5.660   1.241  11.815  0.9558 -0.7299  0.6040
  686TIP3   OH226252   5.436   1.074  10.826  0.5046  0.4055 -0.4100
  686TIP3    H126253   5.364   1.054  10.766  0.7360  0.4523 -0.7074
  686TIP3    H226254   5.453   1.168  10.812  1.1341  0.2262 -0.9127
  687TIP3   OH226255   7.274   3.388  10.689  0.0505 -0.2417 -0.1863
  687TIP3    H126256   7.184   3.354  10.695 -0.5583  1.3403  0.0691
  687TIP3    H226257   7.289   3.429  10.775  0.6734  0.3208 -0.5581
  688TIP3   OH226258   0.512   7.648  11.470 -0.0841 -0.0716  0.0659
  688TIP3    H126259   0.544   7.709  11.536 -0.1578 -0.5911  0.5938
  688TIP3    H226260   0.589   7.630  11.415 -0.3270  1.3337 -0.7785
  689TIP3   OH226261   2.796   7.067  12.298 -0.0683  0.3666  0.4462
  689TIP3    H126262   2.733   7.137  12.281 -1.0983 -0.8001 -0.7222
  689TIP3    H226263   2.745   6.998  12.342  0.6924 -0.0639  0.6768
  690TIP3   OH226264   6.235   1.566  11.211  0.3637 -0.0996  0.4353
  690TIP3    H126265   6.247   1.618  11.131  3.3170 -0.6995  0.3733
  690TIP3    H226266   6.240   1.475  11.181 -0.4449 -0.3701  1.0914
  691TIP3   OH226267   1.863   5.462  11.451 -0.0605  1.1162  0.8537
  691TIP3    H126268   1.934   5.522  11.474  1.8495 -1.0363  0.9711
  691TIP3    H226269   1.848   5.477  11.358  2.1151  0.1706  0.2889
  692TIP3   OH226270   0.285   2.240  12.533 -0.1918  0.8275 -0.1806
  692TIP3    H126271   0.201   2.234  12.579 -0.4591  1.4683 -0.5657
  692TIP3    H226272   0.262   2.228  12.441 -0.0380  2.2051 -0.4203
  693TIP3   OH226273   7.309   6.474  11.908  0.3299  0.2772  0.2031
  693TIP3    H126274   7.366   6.409  11.868  1.4730  0.2604  1.7616
  693TIP3    H226275   7.330   6.556  11.863 -0.6252 -0.2807 -1.2980
  694TIP3   OH226276   6.653   2.727  12.415  0.7841 -0.6515  0.2952
  694TIP3    H126277   6.681   2.681  12.336  1.6276  1.8256 -0.9484
  694TIP3    H226278   6.734   2.747  12.462  0.3951 -0.8765  1.0896
  695TIP3   OH226279   2.266   3.812  11.377  0.6515  0.3084  0.1333
  695TIP3    H126280   2.351   3.792  11.415 -0.2396 -1.0208  1.5994
  695TIP3    H226281   2.204   3.761  11.429 -0.9780  0.6475 -1.3527
  696TIP3   OH226282   4.045   5.095  11.832 -0.5692  0.8452 -0.2287
  696TIP3    H126283   4.045   5.025  11.767 -0.3470  1.7405 -1.2156
  696TIP3    H226284   4.129   5.140  11.820 -0.7928  1.4037  0.2406
  697TIP3   OH226285   1.128   3.300  11.802  0.4007  0.2351 -0.3435
  697TIP3    H126286   1.219   3.321  11.778 -0.1938  2.3881 -0.9715
  697TIP3    H226287   1.078   3.377  11.774 -1.2365  0.3604  2.5798
  698TIP3   OH226288   0.079   5.137  10.485  0.1221  0.1138 -0.2406
  698TIP3    H126289   0.089   5.049  10.449 -0.7518 -0.2379  0.3341
  698TIP3    H226290  -0.015   5.156  10.473  0.1385  0.6134  0.4249
  699TIP3   OH226291   1.955   3.079  12.219  0.1767 -0.1826 -0.0634
  699TIP3    H126292   1.960   3.053  12.311  0.6568 -1.1006 -0.3288
  699TIP3    H226293   1.862   3.075  12.198 -0.4944  3.7441  1.3517
  700TIP3   OH226294   3.492   5.526  11.704  0.3446  0.0914 -0.3089
  700TIP3    H126295   3.570   5.530  11.759  0.4002 -0.1848 -0.3693
  700TIP3    H226296   3.491   5.611  11.660  0.4393  0.2152 -0.0744
  701TIP3   OH226297   0.137   6.574  12.137  0.3778  0.2164  0.5109
  701TIP3    H126298   0.213   6.552  12.083  1.4947  2.1927  1.1682
  701TIP3    H226299   0.170   6.640  12.199 -1.9073  1.2587  0.7243
  702TIP3   OH226300   1.964   0.628  12.455 -0.7684  0.5920  0.1031
  702TIP3    H126301   2.012   0.649  12.375  0.3937 -1.5329  0.1574
  702TIP3    H226302   1.994   0.693  12.519 -1.6043  2.2196 -1.1066
  703TIP3   OH226303   0.170   3.865  11.595 -0.4045  0.4855  0.9610
  703TIP3    H126304   0.180   3.960  11.602 -0.6741  0.4849  1.4334
  703TIP3    H226305   0.185   3.833  11.684 -1.1812  0.1775  0.9936
  704TIP3   OH226306   7.238   4.675  11.477  0.2286 -0.2291 -0.0661
  704TIP3    H126307   7.247   4.625  11.558 -1.3107 -0.5673 -0.0622
  704TIP3    H226308   7.237   4.609  11.407  0.9828  0.0170 -0.3153
  705TIP3   OH226309   4.664   0.121  12.320  0.2789  0.1498 -0.0656
  705TIP3    H126310   4.689   0.032  12.294  0.4128  0.3267 -0.5544
  705TIP3    H226311   4.746   0.161  12.351  0.1585  0.0045  0.4439
  706TIP3   OH226312   2.316   3.519  10.596  0.1032  0.3822  0.3250
  706TIP3    H126313   2.246   3.547  10.654  0.1321  0.6927  0.2100
  706TIP3    H226314   2.309   3.576  10.520  0.4020  0.3336  0.2582
  707TIP3   OH226315   4.305   2.340  11.691  0.1554 -0.3921 -0.1634
  707TIP3    H126316   4.245   2.379  11.753  0.5442  0.3915 -0.2709
  707TIP3    H226317   4.387   2.388  11.702  0.0305  0.2460 -1.7652
  708TIP3   OH226318   5.694   3.388  11.238 -0.0818  0.1273 -0.5232
  708TIP3    H126319   5.769   3.366  11.183  0.3156 -1.2912  0.5352
  708TIP3    H226320   5.710   3.478  11.267 -0.1597  0.7979 -2.4422
  709TIP3   OH226321   0.811   2.419  12.386  0.4028  0.7501  0.3559
  709TIP3    H126322   0.748   2.483  12.353 -0.2496  0.6956  1.4388
  709TIP3    H226323   0.895   2.464  12.380  0.2930  0.8008 -1.1743
  710TIP3   OH226324   5.153   4.471  11.395 -0.7624  0.3713 -0.4061
  710TIP3    H126325   5.073   4.479  11.446  0.0430 -0.7127  1.1087
  710TIP3    H226326   5.170   4.560  11.363 -1.1475  1.1966  1.5255
  711TIP3   OH226327   2.166   7.248  10.543 -0.0736  0.0644  0.1216
  711TIP3    H126328   2.168   7.164  10.497  0.4041  0.5877 -0.8638
  711TIP3    H226329   2.073   7.266  10.556 -0.2557  0.1167 -1.0949
  712TIP3   OH226330   2.985   3.529  10.157 -0.5864 -0.2124 -0.0292
  712TIP3    H126331   2.996   3.444  10.198  1.3341  0.0806  0.1490
  712TIP3    H226332   2.959   3.509  10.067 -2.3063 -0.9042  0.5848
  713TIP3   OH226333   7.489   0.609  12.549  0.0256 -0.0775  0.2048
  713TIP3    H126334   7.459   0.562  12.627  0.0527  2.4339  1.8552
  713TIP3    H226335   7.409   0.640  12.507  0.0625  0.3215  0.4216
  714TIP3   OH226336   4.814   1.946  12.735  0.0033  0.1196 -0.6685
  714TIP3    H126337   4.799   2.039  12.716 -1.6123 -0.3157 -1.7579
  714TIP3    H226338   4.726   1.909  12.741  0.6312 -1.3305 -0.1201
  715TIP3   OH226339   4.363   0.334  10.596 -0.1613  0.1935 -0.5345
  715TIP3    H126340   4.424   0.276  10.551  1.9401  1.0957  1.0098
  715TIP3    H226341   4.390   0.422  10.571  1.5098  0.7790  2.7917
  716TIP3   OH226342   3.937   6.228  12.708 -0.3240  0.5468  0.3587
  716TIP3    H126343   3.866   6.250  12.648 -0.7053 -0.2108  0.5262
  716TIP3    H226344   4.016   6.236  12.654 -0.6311  0.2222 -0.1471
  717TIP3   OH226345   3.479   7.340  11.816  0.0207  0.8008 -0.2741
  717TIP3    H126346   3.423   7.339  11.739  1.0749  1.0609 -1.0787
  717TIP3    H226347   3.425   7.305  11.886 -0.5640 -0.6959 -1.4148
  718TIP3   OH226348   1.183   2.098  12.311 -0.2710 -0.0933 -0.5482
  718TIP3    H126349   1.182   2.012  12.351 -0.2269  0.0921 -0.1457
  718TIP3    H226350   1.275   2.122  12.305 -0.2123 -0.5807 -1.7671
  719TIP3   OH226351   4.646   3.339  11.711  0.2133  0.1636  0.2192
  719TIP3    H126352   4.554   3.365  11.718  0.3227  0.6344 -0.1114
  719TIP3    H226353   4.643   3.249  11.679 -0.1659 -0.3020  1.5178
  720TIP3   OH226354   6.529   0.618  11.063  0.4350 -0.1451 -0.8103
  720TIP3    H126355   6.621   0.613  11.037  0.3454 -3.7559 -0.9310
  720TIP3    H226356   6.531   0.627  11.158  0.9390 -0.7847 -0.7575
  721TIP3   OH226357   4.300   5.844  12.291 -0.0438  0.2971 -0.1699
  721TIP3    H126358   4.234   5.789  12.250 -0.9142  0.0274  1.4809
  721TIP3    H226359   4.381   5.796  12.281 -0.6201 -0.8222  0.3625
  722TIP3   OH226360   7.182   4.895  12.777  0.5154  0.1565  0.2973
  722TIP3    H126361   7.115   4.938  12.724 -0.1358  0.3987  1.2962
  722TIP3    H226362   7.135   4.827  12.825  1.3788 -1.1059 -0.5917
  723TIP3   OH226363   4.751   5.244  11.451  0.2299  0.6548  0.1597
  723TIP3    H126364   4.846   5.246  11.445  0.2158 -1.0798 -1.5251
  723TIP3    H226365   4.732   5.201  11.534  0.9238  0.1960  0.0808
  724TIP3   OH226366   4.953   4.190  11.706  0.0471 -0.1537 -0.5210
  724TIP3    H126367   4.957   4.096  11.690  1.2790 -0.1897 -0.1364
  724TIP3    H226368   4.933   4.228  11.621  1.1691 -0.6721 -1.0318
  725TIP3   OH226369   5.251   4.592  10.966 -0.7024 -0.2105  0.5498
  725TIP3    H126370   5.205   4.676  10.967  0.7562  0.7370 -1.9511
  725TIP3    H226371   5.183   4.527  10.950 -1.5306  0.8227 -0.2527
  726TIP3   OH226372   3.240   3.287  12.492 -0.3563  0.6613 -0.0541
  726TIP3    H126373   3.325   3.325  12.514 -0.1336  0.3798 -0.4126
  726TIP3    H226374   3.241   3.200  12.532 -0.2994  0.4872 -0.4323
  727TIP3   OH226375   0.962   2.713  10.303 -0.2185 -0.8382  0.1987
  727TIP3    H126376   0.999   2.632  10.339 -0.9844 -2.1873 -1.8677
  727TIP3    H226377   1.008   2.783  10.348  2.2984 -2.4201  0.2585
  728TIP3   OH226378   2.079   3.401  12.359 -0.5264 -0.0135 -0.5272
  728TIP3    H126379   2.111   3.484  12.394 -1.9334  0.2634  0.1665
  728TIP3    H226380   1.994   3.388  12.400 -0.4907 -1.6485 -0.8780
  729TIP3   OH226381   1.037   4.625  10.560  0.1695  0.3201  0.2318
  729TIP3    H126382   1.090   4.683  10.504 -0.9552 -0.8593 -2.1982
  729TIP3    H226383   1.036   4.669  10.645  1.6907  2.4145 -0.7321
  730TIP3   OH226384   6.465   7.575  12.178  0.1691 -0.2407  0.5888
  730TIP3    H126385   6.455   7.480  12.188  0.5479 -0.3868 -0.3290
  730TIP3    H226386   6.480   7.588  12.084  2.6124  0.4782  0.9922
  731TIP3   OH226387   6.223   3.410  11.603 -0.4458 -0.3580 -0.1554
  731TIP3    H126388   6.255   3.488  11.558 -0.7046 -0.6768 -0.9065
  731TIP3    H226389   6.288   3.394  11.672  0.9302 -0.8562 -1.5111
  732TIP3   OH226390   5.087   5.105  10.791  0.3140 -0.2879 -0.5624
  732TIP3    H126391   5.083   5.136  10.881  0.4096 -0.9906 -0.3083
  732TIP3    H226392   5.155   5.157  10.750 -0.1459  0.4543 -0.3987
  733TIP3   OH226393   3.180   0.213  11.656 -0.0210  0.3852  0.5774
  733TIP3    H126394   3.163   0.285  11.717 -1.5212  0.6164 -0.0710
  733TIP3    H226395   3.101   0.159  11.660  0.5443 -0.5092  0.0638
  734TIP3   OH226396   0.010   1.903  12.179  0.1632 -0.3923 -0.0745
  734TIP3    H126397  -0.032   1.834  12.230  0.1275  0.9079  1.7370
  734TIP3    H226398  -0.059   1.966  12.161  0.2503 -0.6792 -1.5023
  735TIP3   OH226399   0.112   4.767  12.986  0.1050  0.5173 -0.2908
  735TIP3    H126400   0.146   4.855  13.002  0.2476  0.7582 -1.8250
  735TIP3    H226401   0.021   4.781  12.961 -0.3125  0.0932  0.9116
  736TIP3   OH226402   2.650   1.799  12.135  0.0287 -0.2313  0.2701
  736TIP3    H126403   2.683   1.855  12.064 -0.8833 -0.8085 -0.6365
  736TIP3    H226404   2.584   1.853  12.179 -0.9207 -0.5990 -0.6636
  737TIP3   OH226405   6.761   4.278  11.574  0.8442  0.2549 -0.2929
  737TIP3    H126406   6.801   4.236  11.650  1.2073 -1.2315 -1.2506
  737TIP3    H226407   6.668   4.258  11.581  0.9213 -0.1571 -0.3865
  738TIP3   OH226408   2.395   4.687  11.410 -0.0428 -0.5142  0.1925
  738TIP3    H126409   2.442   4.768  11.429  0.7287 -1.0008  0.3819
  738TIP3    H226410   2.328   4.682  11.479 -1.3923  0.9255 -0.9261
  739TIP3   OH226411   7.505   6.383  10.085 -0.3658  0.1630  0.0907
  739TIP3    H126412   7.494   6.469  10.043 -1.0916  0.5047  0.9614
  739TIP3    H226413   7.598   6.364  10.075  0.3049  2.1175  1.8776
  740TIP3   OH226414   1.633   5.261  12.385  0.2411 -0.3690 -0.2537
  740TIP3    H126415   1.607   5.272  12.293  1.8749 -1.5649 -0.8931
  740TIP3    H226416   1.617   5.169  12.404  1.1124 -0.4235  0.2625
  741TIP3   OH226417   4.087   4.046  10.464  0.8079  0.3338  0.2906
  741TIP3    H126418   4.067   3.970  10.517  0.2320  0.2550 -0.0272
  741TIP3    H226419   4.025   4.113  10.494  0.7243  0.3998 -0.0171
  742TIP3   OH226420   3.663   4.356  11.769  0.5391 -0.3461  0.4323
  742TIP3    H126421   3.688   4.448  11.764 -0.7382  0.0901  1.4344
  742TIP3    H226422   3.730   4.310  11.718 -0.1501  1.3769 -2.2649
  743TIP3   OH226423   6.311   2.882  10.917  0.3984 -0.2940  0.2888
  743TIP3    H126424   6.223   2.919  10.919 -0.0786 -1.3173 -0.3963
  743TIP3    H226425   6.336   2.873  11.009 -0.4019 -0.4084  0.5030
  744TIP3   OH226426   7.475   1.757  11.777  0.2855  0.4327 -0.3320
  744TIP3    H126427   7.440   1.669  11.790  0.6688  0.3446  0.1442
  744TIP3    H226428   7.468   1.799  11.863  2.4459  0.0002  0.1124
  745TIP3   OH226429   0.418   3.887  10.049  0.4497 -0.1585  0.0495
  745TIP3    H126430   0.455   3.812  10.095  0.5282 -0.9246 -1.2191
  745TIP3    H226431   0.365   3.849   9.979 -0.5850  0.9565  0.1875
  746TIP3   OH226432   1.801   0.373  12.740  0.3663  0.6275 -0.3505
  746TIP3    H126433   1.722   0.399  12.788  0.2976 -0.1639 -0.0112
  746TIP3    H226434   1.781   0.392  12.648 -0.4620 -0.1252 -0.3404
  747TIP3   OH226435   7.297   1.125  10.278 -0.4168 -0.1118 -0.1917
  747TIP3    H126436   7.219   1.152  10.229 -0.8622 -0.7235  0.1660
  747TIP3    H226437   7.297   1.030  10.272  0.3102 -0.1190 -0.1858
  748TIP3   OH226438   0.031   0.989  12.428  0.2972  0.5077 -0.8899
  748TIP3    H126439  -0.056   0.974  12.393 -0.0224 -0.5438  0.2702
  748TIP3    H226440   0.016   1.029  12.514  1.0247  2.1206 -1.4739
  749TIP3   OH226441   3.132   0.939  12.447  0.3027 -0.4200  0.2237
  749TIP3    H126442   3.121   0.849  12.417  0.7989  0.4651 -2.9563
  749TIP3    H226443   3.066   0.989  12.400  1.4448  1.1892  0.2459
  750TIP3   OH226444   0.263   4.538  12.986 -0.5227  0.5423 -0.5436
  750TIP3    H126445   0.209   4.615  12.970 -2.1308  0.1176  2.1966
  750TIP3    H226446   0.275   4.537  13.081  1.3980 -1.3495 -0.7383
  751TIP3   OH226447   1.853   6.116  11.930 -0.3378 -0.6051 -0.0829
  751TIP3    H126448   1.927   6.085  11.982  0.4099 -0.7464 -1.2134
  751TIP3    H226449   1.870   6.209  11.915  1.1253 -1.2087 -2.7276
  752TIP3   OH226450   1.072   3.072  11.629 -0.3586  0.7024  0.1250
  752TIP3    H126451   1.079   3.139  11.697  0.3380  0.1498  0.6291
  752TIP3    H226452   1.144   3.091  11.569 -0.8831  1.1013 -0.3862
  753TIP3   OH226453   0.143   5.453  12.982  0.2486 -0.1682  0.2487
  753TIP3    H126454   0.078   5.523  12.972 -1.5086 -1.7584  0.0275
  753TIP3    H226455   0.107   5.381  12.930  3.1965 -0.4893 -1.5718
  754TIP3   OH226456   3.801   6.458  11.329 -0.5101  0.5231 -0.1118
  754TIP3    H126457   3.845   6.520  11.270  0.2502 -0.7329 -0.9065
  754TIP3    H226458   3.788   6.508  11.410  1.2959  1.3224 -0.2608
  755TIP3   OH226459   4.544   7.011  12.557  0.2327  0.1446 -0.0244
  755TIP3    H126460   4.510   7.024  12.646 -0.4470 -3.5603  0.4293
  755TIP3    H226461   4.639   7.019  12.566  0.0838  1.3515  0.6743
  756TIP3   OH226462   7.601   6.005  11.861  0.6472  0.1962  0.7758
  756TIP3    H126463   7.539   5.934  11.874  0.3855  0.6135  1.9835
  756TIP3    H226464   7.669   5.990  11.926  0.6533  0.9744  0.9578
  757TIP3   OH226465   0.706   7.137  10.654 -0.3408  0.0694 -0.0067
  757TIP3    H126466   0.737   7.080  10.724 -1.4238  1.7834  1.9742
  757TIP3    H226467   0.612   7.121  10.649 -0.5683  1.2671  0.2086
  758TIP3   OH226468   6.817   3.441  10.853 -0.0634  0.2044 -0.0140
  758TIP3    H126469   6.741   3.383  10.854  0.9157 -1.1121 -0.0416
  758TIP3    H226470   6.804   3.497  10.777 -1.4730  0.6564  0.5364
  759TIP3   OH226471   0.612   5.402  10.070  0.1542 -0.0287 -0.0465
  759TIP3    H126472   0.595   5.494  10.049 -0.7500 -0.4461 -1.2627
  759TIP3    H226473   0.597   5.355   9.988  0.2076 -1.3203  0.6492
  760TIP3   OH226474   2.652   6.610  11.458 -0.5125 -0.7010  0.6939
  760TIP3    H126475   2.738   6.594  11.496 -0.1089 -1.5667 -0.4958
  760TIP3    H226476   2.615   6.681  11.509  0.5480 -0.9109  1.7873
  761TIP3   OH226477   1.835   7.132  12.126 -0.2759  0.0473 -0.0492
  761TIP3    H126478   1.764   7.074  12.152 -0.3888  0.7182  1.2302
  761TIP3    H226479   1.843   7.120  12.031 -0.3485 -1.9585  0.1644
  762TIP3   OH226480   7.057   4.972  11.720  0.2442  0.2680  0.1055
  762TIP3    H126481   7.152   4.983  11.727  0.5192  0.2242 -2.6047
  762TIP3    H226482   7.029   5.041  11.659 -1.2038 -0.7752 -0.4678
  763TIP3   OH226483   1.845   0.011  12.475  0.3032  0.0405 -0.0926
  763TIP3    H126484   1.755  -0.020  12.480  0.5784 -0.8806 -0.7673
  763TIP3    H226485   1.869   0.004  12.383  1.3273 -0.4846  0.1910
  764TIP3   OH226486   3.062   0.470  10.930 -0.1293  0.0782 -0.1032
  764TIP3    H126487   2.971   0.498  10.931 -0.1670  0.0215  1.5639
  764TIP3    H226488   3.059   0.377  10.909 -0.4558  0.0946 -0.1370
  765TIP3   OH226489   5.480   2.390  12.222  0.2489 -0.2668 -0.3620
  765TIP3    H126490   5.557   2.346  12.259 -0.4721 -0.7996  0.5535
  765TIP3    H226491   5.455   2.454  12.288 -0.2318 -0.2583 -0.5524
  766TIP3   OH226492   6.136   5.570  12.944 -0.3763 -0.3535 -0.0078
  766TIP3    H126493   6.152   5.597  12.854  0.8266  1.6060  0.7159
  766TIP3    H226494   6.223   5.574  12.985 -0.9550 -0.8555  1.3094
  767TIP3   OH226495   6.617   7.202  12.645  0.1470 -0.0267  0.0841
  767TIP3    H126496   6.534   7.155  12.641  0.5112 -0.7221  0.3870
  767TIP3    H226497   6.621   7.235  12.735  1.1970 -1.9338  0.7985
  768TIP3   OH226498   0.473   2.258  12.300  0.1392 -0.6744  0.1581
  768TIP3    H126499   0.485   2.348  12.270  2.5722 -0.2659  2.0423
  768TIP3    H226500   0.456   2.265  12.394  1.9596 -2.1932  0.6691
  769TIP3   OH226501   2.824   2.771  10.879  0.4255  0.5496  0.0062
  769TIP3    H126502   2.775   2.853  10.888 -0.7460 -0.2628  1.3779
  769TIP3    H226503   2.901   2.783  10.934 -1.3123 -0.3600  2.8254
  770TIP3   OH226504   1.295   6.555  11.877 -0.0283 -0.3744  0.6308
  770TIP3    H126505   1.283   6.484  11.940  0.8528 -1.8268 -0.7746
  770TIP3    H226506   1.306   6.511  11.793  0.8814  1.4215 -0.2384
  771TIP3   OH226507   3.141   6.419  11.711  0.1267 -0.3842 -0.4802
  771TIP3    H126508   3.190   6.339  11.730 -0.8628 -0.8732  0.0990
  771TIP3    H226509   3.160   6.477  11.784 -1.0098 -0.9990  0.3410
  772TIP3   OH226510   1.856   5.938  11.632 -0.3058 -0.2345 -0.1054
  772TIP3    H126511   1.784   5.977  11.681  0.3243 -0.5825  1.1406
  772TIP3    H226512   1.896   5.876  11.693  2.5114  1.6234  0.1075
  773TIP3   OH226513   4.040   7.071  11.440 -0.0510 -0.6546  0.4588
  773TIP3    H126514   4.095   7.073  11.362 -1.7653  0.8338 -0.7975
  773TIP3    H226515   4.102   7.065  11.513  1.6811 -0.4441 -0.9332
  774TIP3   OH226516   7.579   3.970  12.036  0.0416  0.0743  0.3734
  774TIP3    H126517   7.595   3.972  12.130 -0.6611 -0.5364  0.5130
  774TIP3    H226518   7.484   3.957  12.028 -0.2020  1.9403 -0.4069
  775TIP3   OH226519   7.492   3.530  11.786 -0.0482  0.6879  0.1771
  775TIP3    H126520   7.556   3.589  11.827 -0.1808  1.2292 -0.3718
  775TIP3    H226521   7.536   3.445  11.783  1.0663  1.2684 -1.1114
  776TIP3   OH226522   5.908   2.230   9.806 -0.1600 -0.8642 -0.2843
  776TIP3    H126523   5.890   2.310   9.857 -0.7664 -1.1320 -0.0734
  776TIP3    H226524   5.989   2.195   9.845 -0.3181 -0.7732  0.1346
  777TIP3   OH226525   4.023   7.492  10.841  0.1833  0.1735  0.1392
  777TIP3    H126526   4.118   7.490  10.830  0.1952  0.7051  0.1111
  777TIP3    H226527   4.010   7.506  10.935  0.1708  2.1290 -0.1175
  778TIP3   OH226528   3.235   0.262  10.673  0.2782  0.0361 -0.4206
  778TIP3    H126529   3.170   0.253  10.743 -0.8811 -0.9617 -1.5551
  778TIP3    H226530   3.212   0.344  10.629  2.0088  1.5108  1.2913
  779TIP3   OH226531   0.985   7.200   9.947 -0.4547 -0.4547 -0.4082
  779TIP3    H126532   1.073   7.237   9.958  0.0985 -1.1741 -2.1095
  779TIP3    H226533   0.997   7.106   9.965 -1.3816 -0.2543  1.6045
  780TIP3   OH226534   5.946   5.791  12.534  0.0367 -0.4224 -0.7686
  780TIP3    H126535   5.940   5.842  12.615  1.2040 -1.9885  0.3776
  780TIP3    H226536   5.872   5.820  12.481 -0.4558  1.0179  0.6349
  781TIP3   OH226537   5.622   5.014  12.745  0.2693 -0.0485 -0.1389
  781TIP3    H126538   5.567   5.076  12.697  1.1704  0.0005 -1.1502
  781TIP3    H226539   5.670   4.967  12.677  1.0528 -0.4816  0.6970
  782TIP3   OH226540   7.613   3.048  11.190 -0.0016  0.1964 -0.0518
  782TIP3    H126541   7.639   3.112  11.123 -0.6210  0.5836  0.0687
  782TIP3    H226542   7.584   3.101  11.264  0.6722 -0.2334  0.5209
  783TIP3   OH226543   4.927   0.179  12.396  0.1021 -0.2391  0.6678
  783TIP3    H126544   4.936   0.088  12.423  0.3800 -0.5611 -0.4564
  783TIP3    H226545   4.983   0.187  12.319  1.9787  1.5148  2.1046
  784TIP3   OH226546   4.021   1.321  11.323 -0.2183 -0.7460  0.3348
  784TIP3    H126547   3.945   1.352  11.274 -1.3082 -0.8300  1.8959
  784TIP3    H226548   3.984   1.262  11.389  1.4268 -2.4684 -0.2090
  785TIP3   OH226549   4.080   2.467  12.163 -0.2397 -0.2688 -0.3117
  785TIP3    H126550   4.084   2.428  12.075  1.3077 -0.0527 -0.3534
  785TIP3    H226551   4.065   2.392  12.221  0.8438 -0.7112 -0.5738
  786TIP3   OH226552   2.918   6.181  10.928 -0.7106  0.1236  0.4209
  786TIP3    H126553   3.008   6.186  10.961 -0.3264  1.2146 -0.7480
  786TIP3    H226554   2.874   6.257  10.966 -0.9828 -0.0657  0.4886
  787TIP3   OH226555   5.168   2.120  11.790  0.5313  0.0596 -0.0835
  787TIP3    H126556   5.229   2.097  11.720  1.2710  1.3891  0.0892
  787TIP3    H226557   5.158   2.039  11.841 -0.4070 -1.0865 -1.9437
  788TIP3   OH226558   5.222   4.413  10.676  0.0118  0.2042  0.9175
  788TIP3    H126559   5.154   4.389  10.613  1.2917  1.6541 -1.1480
  788TIP3    H226560   5.303   4.377  10.638  0.6476 -0.1977  2.5469
  789TIP3   OH226561   4.029   1.248  11.032 -0.3265 -0.4350 -0.3407
  789TIP3    H126562   3.985   1.320  10.987 -0.8282 -0.5708 -0.0801
  789TIP3    H226563   4.026   1.272  11.125  0.2144 -0.4146 -0.3234
  790TIP3   OH226564   5.632   6.419  10.422 -0.4575  0.2051 -0.3797
  790TIP3    H126565   5.547   6.387  10.452  0.3286 -0.6793  1.0048
  790TIP3    H226566   5.694   6.353  10.451  0.5411 -0.1141 -2.9735
  791TIP3   OH226567   7.114   5.115  10.185 -0.3717 -0.1875  0.4305
  791TIP3    H126568   7.144   5.031  10.151 -0.2793 -0.8061  1.9921
  791TIP3    H226569   7.183   5.177  10.161 -0.7545 -0.3916 -1.3099
  792TIP3   OH226570   1.083   1.342  11.102  0.2743 -0.5330  0.0834
  792TIP3    H126571   1.102   1.433  11.123  1.4600 -0.5129 -0.9629
  792TIP3    H226572   1.165   1.308  11.067  0.2635 -2.3808  1.6683
  793TIP3   OH226573   3.461   4.771  10.583 -0.1243 -0.6624 -0.2685
  793TIP3    H126574   3.550   4.769  10.548 -0.2449  0.2058 -0.6734
  793TIP3    H226575   3.408   4.804  10.510 -0.8698 -1.7254 -0.2167
  794TIP3   OH226576   6.144   5.183  10.304 -0.3539  0.4463  1.0173
  794TIP3    H126577   6.198   5.186  10.383  1.5130 -1.3542 -0.0861
  794TIP3    H226578   6.186   5.245  10.245  1.0060 -1.3833 -0.0555
  795TIP3   OH226579   3.728   5.983  10.691  0.0983  0.3677 -0.0925
  795TIP3    H126580   3.714   6.074  10.716  0.0190  0.2914  0.1394
  795TIP3    H226581   3.766   5.988  10.604 -0.6666  0.5968 -0.4202
  796TIP3   OH226582   4.490   4.425  12.050 -0.3512 -0.1574  0.1350
  796TIP3    H126583   4.535   4.491  12.103 -2.4682  1.4326  0.0615
  796TIP3    H226584   4.513   4.446  11.960  1.6067 -1.6169  0.2253
  797TIP3   OH226585   1.375   4.838  10.664 -0.0875 -0.2915 -0.3336
  797TIP3    H126586   1.368   4.882  10.578 -3.2406  0.7908  0.3410
  797TIP3    H226587   1.327   4.756  10.653 -1.6923  0.4673  0.6873
  798TIP3   OH226588   2.099   0.385  10.548 -0.0613 -0.1083 -0.4064
  798TIP3    H126589   2.172   0.442  10.523  0.5200 -1.3599 -1.6923
  798TIP3    H226590   2.021   0.439  10.538  0.5743  0.8352 -0.3469
  799TIP3   OH226591   3.721   6.826  12.648  0.2351  0.3737  0.1230
  799TIP3    H126592   3.782   6.901  12.649  0.8900 -0.1489  0.8835
  799TIP3    H226593   3.687   6.824  12.559  1.4909  0.5713 -0.3848
  800TIP3   OH226594   5.153   0.173  12.227  0.0140  0.4116  0.3107
  800TIP3    H126595   5.122   0.211  12.144  0.4539  0.4761  0.1754
  800TIP3    H226596   5.205   0.098  12.202 -0.8320 -0.2862  0.5821
  801TIP3   OH226597   2.949   4.492  11.757  0.1025 -0.4541 -0.0412
  801TIP3    H126598   2.912   4.460  11.675 -2.7001  2.9898 -0.3798
  801TIP3    H226599   2.880   4.476  11.822 -0.1564  1.8310  0.3516
  802TIP3   OH226600   2.656   1.657  11.379  0.2251  0.5995 -0.0572
  802TIP3    H126601   2.675   1.705  11.460  0.8105 -0.8346  0.6829
  802TIP3    H226602   2.728   1.596  11.370 -0.6207 -0.3117 -0.8425
  803TIP3   OH226603   3.528   6.643  11.043 -0.5775 -0.1059  0.4844
  803TIP3    H126604   3.469   6.575  11.075  2.3770 -3.0546  0.2646
  803TIP3    H226605   3.582   6.666  11.119  0.9384 -0.8927 -0.3129
  804TIP3   OH226606   4.589   3.833  12.161  0.1766  0.0723  0.0689
  804TIP3    H126607   4.660   3.869  12.108  0.5349 -0.4616  0.1722
  804TIP3    H226608   4.511   3.839  12.106  0.5751 -0.6316 -0.5930
  805TIP3   OH226609   3.711   2.849  11.812 -0.0463 -0.6637 -0.1772
  805TIP3    H126610   3.686   2.835  11.720 -0.2369  1.3148 -0.4586
  805TIP3    H226611   3.799   2.885  11.808 -0.5672  0.7012  0.3235
  806TIP3   OH226612   3.861   4.242  10.440  0.2125  0.2445 -0.2156
  806TIP3    H126613   3.899   4.217  10.355 -0.5269 -0.0222 -0.4695
  806TIP3    H226614   3.824   4.329  10.425 -0.7075 -0.1721 -0.4206
  807TIP3   OH226615   3.190   5.945  12.373  0.3720 -0.0119 -0.6179
  807TIP3    H126616   3.235   5.861  12.381 -0.0353 -0.0850  1.5023
  807TIP3    H226617   3.101   5.927  12.404 -0.8325  0.4212 -3.5022
  808TIP3   OH226618   0.394   7.444  10.844  0.2656  0.3009  0.3476
  808TIP3    H126619   0.391   7.351  10.819 -0.0043  0.5658 -0.6427
  808TIP3    H226620   0.318   7.483  10.801 -0.3017  0.7691  1.7203
  809TIP3   OH226621   3.825   5.220  10.615  0.5489 -0.0470 -0.1229
  809TIP3    H126622   3.851   5.253  10.529 -0.2066  1.5432  0.2081
  809TIP3    H226623   3.732   5.198  10.605  0.2551  0.8529  0.4440
  810TIP3   OH226624   1.709   0.639  12.539  0.4925 -0.2033  1.1002
  810TIP3    H126625   1.670   0.724  12.517 -0.2656 -0.6518  0.6933
  810TIP3    H226626   1.798   0.645  12.505  0.3444  0.3129  0.7902
  811TIP3   OH226627   1.583   7.647  12.455  0.3324  0.1950  0.2871
  811TIP3    H126628   1.540   7.569  12.420 -0.6015  1.0844 -0.6339
  811TIP3    H226629   1.529   7.673  12.530  1.5358 -0.9076  1.5829
  812TIP3   OH226630   7.505   4.440  12.271  0.1940 -0.2571 -0.5029
  812TIP3    H126631   7.477   4.390  12.348 -1.9603 -1.1468 -1.7924
  812TIP3    H226632   7.446   4.412  12.201  1.9447  0.6934 -2.4545
  813TIP3   OH226633   5.708   1.739  12.142 -0.1405 -0.5776 -0.0153
  813TIP3    H126634   5.767   1.712  12.212 -0.3357 -0.8040  0.0607
  813TIP3    H226635   5.750   1.709  12.062 -1.8168 -3.9596  0.2027
  814TIP3   OH226636   1.102   2.234  10.451 -0.7567  0.0592 -0.1626
  814TIP3    H126637   1.176   2.189  10.411  0.3318  0.0477  1.7357
  814TIP3    H226638   1.073   2.175  10.521 -0.5827  1.3936  1.0804
  815TIP3   OH226639   6.655   4.333  10.355  0.1404 -0.5516 -0.0377
  815TIP3    H126640   6.708   4.303  10.281  0.6662 -1.8947  0.8527
  815TIP3    H226641   6.568   4.347  10.318  0.8558  0.7778 -1.3279
  816TIP3   OH226642   2.607   0.579  10.331 -0.2662  0.3407 -0.5532
  816TIP3    H126643   2.554   0.507  10.296  2.1091 -0.9877 -1.6425
  816TIP3    H226644   2.583   0.655  10.278 -1.5833 -0.0202 -0.5147
  817TIP3   OH226645   4.375   1.879  11.221  0.0076  0.0826  0.0215
  817TIP3    H126646   4.420   1.795  11.216 -2.0913 -1.1706  1.0367
  817TIP3    H226647   4.404   1.916  11.304 -0.4743 -0.4996  0.4521
  818TIP3   OH226648   0.923   3.818  11.842 -0.6282  0.1764  0.4397
  818TIP3    H126649   0.906   3.903  11.882 -0.7252  0.4309 -0.1339
  818TIP3    H226650   0.987   3.776  11.901 -1.6344  0.0594  1.4866
  819TIP3   OH226651   7.606   3.740  10.261 -0.6973  0.1918  0.1209
  819TIP3    H126652   7.643   3.771  10.178  0.0481  0.8481  0.6924
  819TIP3    H226653   7.620   3.645  10.259  0.9502  0.4023  0.2721
  820TIP3   OH226654   7.493   5.428  10.121  0.0599 -0.2677 -0.6382
  820TIP3    H126655   7.457   5.339  10.116 -0.6652  0.0066 -0.4442
  820TIP3    H226656   7.446   5.477  10.054 -2.2535  0.8665  1.6013
  821TIP3   OH226657   7.134   4.886  11.334  0.0856 -0.0548 -0.2056
  821TIP3    H126658   7.061   4.893  11.395  0.5341  0.7775  0.2689
  821TIP3    H226659   7.195   4.826  11.377 -0.1363 -0.4238 -0.4071
  822TIP3   OH226660   5.996   4.398  10.822  0.3349 -0.2235 -0.3002
  822TIP3    H126661   6.052   4.474  10.807 -0.3912  0.1885 -0.9983
  822TIP3    H226662   5.981   4.361  10.735  0.7223 -1.2089  0.0324
  823TIP3   OH226663   2.078   6.865  12.050 -1.1908  0.2608 -0.0568
  823TIP3    H126664   2.066   6.952  12.089 -1.8064  0.1356  0.0403
  823TIP3    H226665   2.086   6.806  12.125  2.5862  0.6123 -0.0282
  824TIP3   OH226666   4.033   4.503  11.282 -0.4249 -0.3891 -0.2591
  824TIP3    H126667   3.962   4.560  11.310 -0.1797 -0.6973  1.0548
  824TIP3    H226668   3.996   4.415  11.288 -0.4552 -0.4476 -1.2056
  825TIP3   OH226669   6.506   2.470  10.906  0.4664 -0.2896 -0.2283
  825TIP3    H126670   6.591   2.506  10.932  0.7420 -0.5405 -0.7724
  825TIP3    H226671   6.444   2.541  10.923  0.7903 -0.0873  0.1211
  826TIP3   OH226672   0.371   0.565  11.088  0.5266 -0.1138  0.5726
  826TIP3    H126673   0.356   0.587  11.180  0.5862  0.6624  0.4056
  826TIP3    H226674   0.389   0.649  11.046  1.0547 -0.5224 -0.0457
  827TIP3   OH226675   2.447   4.664  12.327 -0.0557  0.0350  0.3489
  827TIP3    H126676   2.514   4.733  12.327  0.4492 -0.4541  0.3217
  827TIP3    H226677   2.409   4.669  12.415 -1.0203  1.2985 -0.1020
  828TIP3   OH226678   1.357   6.906  10.574 -0.3256  0.6310  0.4793
  828TIP3    H126679   1.276   6.947  10.546 -0.8292 -1.1034 -0.7568
  828TIP3    H226680   1.418   6.978  10.586 -1.7269  1.8730  0.3577
  829TIP3   OH226681   6.623   7.143  10.913  0.1731 -0.7338  0.2147
  829TIP3    H126682   6.603   7.230  10.880 -0.5641 -1.2312 -0.7231
  829TIP3    H226683   6.538   7.106  10.938  0.0038 -2.2566 -2.2237
  830TIP3   OH226684   5.410   5.695  12.347  0.6001 -0.0638 -0.6392
  830TIP3    H126685   5.480   5.642  12.384 -0.2903 -1.6656 -1.1637
  830TIP3    H226686   5.443   5.785  12.351  1.4843 -0.4283  1.8216
  831TIP3   OH226687   5.590   0.113  12.654  0.2789  0.0479  0.3121
  831TIP3    H126688   5.604   0.084  12.563  0.7685  0.3240  0.2966
  831TIP3    H226689   5.675   0.148  12.681  0.0941  0.0980  0.8313
  832TIP3   OH226690   7.147   4.258  12.687  0.7967 -0.1909 -0.0973
  832TIP3    H126691   7.144   4.256  12.782  1.7669 -1.2454 -0.0695
  832TIP3    H226692   7.234   4.290  12.666  0.7735 -0.4590 -0.6238
  833TIP3   OH226693   6.304   6.524  11.043  0.4236  1.0759 -0.0087
  833TIP3    H126694   6.325   6.564  10.959 -0.9096  0.6534 -0.5637
  833TIP3    H226695   6.324   6.591  11.108 -1.3494  2.5161 -0.8780
  834TIP3   OH226696   0.254   3.614  10.979  0.3943  0.4271  0.6054
  834TIP3    H126697   0.179   3.659  11.018  0.2103  0.7543 -0.1081
  834TIP3    H226698   0.251   3.639  10.887 -1.1219 -2.8337 -0.3897
  835TIP3   OH226699   7.051   1.380  11.550 -0.0305  0.6480 -0.0435
  835TIP3    H126700   6.997   1.314  11.594 -0.3544  1.3435  0.6236
  835TIP3    H226701   7.013   1.387  11.462 -1.0682  1.1540  0.4251
  836TIP3   OH226702   6.872   0.566  12.506  0.2366 -0.3973  0.0703
  836TIP3    H126703   6.915   0.485  12.532  0.8236 -0.6876 -1.6682
  836TIP3    H226704   6.934   0.609  12.447  0.1867  1.6354  1.4100
  837TIP3   OH226705   4.976   6.864  10.526  0.4514  0.3259 -0.3531
  837TIP3    H126706   5.060   6.881  10.484  0.1480  0.6819 -0.8299
  837TIP3    H226707   4.998   6.836  10.614  1.0874 -0.0274 -0.6179
  838TIP3   OH226708   1.810   1.512  12.436 -0.2486 -0.2845 -0.0285
  838TIP3    H126709   1.839   1.480  12.351 -0.1979 -2.3636  0.7078
  838TIP3    H226710   1.715   1.504  12.434 -0.1942 -1.1205  0.3826
  839TIP3   OH226711   3.188   2.075  12.735  0.0749 -0.1723  0.6631
  839TIP3    H126712   3.093   2.073  12.739  0.0096  1.4655  0.5518
  839TIP3    H226713   3.215   1.985  12.756 -1.4669 -0.5810  1.0052
  840TIP3   OH226714   0.008   4.185  10.923 -0.0678 -0.2170  0.1498
  840TIP3    H126715   0.035   4.099  10.891 -0.9618 -0.5517  0.2666
  840TIP3    H226716  -0.087   4.180  10.929 -0.4466  1.6983 -2.5519
  841TIP3   OH226717   6.527   4.999  10.930 -0.5261 -0.4123  0.1261
  841TIP3    H126718   6.432   4.987  10.930 -0.3311 -2.2672  0.2917
  841TIP3    H226719   6.555   4.966  11.016  0.4979 -2.2905 -0.8855
  842TIP3   OH226720   2.181   6.775  10.639 -0.4649  0.5726  0.1306
  842TIP3    H126721   2.223   6.833  10.703 -1.8310  0.1229  1.5262
  842TIP3    H226722   2.198   6.815  10.554 -1.4883  3.1488  1.0449
  843TIP3   OH226723   5.653   1.807  12.595  0.0127 -0.0324  0.3804
  843TIP3    H126724   5.637   1.719  12.629 -0.0128 -1.0109 -2.0300
  843TIP3    H226725   5.572   1.831  12.550  0.1972  1.0282  0.5847
  844TIP3   OH226726   1.728   3.078  10.527 -0.7684  0.0990 -0.6658
  844TIP3    H126727   1.738   3.132  10.449  0.3813 -0.2891 -0.8105
  844TIP3    H226728   1.794   3.009  10.517 -0.6282  0.0176  0.6269
  845TIP3   OH226729   5.610   2.763  10.920 -0.1245 -0.2482 -0.2106
  845TIP3    H126730   5.554   2.731  10.849  0.3172  0.0477 -0.6940
  845TIP3    H226731   5.679   2.811  10.876  0.0954  0.0258  0.4318
  846TIP3   OH226732   0.528   6.057  10.744 -0.3109  0.1815 -0.0609
  846TIP3    H126733   0.551   6.150  10.754 -1.2211  0.3833  0.2788
  846TIP3    H226734   0.607   6.010  10.770 -0.2899  0.8419  1.1447
  847TIP3   OH226735   2.516   6.316  10.930 -0.1056 -0.2096 -0.0652
  847TIP3    H126736   2.557   6.318  10.844  0.2437  0.3243  0.1052
  847TIP3    H226737   2.484   6.227  10.940 -1.4417  0.1029 -1.3441
  848TIP3   OH226738   4.081   2.244  12.335 -0.2263 -0.4959 -0.1646
  848TIP3    H126739   4.107   2.164  12.379  1.4042  0.4281  0.6655
  848TIP3    H226740   4.005   2.276  12.383  0.8456 -0.0934  1.3389
  849TIP3   OH226741   5.089   6.531  10.675  0.0566  0.1867  0.2255
  849TIP3    H126742   5.154   6.589  10.635  1.4799 -0.9334  0.8209
  849TIP3    H226743   5.020   6.524  10.609  0.5621  1.3432 -0.4619
  850TIP3   OH226744   4.306   1.468  10.719  0.7030 -0.1579 -0.2578
  850TIP3    H126745   4.313   1.470  10.623  0.7167  0.5999 -0.2503
  850TIP3    H226746   4.393   1.492  10.749  0.5620  0.1225 -0.0664
  851TIP3   OH226747   3.307   5.705  12.323 -0.0302 -0.0312  0.2936
  851TIP3    H126748   3.305   5.612  12.345 -1.4773 -0.2308 -0.5555
  851TIP3    H226749   3.235   5.717  12.261  0.3690  1.5881  0.0848
  852TIP3   OH226750   2.363   3.403  11.354 -0.2922 -0.6732 -0.2475
  852TIP3    H126751   2.399   3.335  11.298  0.4664 -0.6132  0.1491
  852TIP3    H226752   2.324   3.356  11.428 -0.0422 -0.6928 -0.1271
  853TIP3   OH226753   3.836   3.938  12.474  0.1432  0.0096  0.2180
  853TIP3    H126754   3.765   3.874  12.480  1.7030 -1.7024  2.6850
  853TIP3    H226755   3.793   4.023  12.477 -1.8594 -0.9444 -0.0346
  854TIP3   OH226756   2.304   3.531  10.224  0.2300 -0.4507 -0.2211
  854TIP3    H126757   2.266   3.446  10.201 -1.4543  0.2412 -0.1876
  854TIP3    H226758   2.374   3.545  10.161 -0.3482 -1.2819 -1.0716
  855TIP3   OH226759   4.662   6.514  10.533  0.0219  0.0582 -0.3150
  855TIP3    H126760   4.749   6.499  10.495 -0.3251 -1.3185 -0.6311
  855TIP3    H226761   4.638   6.429  10.571 -2.1844 -0.3262 -2.3277
  856TIP3   OH226762   7.429   6.972  11.464  0.2134  0.4440  0.2761
  856TIP3    H126763   7.345   6.984  11.507  0.6093  0.4433  1.0590
  856TIP3    H226764   7.443   7.054  11.416 -0.2910  0.3905  0.0324
  857TIP3   OH226765   3.155   4.711  12.290 -0.2010  0.5083  0.5850
  857TIP3    H126766   3.088   4.647  12.265 -1.5721  1.9921  0.2708
  857TIP3    H226767   3.215   4.714  12.216 -1.7224  1.5917 -0.6815
  858TIP3   OH226768   1.805   4.522  11.701  0.3579 -0.2669 -0.1199
  858TIP3    H126769   1.812   4.468  11.622  2.1268  0.5633 -0.5698
  858TIP3    H226770   1.713   4.512  11.728 -0.5450  0.1093 -2.7547
  859TIP3   OH226771   3.860   2.123  11.825 -0.4250 -0.6324 -0.7499
  859TIP3    H126772   3.844   2.132  11.731 -1.7071  1.5723 -0.4190
  859TIP3    H226773   3.948   2.087  11.832 -1.0205 -2.7118 -2.7631
  860TIP3   OH226774   0.678   5.357  11.084 -0.1989 -0.1426 -0.4878
  860TIP3    H126775   0.760   5.375  11.130  1.5366 -1.9609 -2.6219
  860TIP3    H226776   0.660   5.437  11.036 -1.8619  1.6721  2.8004
  861TIP3   OH226777   3.157   1.857  11.708  0.7187  0.6020 -0.4435
  861TIP3    H126778   3.095   1.926  11.733  1.2783  0.8544  0.2693
  861TIP3    H226779   3.123   1.778  11.749  0.8408  0.7343 -0.0803
  862TIP3   OH226780   3.621   5.284  11.598  0.4014 -0.1221 -0.1350
  862TIP3    H126781   3.617   5.300  11.504  0.2716 -1.2101 -0.3247
  862TIP3    H226782   3.600   5.369  11.637 -0.3518  0.1523 -1.0846
  863TIP3   OH226783   7.164   4.334  11.843  0.0775 -0.2390 -0.1475
  863TIP3    H126784   7.154   4.399  11.913  0.2925 -1.4907  1.0885
  863TIP3    H226785   7.105   4.263  11.868  2.1990 -1.9661  0.3167
  864TIP3   OH226786   4.758   2.640  12.177  0.4735 -0.4531  0.0975
  864TIP3    H126787   4.666   2.628  12.156  0.2857 -0.1493  0.7132
  864TIP3    H226788   4.805   2.622  12.095 -0.2022  0.3870 -0.4858
  865TIP3   OH226789   0.220   0.316  12.435 -0.5205  0.1859  0.0109
  865TIP3    H126790   0.175   0.400  12.445  1.2378  1.3544 -1.1483
  865TIP3    H226791   0.260   0.321  12.348 -1.7604 -2.6089 -0.8200
  866TIP3   OH226792   6.052   1.697  10.920 -1.3665  0.0291  0.1891
  866TIP3    H126793   6.008   1.722  11.001 -1.9610 -0.9402  0.1869
  866TIP3    H226794   6.144   1.719  10.935 -1.9171  2.9905 -0.1752
  867TIP3   OH226795   5.723   5.162  12.965 -0.4300  0.4906 -0.5725
  867TIP3    H126796   5.791   5.100  12.992  1.1275  1.4799 -2.0391
  867TIP3    H226797   5.656   5.108  12.925 -0.6472 -0.5288  1.0658
  868TIP3   OH226798   0.134   6.782  10.730 -0.1347 -0.2785  0.2409
  868TIP3    H126799   0.139   6.747  10.641 -2.1646 -1.3873  0.4896
  868TIP3    H226800   0.082   6.862  10.721  0.8009  0.3342  0.2569
  869TIP3   OH226801   2.749   1.565  11.935  0.3529  0.4675  0.1090
  869TIP3    H126802   2.708   1.638  11.981  1.0133  0.8459  0.1047
  869TIP3    H226803   2.806   1.524  12.001 -1.5162 -1.3177  0.7410
  870TIP3   OH226804   2.343   3.924  11.031 -0.2958  0.2435  0.2882
  870TIP3    H126805   2.261   3.926  11.080 -1.3916 -0.7798 -1.3966
  870TIP3    H226806   2.361   4.016  11.012  0.3041  0.7004  2.7339
  871TIP3   OH226807   7.267   3.204  11.258  0.4513  0.6031 -0.6338
  871TIP3    H126808   7.291   3.114  11.278  0.4846  0.3274 -1.8299
  871TIP3    H226809   7.171   3.204  11.257  0.3131  1.3070  2.3856
  872TIP3   OH226810   1.884   0.043  11.409  0.2151 -0.0788  0.2422
  872TIP3    H126811   1.960   0.070  11.462 -0.7547  1.0917  1.0899
  872TIP3    H226812   1.896   0.090  11.326 -0.0877  0.9344  0.7503
  873TIP3   OH226813   1.652   5.147  10.839 -0.4137  0.0873 -1.1883
  873TIP3    H126814   1.695   5.174  10.758  0.4020 -0.7909 -1.0610
  873TIP3    H226815   1.708   5.181  10.908 -1.3256  1.1907 -0.9601
  874TIP3   OH226816   7.675   7.097  10.043  0.7620 -0.4156  0.1393
  874TIP3    H126817   7.681   7.182   9.998 -1.7054 -1.4616 -2.4920
  874TIP3    H226818   7.662   7.120  10.135  1.2690  2.0331 -0.3153
  875TIP3   OH226819   3.561   6.769  11.272  0.0712  0.0144 -1.1731
  875TIP3    H126820   3.513   6.745  11.351 -0.2073 -0.5726 -1.5104
  875TIP3    H226821   3.650   6.788  11.302 -0.2816  0.8011 -0.5827
  876TIP3   OH226822   5.359   1.454  12.278 -0.0933  0.2194  0.3815
  876TIP3    H126823   5.323   1.415  12.357 -1.0642  0.7228  0.2063
  876TIP3    H226824   5.424   1.516  12.309  0.0485 -0.1089  0.7485
  877TIP3   OH226825   1.452   6.736  11.419  0.0147  0.4654 -0.3870
  877TIP3    H126826   1.534   6.687  11.413 -1.0586 -1.3618 -0.9848
  877TIP3    H226827   1.392   6.689  11.361 -1.8635  0.8641  1.1328
  878TIP3   OH226828   3.391   5.010  11.482 -0.4755 -0.3289 -0.1193
  878TIP3    H126829   3.413   4.985  11.572 -0.4417  1.8917  0.5614
  878TIP3    H226830   3.475   5.037  11.444 -0.6263 -0.4325 -0.5228
  879TIP3   OH226831   6.009   0.676  12.520 -0.2234  0.8215 -0.3029
  879TIP3    H126832   6.023   0.618  12.445 -0.4086 -1.5401  1.3871
  879TIP3    H226833   5.925   0.717  12.503 -1.5324 -1.6624 -0.2538
  880TIP3   OH226834   7.454   4.986  12.789 -0.5913  0.2552 -0.0185
  880TIP3    H126835   7.489   4.899  12.771  1.3417  0.8375  0.6481
  880TIP3    H226836   7.361   4.971  12.808 -0.8846 -1.3172 -2.2864
  881TIP3   OH226837   1.225   2.284  12.705  0.1239 -0.0563 -0.5939
  881TIP3    H126838   1.269   2.368  12.720 -0.7497  0.0036  2.2383
  881TIP3    H226839   1.187   2.293  12.618  1.3002  1.9047 -0.9814
  882TIP3   OH226840   3.850   1.938  11.311 -0.5048 -0.2042  0.7385
  882TIP3    H126841   3.930   1.987  11.330 -1.1959  0.5894  1.6930
  882TIP3    H226842   3.881   1.850  11.287  0.6948  0.3921 -0.0164
  883TIP3   OH226843   6.626   0.685  12.527 -0.4722  0.5424 -0.4327
  883TIP3    H126844   6.592   0.618  12.467 -0.0195  0.3261 -0.4489
  883TIP3    H226845   6.718   0.663  12.538 -0.4590  0.8189  0.0298
  884TIP3   OH226846   7.346   5.676  11.472  0.0227  0.3882 -0.0133
  884TIP3    H126847   7.416   5.720  11.425 -0.4716  1.1985 -0.0024
  884TIP3    H226848   7.299   5.746  11.517 -0.7187 -0.1537  0.0793
  885TIP3   OH226849   2.847   2.632  12.315 -0.5164 -0.3729  0.0158
  885TIP3    H126850   2.858   2.569  12.385  0.2998  0.8536  1.0417
  885TIP3    H226851   2.786   2.697  12.350 -1.7154 -0.8165 -1.1901
  886TIP3   OH226852   2.914   5.216  11.126  0.1411  0.2048 -0.3341
  886TIP3    H126853   2.919   5.251  11.037 -0.8284 -0.0355 -0.4995
  886TIP3    H226854   2.951   5.128  11.120  0.2987  0.2792 -0.4511
  887TIP3   OH226855   4.594   5.782  10.625  0.9158  0.1657  0.1303
  887TIP3    H126856   4.608   5.835  10.703  0.6428  1.6113 -0.7601
  887TIP3    H226857   4.498   5.775  10.617  0.8264  2.2239 -1.4289
  888TIP3   OH226858   7.539   1.213  11.509  0.2013  0.0302 -0.0754
  888TIP3    H126859   7.597   1.204  11.585  1.3723  0.6882 -0.8531
  888TIP3    H226860   7.478   1.283  11.533  0.2469 -0.0993  0.4362
  889TIP3   OH226861   6.314   4.738  10.545  0.1382  0.3021  0.1651
  889TIP3    H126862   6.247   4.804  10.529 -2.1137 -1.4332  1.8079
  889TIP3    H226863   6.385   4.786  10.589 -0.4682  1.9798 -0.5954
  890TIP3   OH226864   2.973   4.428  10.504 -0.2576 -0.1326  0.3086
  890TIP3    H126865   2.994   4.337  10.482  1.1107  0.3088 -0.3948
  890TIP3    H226866   2.999   4.437  10.595 -1.2584 -0.6690  0.6621
  891TIP3   OH226867   3.877   0.373  10.377 -0.3005 -0.1461  0.8029
  891TIP3    H126868   3.858   0.456  10.420  1.4926  0.7369  0.0152
  891TIP3    H226869   3.836   0.381  10.291  0.4125  0.2153  0.4872
  892TIP3   OH226870   3.912   7.587  11.875  0.0812  0.2494 -0.2575
  892TIP3    H126871   3.914   7.568  11.969 -0.9040  1.7593  0.1140
  892TIP3    H226872   3.978   7.655  11.863  1.6796 -1.3607 -1.0745
  893TIP3   OH226873   5.727   2.272  11.887 -0.5554 -0.3602  0.6371
  893TIP3    H126874   5.689   2.310  11.808 -0.0080  1.0075  1.0013
  893TIP3    H226875   5.794   2.335  11.914  1.1734 -2.0981  0.6700
  894TIP3   OH226876   1.871   5.637  10.298 -0.0226 -0.3663 -0.6464
  894TIP3    H126877   1.920   5.705  10.252  0.5857 -0.1963  0.2152
  894TIP3    H226878   1.926   5.559  10.293  1.2343  0.2632  1.8067
  895TIP3   OH226879   5.161   4.986  12.616 -0.0902  0.3255 -0.3234
  895TIP3    H126880   5.197   4.920  12.675  0.0483 -0.1276 -0.9051
  895TIP3    H226881   5.195   5.069  12.650 -1.6523  0.2967  1.4470
  896TIP3   OH226882   1.019   1.964  11.311  0.5220 -0.0555 -0.0059
  896TIP3    H126883   0.936   1.951  11.265  0.3750  0.9730 -0.0594
  896TIP3    H226884   1.048   1.876  11.334 -0.2194 -0.4723 -0.6311
  897TIP3   OH226885   3.494   7.545  10.968  0.0301 -0.5567  0.6403
  897TIP3    H126886   3.497   7.640  10.970  0.3147 -0.5003 -1.0068
  897TIP3    H226887   3.514   7.522  10.877 -0.7051 -2.1563  0.8397
  898TIP3   OH226888   6.023   5.566  10.624  0.1909  0.3633 -0.3059
  898TIP3    H126889   6.048   5.562  10.717  0.7276 -1.3711 -0.4824
  898TIP3    H226890   5.964   5.491  10.612 -0.0106  0.6748 -1.3229
  899TIP3   OH226891   6.609   5.342  11.317  0.1095 -0.0391 -0.1215
  899TIP3    H126892   6.656   5.348  11.234 -0.4084 -0.4990 -0.4511
  899TIP3    H226893   6.565   5.257  11.314  1.0403 -0.5976  1.1331
  900TIP3   OH226894   6.692   3.663  12.255 -0.3221 -0.2831 -0.1643
  900TIP3    H126895   6.697   3.751  12.219  0.0377  0.1945  1.0020
  900TIP3    H226896   6.678   3.676  12.349  0.5900 -1.4600  0.1596
  901TIP3   OH226897   2.369   6.933  11.751  0.3096 -1.2197  0.5324
  901TIP3    H126898   2.346   6.927  11.658 -0.8663 -1.5062  0.8295
  901TIP3    H226899   2.462   6.910  11.754  0.2946 -1.4611 -0.5434
  902TIP3   OH226900   6.760   5.730  11.950  0.2103 -0.4066 -0.2757
  902TIP3    H126901   6.717   5.657  11.906 -1.5093  0.5465 -0.2956
  902TIP3    H226902   6.770   5.796  11.881 -2.0963  0.9294  0.5349
  903TIP3   OH226903   1.628   4.630  12.398  0.0902  0.3349 -0.0441
  903TIP3    H126904   1.608   4.659  12.309 -0.8683  0.4691  0.2073
  903TIP3    H226905   1.668   4.705  12.440 -0.4123  0.6138 -0.0544
  904TIP3   OH226906   6.986   4.588  11.218  0.2957  0.4981  0.2142
  904TIP3    H126907   6.964   4.679  11.238 -1.1317 -0.0553  1.3980
  904TIP3    H226908   7.081   4.584  11.222  0.2875  1.3864  2.8306
  905TIP3   OH226909   2.328   4.776  11.140 -0.0142 -0.2510 -0.2387
  905TIP3    H126910   2.352   4.745  11.228 -0.4695 -1.1547 -0.4159
  905TIP3    H226911   2.283   4.701  11.100  2.4895 -0.8331 -2.2087
  906TIP3   OH226912   3.184   2.825  11.814  0.0064  0.4012  0.3650
  906TIP3    H126913   3.253   2.891  11.809  0.0663  0.3060 -0.0620
  906TIP3    H226914   3.168   2.815  11.908  2.6088 -1.6727  0.7237
  907TIP3   OH226915   0.172   5.972  11.690 -0.4960 -0.3551  0.6289
  907TIP3    H126916   0.082   6.002  11.703 -0.0369  1.1576  0.4457
  907TIP3    H226917   0.167   5.913  11.614 -0.9946  1.5586 -0.8935
  908TIP3   OH226918   4.299   7.518  11.233  0.3987 -0.0827 -0.0916
  908TIP3    H126919   4.241   7.446  11.208  2.2041 -1.1047 -1.6052
  908TIP3    H226920   4.316   7.504  11.326 -2.1380  0.5743  0.5493
  909TIP3   OH226921   3.517   6.553  12.376 -0.2986 -0.3191 -0.1984
  909TIP3    H126922   3.422   6.556  12.387 -0.0977  2.3624  2.6547
  909TIP3    H226923   3.540   6.643  12.352  1.4671 -1.2281 -2.1135
  910TIP3   OH226924   4.810   1.101  10.778 -0.1491  0.4655  0.3433
  910TIP3    H126925   4.753   1.030  10.750  0.3334 -0.4153  1.4822
  910TIP3    H226926   4.877   1.058  10.832  2.2214  1.2890 -1.7565
  911TIP3   OH226927   1.600   7.077  10.617  0.7477  0.1506  0.0367
  911TIP3    H126928   1.596   7.138  10.544 -0.1751 -0.2003 -0.2128
  911TIP3    H226929   1.672   7.017  10.595  0.5976  0.1647 -0.4891
  912TIP3   OH226930   2.180   3.804  11.819  0.8364  0.3159 -0.1627
  912TIP3    H126931   2.227   3.721  11.823  2.0003  0.9992  0.9233
  912TIP3    H226932   2.212   3.845  11.739  0.1586 -0.3195 -0.7752
  913TIP3   OH226933   7.388   5.241  12.322 -0.1903  1.1239  0.3326
  913TIP3    H126934   7.364   5.194  12.402  3.6473  1.5162  1.9284
  913TIP3    H226935   7.353   5.188  12.251 -0.0633 -1.6185  2.1912
  914TIP3   OH226936   6.890   1.121  10.512 -0.1198  0.5651 -0.6335
  914TIP3    H126937   6.882   1.083  10.599  0.6356 -0.0429 -0.8065
  914TIP3    H226938   6.941   1.056  10.463  1.6056  1.9883 -0.8321
  915TIP3   OH226939   5.080   1.099  12.266  0.4200 -0.2734 -0.0131
  915TIP3    H126940   5.075   1.096  12.361 -2.4734  0.6992 -0.0258
  915TIP3    H226941   5.088   1.192  12.245 -0.4981 -0.3399 -0.7195
  916TIP3   OH226942   1.158   3.694  11.949  0.1889 -0.4111  0.7418
  916TIP3    H126943   1.142   3.602  11.929 -1.2825 -0.3230  1.3608
  916TIP3    H226944   1.246   3.696  11.987 -0.2036 -1.7272  1.7794
  917TIP3   OH226945   2.025   0.979  10.566  0.5663 -0.1111 -0.1688
  917TIP3    H126946   2.023   0.899  10.620  1.6841  0.6910  1.1217
  917TIP3    H226947   2.107   0.972  10.517 -0.1536 -0.5386 -1.3558
  918TIP3   OH226948   6.521   0.342  10.989  0.1256 -0.0245 -0.2279
  918TIP3    H126949   6.569   0.315  11.067 -2.0627 -0.5322  1.0365
  918TIP3    H226950   6.529   0.438  10.988 -0.8975  0.1192  1.4284
  919TIP3   OH226951   5.956   6.893  11.798 -0.0643 -0.1958 -0.2538
  919TIP3    H126952   5.880   6.893  11.856 -0.7404 -0.0108 -1.1319
  919TIP3    H226953   5.964   6.802  11.769  0.7221 -0.4485  0.6782
  920TIP3   OH226954   5.998   7.551  11.855  0.0532 -0.0504 -0.2622
  920TIP3    H126955   5.989   7.553  11.759  0.4826 -2.0883 -0.3841
  920TIP3    H226956   6.076   7.499  11.871 -0.6600 -0.7202  1.2176
  921TIP3   OH226957   4.545   6.814  10.402  0.3331 -0.2730 -0.5080
  921TIP3    H126958   4.567   6.788  10.492  0.3926  3.0947  0.5841
  921TIP3    H226959   4.628   6.842  10.364  0.2546 -1.3924 -1.5653
  922TIP3   OH226960   2.274   2.894  10.895 -0.0203  0.0297  0.2637
  922TIP3    H126961   2.325   2.848  10.962 -0.9095 -0.0918  0.8642
  922TIP3    H226962   2.218   2.954  10.944 -0.3481  0.2712 -0.4017
  923TIP3   OH226963   5.946   5.915  12.798  0.1732 -0.7496  0.2212
  923TIP3    H126964   6.012   5.980  12.774  0.1584 -1.3422 -1.5227
  923TIP3    H226965   5.872   5.967  12.830  0.5478  0.0442 -0.1760
  924TIP3   OH226966   1.993   3.010  12.701  0.2728 -0.1556  0.8512
  924TIP3    H126967   2.087   3.020  12.719 -0.2197  1.2393  3.0207
  924TIP3    H226968   1.966   2.935  12.754  0.2321 -0.9052 -0.1999
  925TIP3   OH226969   4.693   6.696  12.710  0.1056  0.3729  0.3125
  925TIP3    H126970   4.713   6.773  12.657 -0.6029  1.1745  1.1945
  925TIP3    H226971   4.635   6.644  12.655  1.0796  0.1388 -0.5377
  926TIP3   OH226972   7.543   7.579  11.233  0.0849 -0.0299 -0.2004
  926TIP3    H126973   7.534   7.612  11.143 -0.6787 -0.3984 -0.2701
  926TIP3    H226974   7.602   7.505  11.225 -2.2557 -1.9523 -0.9376
  927TIP3   OH226975   0.173   3.246  12.979 -0.8766 -0.0251  0.0422
  927TIP3    H126976   0.231   3.312  12.942 -0.9176  0.3802  0.6753
  927TIP3    H226977   0.221   3.212  13.054 -1.2859  0.0300  0.3353
  928TIP3   OH226978   7.154   1.568  11.742 -0.3465  0.4577  0.0757
  928TIP3    H126979   7.109   1.543  11.661 -0.2794 -0.0013  0.1762
  928TIP3    H226980   7.160   1.664  11.738 -2.5401  0.6619  0.6975
  929TIP3   OH226981   5.987   0.659  12.078  0.2080 -0.0413 -0.1591
  929TIP3    H126982   5.993   0.735  12.019  1.8146 -1.2200 -1.6284
  929TIP3    H226983   5.962   0.587  12.021 -1.5402 -0.6192  1.2641
  930TIP3   OH226984   5.258   0.888  11.543  0.3902 -0.3574 -0.3667
  930TIP3    H126985   5.332   0.865  11.599 -0.6710 -1.5633  0.5841
  930TIP3    H226986   5.261   0.823  11.472 -0.2792 -0.9837  0.1698
  931TIP3   OH226987   2.533   2.440  11.462  0.1086 -0.7816 -0.0541
  931TIP3    H126988   2.492   2.412  11.543  0.1392 -0.2002  0.1668
  931TIP3    H226989   2.511   2.372  11.399  0.1387 -1.2694  0.4564
  932TIP3   OH226990   2.968   3.249  12.873 -0.3726 -0.5181  0.2775
  932TIP3    H126991   2.910   3.273  12.945 -0.5261 -0.6377  0.1950
  932TIP3    H226992   2.928   3.171  12.835  0.4663 -1.2924  0.9502
  933TIP3   OH226993   1.978   5.996  10.735 -0.0262  0.5199 -0.1109
  933TIP3    H126994   1.908   6.061  10.726  0.1148  0.6514 -0.2754
  933TIP3    H226995   1.945   5.919  10.690  0.3566  0.9197 -1.1076
  934TIP3   OH226996   6.122   2.373  12.532  0.1650  0.3396 -0.2220
  934TIP3    H126997   6.073   2.312  12.588 -0.0429  1.8252  1.3000
  934TIP3    H226998   6.211   2.370  12.568 -0.5800  3.5067  2.3058
  935TIP3   OH226999   0.708   2.743  11.023  0.2284  0.1954  0.2635
  935TIP3    H127000   0.654   2.692  11.083  1.3693 -0.0557  1.1236
  935TIP3    H227001   0.654   2.755  10.946 -0.4886 -1.3847  0.4712
  936TIP3   OH227002   1.046   4.371  12.433  0.1762 -0.9375  0.0521
  936TIP3    H127003   1.054   4.455  12.477  0.4937 -0.3488 -1.1067
  936TIP3    H227004   1.136   4.338  12.427  0.3749 -0.1251 -1.8284
  937TIP3   OH227005   0.247   3.800  11.852 -0.2657  0.6769 -0.8118
  937TIP3    H127006   0.304   3.724  11.842 -1.6369 -0.1454 -3.2432
  937TIP3    H227007   0.168   3.766  11.895  0.3984  1.4715  1.1069
  938TIP3   OH227008   4.637   4.340  10.943 -0.3424  0.0196  0.2377
  938TIP3    H127009   4.655   4.341  10.849  1.7781  1.0907  0.5972
  938TIP3    H227010   4.635   4.432  10.968  0.0359 -0.2652  1.3876
  939TIP3   OH227011   4.580   7.399  12.618  0.1973 -0.2003 -0.6616
  939TIP3    H127012   4.651   7.361  12.671  1.8780  2.3606 -0.8703
  939TIP3    H227013   4.509   7.414  12.680  1.5688  1.3464  0.6255
  940TIP3   OH227014   0.760   3.670  11.227 -0.0256 -0.0802 -0.3201
  940TIP3    H127015   0.844   3.659  11.272 -0.8991 -0.1219  1.3686
  940TIP3    H227016   0.730   3.757  11.253 -0.8544 -0.3619 -0.3200
  941TIP3   OH227017   1.750   6.147  10.732  0.0152  0.0381  0.0604
  941TIP3    H127018   1.735   6.208  10.805  1.0942  2.4548 -1.6217
  941TIP3    H227019   1.667   6.146  10.685 -0.8263 -1.8548  1.4178
  942TIP3   OH227020   7.237   1.817  11.074  0.0495 -0.3465 -0.1888
  942TIP3    H127021   7.166   1.864  11.117  0.9814  0.0073  1.0387
  942TIP3    H227022   7.242   1.733  11.121  0.2771 -0.4757 -0.4392
  943TIP3   OH227023   7.375   7.322  11.512  0.3522  0.6403 -0.5458
  943TIP3    H127024   7.403   7.399  11.561  0.9512  0.0781  0.0046
  943TIP3    H227025   7.291   7.298  11.552  0.3160  0.8194 -0.5128
  944TIP3   OH227026   2.587   3.815  12.564  0.6204 -0.2817  0.5282
  944TIP3    H127027   2.632   3.899  12.552 -1.9777  1.0022 -1.3600
  944TIP3    H227028   2.655   3.749  12.550  2.1126  1.5023 -1.3288
  945TIP3   OH227029   5.795   5.612  11.003 -0.1825  0.0546  0.2880
  945TIP3    H127030   5.799   5.613  11.099 -1.8518  1.5721  0.3975
  945TIP3    H227031   5.841   5.692  10.977  0.3838 -0.4209 -0.2057
  946TIP3   OH227032   6.984   0.898  10.347  0.3232  0.1770 -0.1642
  946TIP3    H127033   6.985   0.848  10.265 -0.4403  0.0483 -0.1016
  946TIP3    H227034   7.066   0.875  10.390  0.4444 -0.2387 -0.6087
  947TIP3   OH227035   2.712   4.426  10.916 -0.1795 -0.9063 -0.0059
  947TIP3    H127036   2.798   4.415  10.956 -0.0504 -0.4373 -0.1465
  947TIP3    H227037   2.720   4.506  10.864 -0.9720 -0.3365  0.7205
  948TIP3   OH227038   3.239   2.310  11.404  0.1982 -0.6187  0.0984
  948TIP3    H127039   3.166   2.313  11.466  0.5506  0.0240  0.4815
  948TIP3    H227040   3.313   2.281  11.456  0.2452 -1.1746 -0.2725
  949TIP3   OH227041   6.511   5.539  12.111  0.3431  0.2886 -0.0261
  949TIP3    H127042   6.553   5.610  12.159 -1.1088  1.0242  0.2102
  949TIP3    H227043   6.478   5.581  12.031 -2.8305  0.5848  1.2845
  950TIP3   OH227044   0.352   3.133  11.522  0.1247  0.0699  0.4700
  950TIP3    H127045   0.270   3.172  11.493  0.6373  0.2283 -0.8147
  950TIP3    H227046   0.325   3.061  11.579 -0.9448 -0.4543 -0.6501
  951TIP3   OH227047   3.327   4.181  12.757 -0.4032  0.1972  0.0665
  951TIP3    H127048   3.313   4.194  12.851 -0.3602  0.4044  0.0455
  951TIP3    H227049   3.273   4.106  12.734 -0.3002  0.0564  0.2866
  952TIP3   OH227050   7.055   6.584  12.202  0.2380  0.1275 -0.5153
  952TIP3    H127051   7.150   6.590  12.194  0.4659 -0.2458  1.4464
  952TIP3    H227052   7.029   6.666  12.245 -0.6707  1.3184 -3.1179
  953TIP3   OH227053   3.489   6.401  12.767 -0.5266 -0.7843 -0.2184
  953TIP3    H127054   3.531   6.376  12.849  0.0376 -1.2635 -0.6430
  953TIP3    H227055   3.561   6.416  12.706 -0.8495  1.4038 -0.1434
  954TIP3   OH227056   4.660   5.010  12.707  0.2135 -0.5064  0.4167
  954TIP3    H127057   4.752   5.022  12.686 -0.0360 -0.0696 -0.4721
  954TIP3    H227058   4.645   4.916  12.699  0.4937 -0.5334  0.2107
  955TIP3   OH227059   4.077   0.451  12.297  0.1753 -0.6822 -0.3025
  955TIP3    H127060   4.007   0.413  12.351  0.1409 -4.1595 -2.4783
  955TIP3    H227061   4.157   0.416  12.334  0.4165 -0.3888 -0.5408
  956TIP3   OH227062   3.690   2.456  12.207 -1.0250 -0.0400 -0.0128
  956TIP3    H127063   3.744   2.430  12.133  0.6981  0.7772  0.8928
  956TIP3    H227064   3.600   2.448  12.176 -0.3817 -0.9553 -1.7479
  957TIP3   OH227065   6.661   4.150  11.101 -0.1216  0.0860 -0.1552
  957TIP3    H127066   6.619   4.085  11.157  0.7720 -0.5179 -0.1695
  957TIP3    H227067   6.753   4.122  11.097  0.3221  1.4826  0.0200
  958TIP3   OH227068   5.202   4.220  11.180  1.1851  0.0873  0.2242
  958TIP3    H127069   5.227   4.296  11.233  2.9268  0.8228 -1.5320
  958TIP3    H227070   5.130   4.251  11.125  0.9237  0.0055  0.5132
  959TIP3   OH227071   7.397   0.769   9.952 -0.5855 -0.8043  0.0168
  959TIP3    H127072   7.404   0.738  10.042 -2.5429 -1.6352 -0.0716
  959TIP3    H227073   7.323   0.721   9.915 -2.3024  2.2394 -0.8771
  960TIP3   OH227074   7.283   2.049  10.929  0.9026 -0.4785  0.2972
  960TIP3    H127075   7.266   1.958  10.953  1.8204 -0.8062 -0.2415
  960TIP3    H227076   7.227   2.064  10.853  1.2711 -0.8143 -0.0414
  961TIP3   OH227077   7.257   3.337  12.292 -0.7316  0.5983 -0.4951
  961TIP3    H127078   7.321   3.287  12.240 -1.5838 -0.9919 -0.0813
  961TIP3    H227079   7.288   3.427  12.288  0.8125  0.0634 -1.3800
  962TIP3   OH227080   0.370   3.253  10.624 -0.3387 -0.1416 -0.2740
  962TIP3    H127081   0.288   3.236  10.578 -1.6895  0.8689  1.5993
  962TIP3    H227082   0.342   3.288  10.709  2.0700  1.8136 -0.2066
  963TIP3   OH227083   2.447   4.212  11.402 -0.2582 -0.7988 -0.2212
  963TIP3    H127084   2.377   4.150  11.385 -0.1269 -1.3388  1.0808
  963TIP3    H227085   2.412   4.296  11.374 -1.8476 -0.8805  1.3076
  964TIP3   OH227086   0.732   2.336  10.385  0.0428  0.0485 -0.0346
  964TIP3    H127087   0.643   2.305  10.401 -0.0523  0.4921  0.2898
  964TIP3    H227088   0.761   2.284  10.310 -1.7995  2.4143 -2.5941
  965TIP3   OH227089   7.276   1.348  11.118 -0.7311  0.2142  0.1166
  965TIP3    H127090   7.265   1.326  11.026  1.0814  0.9518 -0.3242
  965TIP3    H227091   7.250   1.440  11.124 -0.4222  0.2969  0.2331
  966TIP3   OH227092   3.380   7.586  11.991  0.0728  0.5900  0.4182
  966TIP3    H127093   3.424   7.505  11.965  0.3111  0.4730  1.1656
  966TIP3    H227094   3.287   7.571  11.972  0.3063  0.7398 -0.9230
  967TIP3   OH227095   6.518   2.239  11.370 -0.2612  0.0780 -0.8180
  967TIP3    H127096   6.556   2.285  11.445 -0.6793 -0.3630 -0.3244
  967TIP3    H227097   6.426   2.226  11.394 -1.0241  1.9849 -2.3924
  968TIP3   OH227098   6.948   5.902  12.373 -0.3686  0.2774  0.5153
  968TIP3    H127099   6.881   5.961  12.339 -2.5637 -1.6738  1.1725
  968TIP3    H227100   6.942   5.825  12.316  2.1386  0.4421 -0.0845
  969TIP3   OH227101   7.597   3.617  12.691 -0.3804  0.2979  0.3251
  969TIP3    H127102   7.569   3.525  12.683 -0.0862  0.2788 -0.5967
  969TIP3    H227103   7.691   3.612  12.703 -0.3485  0.4799  0.1571
  970TIP3   OH227104   5.459   5.990  12.319  0.0069 -0.4641 -0.3663
  970TIP3    H127105   5.463   5.984  12.224 -2.9748  0.7877 -0.7059
  970TIP3    H227106   5.518   6.062  12.341  0.4170 -0.4923 -1.3266
  971TIP3   OH227107   5.567   7.253  11.782  0.2725 -0.1411 -0.1143
  971TIP3    H127108   5.520   7.187  11.731  1.0802  0.5016 -1.7897
  971TIP3    H227109   5.514   7.333  11.772  0.0618 -0.1796  0.6694
  972TIP3   OH227110   2.450   2.568  12.126 -0.6218 -0.0382  0.3581
  972TIP3    H127111   2.377   2.509  12.143 -0.8298 -0.3629 -1.4133
  972TIP3    H227112   2.512   2.514  12.075 -0.3355  0.9583 -0.3798
  973TIP3   OH227113   6.527   7.423  10.787  0.2708 -0.4915  0.4186
  973TIP3    H127114   6.600   7.484  10.796  0.7469 -1.1222  0.9208
  973TIP3    H227115   6.503   7.428  10.694  0.6427  0.0718  0.3479
  974TIP3   OH227116   2.247   4.932  12.032  0.0964 -0.5487  0.0286
  974TIP3    H127117   2.270   4.839  12.031 -1.4536 -0.9767 -1.0963
  974TIP3    H227118   2.261   4.959  12.122  0.1094 -2.0133  0.5015
  975TIP3   OH227119   1.989   0.500  11.492  0.3055  0.2275 -0.3862
  975TIP3    H127120   1.983   0.484  11.587  1.1256  0.2664 -0.3201
  975TIP3    H227121   1.993   0.412  11.454  1.9859  0.2027 -0.2252
  976TIP3   OH227122   7.197   0.565   9.878 -0.2070 -0.1889 -0.1607
  976TIP3    H127123   7.105   0.578   9.901 -0.6489 -0.3572 -1.7287
  976TIP3    H227124   7.195   0.510   9.800  1.2283 -0.1330 -0.2681
  977TIP3   OH227125   0.393   0.093  10.971  0.1092 -0.0938 -0.0776
  977TIP3    H127126   0.452   0.070  11.043  0.6342  1.0254 -0.1272
  977TIP3    H227127   0.412   0.185  10.953  0.2479 -0.4351 -1.8840
  978TIP3   OH227128   7.676   3.716  11.036 -0.0176 -0.1529  0.3285
  978TIP3    H127129   7.620   3.653  11.082 -0.6072 -0.3436 -0.6066
  978TIP3    H227130   7.650   3.801  11.071 -0.3456 -0.3080  0.4663
  979TIP3   OH227131   3.755   4.850  11.859 -0.2224 -0.1791 -0.2887
  979TIP3    H127132   3.813   4.873  11.786 -0.5748  3.2971  0.3726
  979TIP3    H227133   3.808   4.864  11.937 -1.0039 -0.1169  0.2324
  980TIP3   OH227134   2.464   0.720  12.171  0.7160  0.4506 -0.1011
  980TIP3    H127135   2.515   0.703  12.250  1.0740  0.0925 -0.4109
  980TIP3    H227136   2.437   0.634  12.141 -0.8163  0.6653  0.5347
  981TIP3   OH227137   1.101   2.659  10.079 -0.1421 -0.2398  0.4464
  981TIP3    H127138   1.043   2.684  10.150 -1.5213 -0.2045 -0.6416
  981TIP3    H227139   1.048   2.603  10.023  1.3164 -1.3519  0.1202
  982TIP3   OH227140   0.578   7.046  10.942 -0.5262 -0.7072 -0.5012
  982TIP3    H127141   0.541   7.088  11.019 -2.4354  1.4857 -2.4284
  982TIP3    H227142   0.501   7.026  10.887  0.8549  0.8718 -3.2343
  983TIP3   OH227143   5.574   3.249  11.641 -0.0441  0.5060 -0.0342
  983TIP3    H127144   5.567   3.231  11.735  1.9017  0.9917  0.2373
  983TIP3    H227145   5.625   3.330  11.636  1.6411 -0.5697 -1.5304
  984TIP3   OH227146   1.245   2.188  13.073  0.0015 -0.4439  0.1034
  984TIP3    H127147   1.152   2.199  13.054 -0.1109 -0.6723  0.5019
  984TIP3    H227148   1.251   2.196  13.168  0.2039 -1.6403  0.2077
  985TIP3   OH227149   0.446   7.294  12.125  0.0090 -0.0892 -0.8329
  985TIP3    H127150   0.356   7.303  12.095 -1.6887 -0.6193  3.4140
  985TIP3    H227151   0.474   7.208  12.092 -1.2554 -0.2149 -1.6341
  986TIP3   OH227152   0.493   2.550  11.436  0.6652 -0.7352  0.6232
  986TIP3    H127153   0.454   2.522  11.519  0.6879 -1.5040  0.3852
  986TIP3    H227154   0.491   2.645  11.440  1.3420 -0.7439  1.8238
  987TIP3   OH227155   6.676   3.372  12.193  0.6156  0.0196 -0.4813
  987TIP3    H127156   6.747   3.340  12.248  0.6187 -0.4487 -0.7527
  987TIP3    H227157   6.674   3.466  12.209  0.3546 -0.1614  0.6180
  988TIP3   OH227158   6.675   0.874  10.771 -0.3336  0.0982 -0.1722
  988TIP3    H127159   6.648   0.808  10.707  2.4825 -1.9105  0.5475
  988TIP3    H227160   6.684   0.826  10.853 -0.7457  1.9766  1.0402
  989TIP3   OH227161   3.997   5.603  10.971 -0.0099  0.3598  0.1639
  989TIP3    H127162   3.969   5.512  10.961 -1.3591  0.8260 -0.5322
  989TIP3    H227163   4.032   5.627  10.886 -0.9625  0.9138 -0.0765
  990TIP3   OH227164   0.470   3.365  11.660  1.0338  0.5332  0.4580
  990TIP3    H127165   0.433   3.289  11.614  0.3246  0.8408  0.5204
  990TIP3    H227166   0.563   3.363  11.636  0.7352  0.5377 -0.8006
  991TIP3   OH227167   5.337   3.708  10.190 -0.0028  0.1154 -0.0206
  991TIP3    H127168   5.404   3.653  10.150 -0.2811  0.5086 -1.0650
  991TIP3    H227169   5.254   3.666  10.166 -0.1900  0.6132 -0.2618
  992TIP3   OH227170   4.248   4.538  11.949  0.2185 -0.1933 -0.1851
  992TIP3    H127171   4.297   4.456  11.939  3.1725  0.7907  3.6680
  992TIP3    H227172   4.307   4.605  11.914  0.6254  0.7619  2.1348
  993TIP3   OH227173   1.959   6.239  10.470 -0.1676  0.6328 -0.1427
  993TIP3    H127174   1.965   6.180  10.546 -0.9644 -0.4876 -0.9204
  993TIP3    H227175   1.881   6.211  10.423  1.5488 -0.3349 -2.6894
  994TIP3   OH227176   0.108   3.305  12.467 -0.3153  0.4819  0.5224
  994TIP3    H127177   0.113   3.309  12.371 -1.2332 -1.7876  0.3077
  994TIP3    H227178   0.187   3.350  12.497 -0.3428  1.8203 -1.2600
  995TIP3   OH227179   3.626   1.922  11.579 -0.5502  0.0973  0.2144
  995TIP3    H127180   3.533   1.900  11.576 -0.0704 -2.0110 -1.7874
  995TIP3    H227181   3.637   1.991  11.513 -0.7488  0.8028  0.8959
  996TIP3   OH227182   7.475   5.102  10.784  0.4472  0.1369 -0.4277
  996TIP3    H127183   7.466   5.120  10.878 -0.7356 -0.6770 -0.3642
  996TIP3    H227184   7.414   5.163  10.742 -1.6544 -1.8078 -0.3844
  997TIP3   OH227185   5.703   6.847  11.899 -0.1395 -0.5542  0.2802
  997TIP3    H127186   5.642   6.796  11.846 -0.2724 -0.7302  0.5989
  997TIP3    H227187   5.648   6.907  11.948 -0.1115 -1.0652  0.9584
  998TIP3   OH227188   2.383   3.334  12.163 -1.0728 -0.0798  0.5064
  998TIP3    H127189   2.308   3.285  12.197 -0.0287 -0.5828  2.1619
  998TIP3    H227190   2.350   3.424  12.153 -1.3341  0.2169  3.3396
  999TIP3   OH227191   7.342   4.285  12.076 -0.1010  0.1648  0.0512
  999TIP3    H127192   7.256   4.304  12.038 -0.4903  0.1131  0.8862
  999TIP3    H227193   7.327   4.210  12.133  0.6222 -0.2083 -0.2370
 1000TIP3   OH227194   3.135   7.525  11.825  1.2776 -0.3341 -0.5787
 1000TIP3    H127195   3.186   7.498  11.749  1.1948  0.3408 -0.8727
 1000TIP3    H227196   3.076   7.592  11.793  0.3528 -0.9396 -0.1902
 1001TIP3   OH227197   5.306   7.010  11.860 -0.6330  0.4439 -0.0560
 1001TIP3    H127198   5.214   6.988  11.847 -0.3899 -1.4455  0.9793
 1001TIP3    H227199   5.339   7.027  11.772 -1.9488  1.1592 -0.4399
 1002TIP3   OH227200   2.916   5.929  12.393  0.1004 -0.1909  0.0693
 1002TIP3    H127201   2.930   5.963  12.304  1.6486  0.7349  0.6207
 1002TIP3    H227202   2.822   5.940  12.408  0.0117  0.8130 -1.0050
 1003TIP3   OH227203   0.100   3.942  10.852  0.1350  0.8519 -0.0556
 1003TIP3    H127204   0.074   3.860  10.894  0.4541  1.7866  2.1368
 1003TIP3    H227205   0.133   3.916  10.766  1.3188 -1.4490  1.0025
 1004TIP3   OH227206   4.244   2.956  11.417 -0.3673  0.7494 -0.8006
 1004TIP3    H127207   4.190   2.965  11.339  1.2783 -0.2247 -2.1355
 1004TIP3    H227208   4.218   2.871  11.454 -0.5123  0.7846 -0.8228
 1005TIP3   OH227209   5.100   1.178  12.533  0.2300 -0.2346  0.2091
 1005TIP3    H127210   5.016   1.220  12.550  0.5832  1.4782 -1.8482
 1005TIP3    H227211   5.164   1.234  12.576  0.4628 -0.5621  0.2921
 1006TIP3   OH227212   6.070   4.259  11.075 -0.2379 -0.1996  0.0318
 1006TIP3    H127213   6.067   4.325  11.006  1.2945 -0.7222 -0.5844
 1006TIP3    H227214   6.124   4.297  11.144 -0.2371 -0.3948  0.1415
 1007TIP3   OH227215   2.572   2.706  11.902  0.1617 -0.0967  0.1807
 1007TIP3    H127216   2.537   2.675  11.986  3.2671 -1.8827  0.9944
 1007TIP3    H227217   2.627   2.781  11.926 -1.0763  1.1588 -0.7281
 1008TIP3   OH227218   3.494   4.078  11.247 -0.0532  0.2852 -0.7563
 1008TIP3    H127219   3.454   4.070  11.160 -0.5054  1.3170 -0.6597
 1008TIP3    H227220   3.431   4.037  11.306  0.4903 -0.8737 -0.9659
 1009TIP3   OH227221   2.958   4.411   9.935  0.0485 -0.7028  0.2054
 1009TIP3    H127222   2.919   4.355  10.002  0.3929 -0.0738  0.9463
 1009TIP3    H227223   2.937   4.368   9.852  0.2978 -1.9063  0.7539
 1010TIP3   OH227224   5.442   0.069  10.514  0.0327 -0.1666 -0.6438
 1010TIP3    H127225   5.400   0.076  10.428  0.0102  1.2118 -0.5370
 1010TIP3    H227226   5.534   0.088  10.497 -0.1594  1.2834 -0.2140
 1011TIP3   OH227227   5.608   0.908  10.264 -0.1321  0.0935 -0.4615
 1011TIP3    H127228   5.518   0.905  10.296  0.3503 -0.4450  0.9038
 1011TIP3    H227229   5.599   0.900  10.169 -1.4142 -2.6762 -0.2096
 1012TIP3   OH227230   4.741   7.285  10.830 -0.0653  0.0365 -0.1822
 1012TIP3    H127231   4.761   7.199  10.795 -0.1529 -0.2451  0.4348
 1012TIP3    H227232   4.668   7.317  10.776  0.1992 -0.1222 -0.6368
 1013TIP3   OH227233   7.680   5.558  11.875  0.7762  0.4162  0.4506
 1013TIP3    H127234   7.657   5.531  11.786  0.1670 -1.3469  1.0951
 1013TIP3    H227235   7.768   5.594  11.867  0.3457  1.2471 -1.0078
 1014TIP3   OH227236   7.654   0.094  12.332  0.5014  0.1434  0.5073
 1014TIP3    H127237   7.675   0.008  12.296  0.8023  0.4751 -0.1213
 1014TIP3    H227238   7.699   0.156  12.275 -0.5886  0.7761  0.2943
 1015TIP3   OH227239   7.084   6.422  11.400 -0.5456 -0.0997  0.7519
 1015TIP3    H127240   7.165   6.378  11.426  0.2294 -0.8863 -2.5231
 1015TIP3    H227241   7.015   6.360  11.425  0.2577 -1.5267 -0.3561
 1016TIP3   OH227242   1.762   6.542  11.845  0.2784 -0.3187 -0.0390
 1016TIP3    H127243   1.700   6.492  11.898 -0.9426 -0.1002 -1.2058
 1016TIP3    H227244   1.767   6.495  11.762  0.8553  0.2546 -0.3415
 1017TIP3   OH227245   3.633   5.100  11.365 -0.1350  0.7429  0.7887
 1017TIP3    H127246   3.728   5.102  11.371  0.0856  0.5628 -1.6115
 1017TIP3    H227247   3.608   5.190  11.342 -0.3411  0.4174 -0.3427
 1018TIP3   OH227248   7.271   6.474  10.308  0.1502 -0.4675  0.0295
 1018TIP3    H127249   7.285   6.518  10.225 -2.3436  2.7388  1.0859
 1018TIP3    H227250   7.198   6.414  10.292 -0.6909  0.5470 -0.0377
 1019TIP3   OH227251   1.858   3.246  12.662 -0.4641  0.5662  0.2388
 1019TIP3    H127252   1.777   3.218  12.619 -1.2427  2.5244  0.3198
 1019TIP3    H227253   1.912   3.167  12.666 -1.8396 -0.4940 -1.0066
 1020TIP3   OH227254   2.785   4.155  11.954 -0.2791 -0.4764 -0.0416
 1020TIP3    H127255   2.835   4.157  11.873 -2.7878  0.1352 -1.6699
 1020TIP3    H227256   2.742   4.070  11.954 -0.3010 -0.4747  0.6597
 1021TIP3   OH227257   6.389   0.781  12.632 -0.2207  0.3138 -0.1440
 1021TIP3    H127258   6.478   0.763  12.602 -0.2506 -1.1914  0.6036
 1021TIP3    H227259   6.381   0.876  12.626  1.7835  0.5772  0.7200
 1022TIP3   OH227260   5.396   2.240  11.439  0.4243 -0.2537  0.2894
 1022TIP3    H127261   5.354   2.191  11.510  0.4851  0.3249  0.7326
 1022TIP3    H227262   5.343   2.220  11.362  0.2265 -0.7152  0.5370
 1023TIP3   OH227263   1.274   7.647  11.042  0.0872 -0.1466 -0.1299
 1023TIP3    H127264   1.284   7.652  11.137  1.8962 -0.9024 -0.2401
 1023TIP3    H227265   1.233   7.562  11.027  2.0158 -1.1258 -0.1134
 1024TIP3   OH227266   2.596   3.278  11.727 -0.3986 -0.4693  0.3077
 1024TIP3    H127267   2.665   3.317  11.673 -1.4805  2.2934  0.7358
 1024TIP3    H227268   2.538   3.351  11.748 -1.8226 -2.0840  2.4778
 1025TIP3   OH227269   0.648   4.287   9.884  0.0374  0.1705  0.1462
 1025TIP3    H127270   0.611   4.373   9.905  1.1515  0.7344 -0.1519
 1025TIP3    H227271   0.723   4.306   9.828  3.6783 -0.5704  4.2889
 1026TIP3   OH227272   3.167   3.449  10.877 -0.5383  0.4960 -0.4106
 1026TIP3    H127273   3.256   3.460  10.841 -0.7070  3.7006 -0.1232
 1026TIP3    H227274   3.132   3.538  10.882 -3.2733 -0.5427  0.8484
 1027TIP3   OH227275   1.534   2.208  12.697  0.3070 -0.1885  0.0816
 1027TIP3    H127276   1.450   2.227  12.739 -0.3510  0.3902 -1.4383
 1027TIP3    H227277   1.518   2.131  12.643 -0.0056  1.3685 -2.1914
 1028TIP3   OH227278   4.568   6.187  12.993  0.0411  0.0190  0.1532
 1028TIP3    H127279   4.657   6.206  13.024  0.2226  2.6210 -1.6683
 1028TIP3    H227280   4.571   6.095  12.966  1.7146 -0.3798  1.5279
 1029TIP3   OH227281   6.089   1.416  10.844  0.9157  0.4853  0.0869
 1029TIP3    H127282   6.084   1.400  10.749 -2.1094  0.3079  0.2020
 1029TIP3    H227283   6.065   1.508  10.854 -1.4550 -0.1574  0.8103
 1030TIP3   OH227284   5.464   6.372  12.136  0.6610  0.6465 -0.0543
 1030TIP3    H127285   5.441   6.344  12.224  1.6035  1.3359  0.4312
 1030TIP3    H227286   5.391   6.428  12.109  0.8986  1.3655  0.7514
 1031TIP3   OH227287   2.222   3.176  12.307 -0.2236  0.0026 -0.0522
 1031TIP3    H127288   2.158   3.131  12.251 -0.7459  1.0371 -0.3100
 1031TIP3    H227289   2.170   3.239  12.357  0.2213 -0.9385  1.6805
 1032TIP3   OH227290   6.518   6.520  11.920 -0.3310  0.0858 -0.0353
 1032TIP3    H127291   6.486   6.477  11.999  1.3551  0.4881  0.9049
 1032TIP3    H227292   6.465   6.600  11.913 -0.3030  0.1886  0.8476
 1033TIP3   OH227293   1.296   7.376  10.977  0.0489  0.5368 -0.1972
 1033TIP3    H127294   1.261   7.367  10.888  1.2467  0.1284 -0.6566
 1033TIP3    H227295   1.365   7.310  10.982  0.2850  0.8450  0.9026
 1034TIP3   OH227296   6.275   3.438  12.220  0.3808 -0.1134  0.6249
 1034TIP3    H127297   6.340   3.469  12.157  2.8861 -3.1947  1.4171
 1034TIP3    H227298   6.306   3.350  12.244 -3.2736 -1.1195  2.2969
 1035TIP3   OH227299   1.316   4.490  10.338 -0.0089  0.5611  0.0201
 1035TIP3    H127300   1.290   4.582  10.349 -0.4459  0.5699 -0.9386
 1035TIP3    H227301   1.411   4.491  10.348  0.1955  1.4190 -1.6364
 1036TIP3   OH227302   2.327   6.130  12.715 -0.1674  0.3845  0.2100
 1036TIP3    H127303   2.371   6.165  12.638 -0.5162 -0.7477 -0.5319
 1036TIP3    H227304   2.383   6.057  12.743 -0.2806  0.4996  0.7434
 1037TIP3   OH227305   4.178   0.404  11.655 -0.0140  0.1566  0.1504
 1037TIP3    H127306   4.182   0.472  11.588 -0.7002  0.8996  0.8569
 1037TIP3    H227307   4.262   0.358  11.647  0.4223  1.0282 -0.3879
 1038TIP3   OH227308   6.425   2.172  12.736  0.4000  0.3098 -0.0675
 1038TIP3    H127309   6.433   2.128  12.652  1.9236  1.7745 -0.7403
 1038TIP3    H227310   6.347   2.133  12.776 -0.1276 -0.7036 -1.9661
 1039TIP3   OH227311   7.023   3.047  11.663  0.0853 -0.3323 -0.0711
 1039TIP3    H127312   6.954   3.111  11.649 -0.0383 -0.3725  0.3462
 1039TIP3    H227313   7.069   3.078  11.741  0.4055 -0.4205 -0.2226
 1040TIP3   OH227314   1.254   0.846  12.054 -0.4021  0.3995 -0.5472
 1040TIP3    H127315   1.270   0.858  12.147 -0.1150  1.1945 -0.6896
 1040TIP3    H227316   1.301   0.765  12.032 -0.5577  0.1517  0.0153
 1041TIP3   OH227317   6.956   5.678  10.395 -0.5613 -0.3840 -0.3381
 1041TIP3    H127318   6.954   5.598  10.341 -0.0803 -0.1833 -0.6514
 1041TIP3    H227319   6.866   5.711  10.390 -0.9805 -1.3273  0.4387
 1042TIP3   OH227320   6.838   6.614  12.688 -0.6637 -0.2316 -0.0653
 1042TIP3    H127321   6.868   6.589  12.600  0.4993  0.8083  0.0160
 1042TIP3    H227322   6.779   6.688  12.673  0.6990  0.9239  0.1035
 1043TIP3   OH227323   6.689   4.358  12.557  0.5451  0.4266  0.1132
 1043TIP3    H127324   6.669   4.341  12.649  0.1294  0.5714  0.0501
 1043TIP3    H227325   6.784   4.363  12.554  0.5132  2.7770  0.9539
 1044TIP3   OH227326   1.845   0.117  11.844  0.0165  0.7373 -0.2279
 1044TIP3    H127327   1.823   0.130  11.752 -0.2519  0.3406 -0.2199
 1044TIP3    H227328   1.766   0.142  11.892 -1.1888 -2.5291 -0.2899
 1045TIP3   OH227329   0.782   7.496  11.641  0.5453  0.7784  0.1905
 1045TIP3    H127330   0.813   7.528  11.725 -0.5958  1.1780  0.4733
 1045TIP3    H227331   0.721   7.426  11.664  1.4639 -0.2349 -0.3645
 1046TIP3   OH227332   4.742   7.525  12.235 -0.2575  0.1726 -0.0750
 1046TIP3    H127333   4.694   7.447  12.264 -1.2454  0.0921 -1.8120
 1046TIP3    H227334   4.755   7.512  12.141  0.7342  1.5048 -0.1498
 1047TIP3   OH227335   2.563   6.977  12.425  0.0839  1.1654 -0.5946
 1047TIP3    H127336   2.557   7.058  12.374 -1.2279  0.6566 -1.2979
 1047TIP3    H227337   2.495   6.985  12.492 -1.8427 -0.3645 -2.2356
 1048TIP3   OH227338   1.008   4.354  11.193 -0.0028  0.4876  0.3901
 1048TIP3    H127339   1.085   4.306  11.163 -0.3609 -0.6078  1.1404
 1048TIP3    H227340   1.005   4.339  11.287 -2.9695 -2.4277  0.0370
 1049TIP3   OH227341   2.078   0.071  11.997  0.3945 -0.5650 -0.2580
 1049TIP3    H127342   2.143   0.044  11.933  0.0386 -0.7000 -0.5705
 1049TIP3    H227343   1.998   0.086  11.946  0.9918  2.8582 -0.4086
 1050TIP3   OH227344   7.380   1.656  12.037 -0.3389  0.1036  0.0991
 1050TIP3    H127345   7.461   1.620  12.075  0.5540  0.8981 -0.9981
 1050TIP3    H227346   7.319   1.582  12.039  1.2702 -1.3683 -1.5765
 1051TIP3   OH227347   2.373   4.660  12.063  0.1918  0.3051 -0.4311
 1051TIP3    H127348   2.455   4.700  12.035  0.0486  0.9433  0.0452
 1051TIP3    H227349   2.383   4.647  12.157 -0.1560  0.1606 -0.4131
 1052TIP3   OH227350   7.319   6.745  12.507 -0.0170  0.2197  0.0332
 1052TIP3    H127351   7.242   6.689  12.519 -1.1214  1.6486 -0.1091
 1052TIP3    H227352   7.367   6.704  12.435 -1.1340 -0.1974 -0.5064
 1053TIP3   OH227353   1.096   4.795  10.024 -0.1636 -0.2712  0.3797
 1053TIP3    H127354   1.059   4.881  10.008 -0.4143  0.0465  2.4460
 1053TIP3    H227355   1.176   4.812  10.074  2.0139 -1.0422 -2.4860
 1054TIP3   OH227356   2.719   6.766  12.551 -0.1362  0.1787 -0.1361
 1054TIP3    H127357   2.691   6.852  12.519  2.4897  1.1619 -0.0559
 1054TIP3    H227358   2.763   6.785  12.634  0.1704 -1.2882  0.0530
 1055TIP3   OH227359   2.052   0.800  11.519 -0.8257 -0.1747  0.5661
 1055TIP3    H127360   1.997   0.722  11.505 -1.1995  0.3725 -1.2791
 1055TIP3    H227361   2.141   0.769  11.505 -0.9623 -0.3151 -0.0324
 1056TIP3   OH227362   5.283   0.658  12.405  0.2904  0.1243 -0.4896
 1056TIP3    H127363   5.241   0.653  12.491  0.3253 -1.3882 -0.5362
 1056TIP3    H227364   5.365   0.610  12.415  1.2389  1.5987 -0.8600
 1057TIP3   OH227365   2.433   5.414  11.797 -0.3624  0.0474  0.0983
 1057TIP3    H127366   2.445   5.336  11.851  2.1788 -2.0880 -3.1483
 1057TIP3    H227367   2.448   5.487  11.858 -0.7929 -1.9871  2.8644
 1058TIP3   OH227368   3.466   5.264  12.174  0.6976  0.3432  0.0964
 1058TIP3    H127369   3.500   5.198  12.233 -0.7491 -0.8054 -0.2943
 1058TIP3    H227370   3.412   5.321  12.229 -0.8128 -0.8442 -0.0988
 1059TIP3   OH227371   6.650   1.627  11.554 -0.6438 -0.1940  0.3410
 1059TIP3    H127372   6.671   1.552  11.610  0.5257 -1.1741 -1.3498
 1059TIP3    H227373   6.581   1.596  11.496  0.0620 -0.0721 -0.5762
 1060TIP3   OH227374   0.262   3.698  12.242 -0.4700 -0.1309  0.3083
 1060TIP3    H127375   0.290   3.775  12.192  0.1943 -0.9061 -0.5693
 1060TIP3    H227376   0.269   3.725  12.333  0.5612  0.5972  0.0429
 1061TIP3   OH227377   5.313   6.255  11.554  0.1273  0.0586 -0.4880
 1061TIP3    H127378   5.316   6.205  11.636 -0.1877 -1.7327 -1.5140
 1061TIP3    H227379   5.306   6.346  11.582 -0.9956 -0.5661  1.4677
 1062TIP3   OH227380   3.090   4.041  11.006 -0.1012  0.0155 -0.3320
 1062TIP3    H127381   3.034   4.018  11.081 -0.0907  1.0626  0.0209
 1062TIP3    H227382   3.030   4.058  10.935 -0.2327  0.7556 -0.0593
 1063TIP3   OH227383   7.046   7.531  11.586  0.6077 -0.2480 -0.2214
 1063TIP3    H127384   7.088   7.484  11.658 -1.0081 -1.4073  0.0208
 1063TIP3    H227385   7.118   7.569  11.536  1.8401 -0.8469  1.0437
 1064TIP3   OH227386   7.418   1.477  11.545 -0.1049  0.5648 -0.3201
 1064TIP3    H127387   7.352   1.532  11.588  1.1369 -0.0206  2.5360
 1064TIP3    H227388   7.498   1.529  11.547  0.6603 -0.6193  0.7719
 1065TIP3   OH227389   5.846   1.713  12.386  0.0541 -0.1455 -0.0557
 1065TIP3    H127390   5.897   1.787  12.419 -0.0800 -0.8199  1.7999
 1065TIP3    H227391   5.769   1.710  12.443 -1.3181 -0.0969 -1.8051
 1066TIP3   OH227392   5.890   7.312  10.957 -0.3537 -0.9612 -0.4760
 1066TIP3    H127393   5.882   7.340  10.866 -0.3932 -2.9331 -1.1403
 1066TIP3    H227394   5.869   7.218  10.955 -0.8356 -0.9628  1.6465
 1067TIP3   OH227395   4.847   3.783  10.679  0.5709 -0.2239 -0.2342
 1067TIP3    H127396   4.807   3.751  10.598 -0.4583  1.1396 -0.2993
 1067TIP3    H227397   4.856   3.877  10.666  3.4169 -0.3654 -0.0179
 1068TIP3   OH227398   0.517   4.668  11.641  0.2948 -0.0085  0.4518
 1068TIP3    H127399   0.608   4.648  11.618  0.3676  0.3542  0.4141
 1068TIP3    H227400   0.496   4.606  11.711  0.0681 -1.1348 -0.5829
 1069TIP3   OH227401   0.543   0.877   9.877 -0.4384  0.1815  0.2492
 1069TIP3    H127402   0.482   0.938   9.834  1.2080  0.4956 -1.7561
 1069TIP3    H227403   0.608   0.933   9.919 -0.0733 -0.1882  0.1802
 1070TIP3   OH227404   0.660   1.297  10.440 -0.4986 -0.7410 -0.4762
 1070TIP3    H127405   0.624   1.285  10.352 -2.3782 -1.7149  0.3706
 1070TIP3    H227406   0.621   1.227  10.492  1.4538 -0.8799  0.9007
 1071TIP3   OH227407   5.826   4.213  10.974 -0.2822 -0.1179  0.1952
 1071TIP3    H127408   5.900   4.235  11.030 -0.2256  0.8851 -0.2488
 1071TIP3    H227409   5.865   4.165  10.901 -0.0278  0.5879 -0.1440
 1072TIP3   OH227410   4.004   4.877  11.246 -0.1022  0.3568  0.0234
 1072TIP3    H127411   3.932   4.827  11.284  1.5069 -0.0323  2.8527
 1072TIP3    H227412   4.049   4.815  11.189  0.0117 -0.5282  1.0293
 1073TIP3   OH227413   0.954   2.072  10.956 -0.0504 -0.1385  0.2681
 1073TIP3    H127414   0.860   2.054  10.962 -0.1722  0.9228  2.5819
 1073TIP3    H227415   0.976   2.113  11.040  2.5055 -0.4084 -0.1939
 1074TIP3   OH227416   3.506   4.769  10.985 -0.9644 -0.0601  0.2007
 1074TIP3    H127417   3.458   4.695  11.021  0.1725 -0.3849  1.1120
 1074TIP3    H227418   3.501   4.836  11.052  2.0743 -1.0410  1.5915
 1075TIP3   OH227419   2.598   0.029  11.070  0.1463  0.7451 -0.0160
 1075TIP3    H127420   2.550  -0.037  11.019  1.3849  0.1453 -0.4384
 1075TIP3    H227421   2.631   0.090  11.005  2.5583 -0.5515 -0.1014
 1076TIP3   OH227422   0.371   5.973  10.525 -0.0026  0.3924  0.3303
 1076TIP3    H127423   0.426   6.018  10.590  0.5574 -0.8844  0.7889
 1076TIP3    H227424   0.293   5.948  10.574  0.7038 -1.1554  0.7499
 1077TIP3   OH227425   2.758   6.123  12.047  0.5514  0.0583 -0.0595
 1077TIP3    H127426   2.709   6.041  12.051  2.2294 -0.9971 -0.0818
 1077TIP3    H227427   2.714   6.180  12.109 -0.9198 -0.6911 -0.3551
 1078TIP3   OH227428   6.867   5.516  11.208  0.1040  0.8298  0.0933
 1078TIP3    H127429   6.942   5.456  11.203 -1.1649 -0.9659  1.3163
 1078TIP3    H227430   6.798   5.471  11.159 -0.9950  1.0913  1.3598
 1079TIP3   OH227431   2.425   5.131  12.550  0.1212  0.1517 -0.3077
 1079TIP3    H127432   2.521   5.130  12.541  0.2103  1.9072  0.0435
 1079TIP3    H227433   2.395   5.185  12.477 -0.5830 -0.1648 -0.2587
 1080TIP3   OH227434   6.506   2.438  11.811 -0.0367  0.1476  0.0112
 1080TIP3    H127435   6.503   2.478  11.898 -0.4174  0.4395 -0.1288
 1080TIP3    H227436   6.449   2.494  11.757  0.4846  0.1857 -0.5141
 1081TIP3   OH227437   2.450   5.456  11.047 -0.3029 -0.2301  0.0495
 1081TIP3    H127438   2.426   5.417  11.131  0.7884 -0.8285  0.1047
 1081TIP3    H227439   2.445   5.383  10.985  0.5789 -0.1983 -0.0745
 1082TIP3   OH227440   6.570   1.101  11.343 -0.0010  0.4356 -0.5166
 1082TIP3    H127441   6.476   1.123  11.348 -0.9406 -2.8522 -1.4288
 1082TIP3    H227442   6.578   1.019  11.392  2.4064  0.5751 -0.5880
 1083TIP3   OH227443   5.553   6.415  12.811  0.1843  0.0255  0.1285
 1083TIP3    H127444   5.484   6.370  12.763  2.3296 -3.5987 -0.0179
 1083TIP3    H227445   5.508   6.464  12.880 -2.5459 -0.9751 -0.8335
 1084TIP3   OH227446   1.852   6.953  10.591  0.8374 -0.0876  0.4841
 1084TIP3    H127447   1.919   7.018  10.570 -0.2966  0.8942 -0.1759
 1084TIP3    H227448   1.892   6.900  10.660  1.9322  1.0749  0.7847
 1085TIP3   OH227449   6.493   4.509  11.380 -0.2360 -0.1041 -0.0090
 1085TIP3    H127450   6.502   4.573  11.450  0.3392  0.3570 -0.4925
 1085TIP3    H227451   6.583   4.480  11.362 -0.3290  0.0770 -0.8122
 1086TIP3   OH227452   1.205   2.236  11.591  0.0000  0.3713  0.2179
 1086TIP3    H127453   1.292   2.266  11.567  0.9031 -0.5554  2.1361
 1086TIP3    H227454   1.194   2.265  11.681 -1.5774  0.2174  0.1017
 1087TIP3   OH227455   2.924   6.384  11.931  0.0095 -0.3032 -0.2417
 1087TIP3    H127456   2.915   6.477  11.953 -0.9112 -0.3171 -0.5239
 1087TIP3    H227457   2.901   6.338  12.011 -0.3762 -0.2987 -0.3478
 1088TIP3   OH227458   5.077   5.182  11.926  0.4718  0.1505  0.0569
 1088TIP3    H127459   5.084   5.181  11.830  0.9325  0.8510  0.0766
 1088TIP3    H227460   5.168   5.182  11.956  0.3275  0.6534  0.4854
 1089TIP3   OH227461   0.543   4.652  11.336  0.1220 -0.2759  0.2286
 1089TIP3    H127462   0.545   4.740  11.299  1.4793 -0.9238 -1.3479
 1089TIP3    H227463   0.615   4.651  11.399  0.7384 -0.5213 -0.4623
 1090TIP3   OH227464   6.982   4.874  11.976  0.1657 -0.0114  0.3374
 1090TIP3    H127465   7.049   4.807  11.990  0.3246 -0.3222 -1.6066
 1090TIP3    H227466   7.004   4.913  11.891 -0.7539  1.5438  0.7594
 1091TIP3   OH227467   1.531   0.389  11.747 -0.5935  0.1386  0.1040
 1091TIP3    H127468   1.457   0.374  11.807 -0.4043  1.0516  0.5815
 1091TIP3    H227469   1.577   0.464  11.784 -0.6224  0.9060 -1.3417
 1092TIP3   OH227470   0.767   5.907  10.764 -0.3908 -0.6307  0.4776
 1092TIP3    H127471   0.790   5.939  10.852  1.7702 -0.2077 -0.1737
 1092TIP3    H227472   0.791   5.815  10.766  0.5546 -0.4061  0.0775
 1093TIP3   OH227473   1.041   3.574  11.724 -0.5655  0.0330 -0.6015
 1093TIP3    H127474   0.963   3.554  11.671 -0.5895 -0.6535 -0.3215
 1093TIP3    H227475   1.027   3.663  11.755 -0.5315  0.4692 -1.7879
 1094TIP3   OH227476   1.855   2.706  10.282  0.1931 -0.5139 -0.0091
 1094TIP3    H127477   1.842   2.679  10.191 -3.1777 -0.9019  0.4591
 1094TIP3    H227478   1.842   2.800  10.282 -0.2473 -0.5725  0.1211
 1095TIP3   OH227479   3.642   6.873  10.901  0.1203  0.8906  0.2809
 1095TIP3    H127480   3.694   6.833  10.831 -0.0243  0.8650  0.1875
 1095TIP3    H227481   3.599   6.800  10.945 -1.9619  1.0521 -1.3239
 1096TIP3   OH227482   6.012   2.463  10.765  0.3041  0.1483 -0.5363
 1096TIP3    H127483   5.952   2.497  10.831  1.0448 -0.4864  0.5025
 1096TIP3    H227484   6.020   2.533  10.700  0.8558  1.4669  0.9026
 1097TIP3   OH227485   1.757   1.317  12.001 -0.3170 -0.1049  0.1483
 1097TIP3    H127486   1.691   1.316  11.931 -1.3205 -0.4029  1.0749
 1097TIP3    H227487   1.840   1.327  11.955 -1.1470  3.3966 -0.9466
 1098TIP3   OH227488   4.031   6.184  11.838 -0.1918  0.1027  0.0725
 1098TIP3    H127489   4.034   6.259  11.778 -1.9446 -0.5596 -0.9111
 1098TIP3    H227490   3.957   6.203  11.896  1.2606  0.5554  1.8697
 1099TIP3   OH227491   1.048   2.498  10.442  0.2693 -0.2839  0.0076
 1099TIP3    H127492   1.127   2.539  10.406  0.6133 -1.7215 -0.9826
 1099TIP3    H227493   1.068   2.404  10.442 -1.4121 -0.6736 -0.1616
 1100TIP3   OH227494   0.294   0.936  11.213  0.0560 -0.6612 -0.8600
 1100TIP3    H127495   0.327   1.023  11.191  0.8886 -0.9352 -0.7085
 1100TIP3    H227496   0.260   0.902  11.131 -1.6672  0.3852 -0.6417
 1101TIP3   OH227497   1.192   0.623  10.576 -0.4495  0.0360 -0.2586
 1101TIP3    H127498   1.182   0.564  10.501  1.7035  0.5778 -1.0434
 1101TIP3    H227499   1.281   0.607  10.608 -0.9408  0.5998  1.5278
 1102TIP3   OH227500   6.499   3.826  10.468 -0.1900 -0.0436 -0.0325
 1102TIP3    H127501   6.405   3.833  10.478 -0.2823 -1.4354  0.2243
 1102TIP3    H227502   6.533   3.911  10.496 -1.3487  0.4390 -0.0596
 1103TIP3   OH227503   0.091   0.404  11.256  0.1656  0.2544  0.1082
 1103TIP3    H127504   0.013   0.457  11.275 -0.0513 -0.2915  0.7659
 1103TIP3    H227505   0.089   0.393  11.161 -0.2876  0.6603  0.0633
 1104TIP3   OH227506   4.123   3.513  11.146 -0.3916  0.0725 -0.4336
 1104TIP3    H127507   4.214   3.542  11.156 -0.5697  1.4770 -2.3294
 1104TIP3    H227508   4.075   3.593  11.123 -2.1441 -0.6402  0.5675
 1105TIP3   OH227509   5.896   5.861  11.503  0.3434  0.3685  0.3578
 1105TIP3    H127510   5.830   5.825  11.444  0.8547  2.0277 -1.3122
 1105TIP3    H227511   5.955   5.787  11.520  0.5111 -0.0301 -1.7241
 1106TIP3   OH227512   0.291   2.300  11.354  0.0029 -0.1185 -0.8133
 1106TIP3    H127513   0.289   2.250  11.435  0.9144  1.5588  0.3071
 1106TIP3    H227514   0.384   2.302  11.329 -0.2604 -0.6022 -1.8979
 1107TIP3   OH227515   5.638   2.002  10.359  0.0451  0.7304  0.1697
 1107TIP3    H127516   5.689   1.935  10.312  0.7050  1.3675 -0.0449
 1107TIP3    H227517   5.597   1.954  10.431  0.3869  0.0622 -0.0665
 1108TIP3   OH227518   5.999   3.782  10.601  0.0776 -0.5299 -0.0006
 1108TIP3    H127519   6.056   3.722  10.650  0.5370  0.0102  0.1512
 1108TIP3    H227520   5.973   3.733  10.524  0.4252 -0.9336  0.1313
 1109TIP3   OH227521   4.409   3.485  11.404  0.2235  0.3273  0.2191
 1109TIP3    H127522   4.441   3.535  11.479  1.2060  0.1015 -0.0353
 1109TIP3    H227523   4.350   3.420  11.442  1.2041 -0.2031  0.8849
 1110TIP3   OH227524   5.683   1.789  11.402 -0.0113 -0.8032 -0.0183
 1110TIP3    H127525   5.615   1.844  11.365  0.5905 -0.0847 -0.0866
 1110TIP3    H227526   5.746   1.776  11.331 -0.3131 -1.8774 -0.1076
 1111TIP3   OH227527   3.694   1.234  11.963 -0.2782 -0.1166 -0.3865
 1111TIP3    H127528   3.713   1.167  11.898 -0.1390  0.0984 -0.5675
 1111TIP3    H227529   3.735   1.313  11.929 -1.8878  0.4889 -1.0280
 1112TIP3   OH227530   6.717   3.910  12.539 -0.5284  0.2943  0.1139
 1112TIP3    H127531   6.804   3.944  12.563 -1.2070  0.6925  2.2767
 1112TIP3    H227532   6.693   3.960  12.461  2.1668 -1.5705 -2.1241
 1113TIP3   OH227533   5.921   1.119  12.144 -0.1102 -0.3405  0.7548
 1113TIP3    H127534   5.944   1.162  12.226 -1.6661  0.4727  0.8013
 1113TIP3    H227535   5.863   1.182  12.099  0.5019 -0.8622 -0.8528
 1114TIP3   OH227536   5.343   2.408  10.130  0.4490  0.0546  0.2161
 1114TIP3    H127537   5.332   2.375  10.220 -2.4633  0.6450  0.1816
 1114TIP3    H227538   5.289   2.349  10.077 -0.0192  1.2983 -0.7207
 1115TIP3   OH227539   6.751   0.445  10.427  0.3365  0.5683 -0.0565
 1115TIP3    H127540   6.682   0.427  10.490  1.5668  0.2978  1.2671
 1115TIP3    H227541   6.790   0.359  10.410  1.1009  0.8642  0.1448
 1116TIP3   OH227542   4.727   7.543  10.548  0.8398 -0.4301 -0.0831
 1116TIP3    H127543   4.688   7.483  10.486  0.6024 -0.6072  0.2336
 1116TIP3    H227544   4.679   7.527  10.630  0.8016  0.1545  0.0136
 1117TIP3   OH227545   5.280   3.699  11.338  0.6718  0.2013  0.3580
 1117TIP3    H127546   5.214   3.768  11.339  1.3271  0.8455  0.5615
 1117TIP3    H227547   5.362   3.745  11.355  1.1417 -0.6144  0.3429
 1118TIP3   OH227548   4.277   2.382  11.426 -0.4201 -0.1547  0.3181
 1118TIP3    H127549   4.267   2.478  11.429 -0.8267 -0.1745 -0.1835
 1118TIP3    H227550   4.293   2.357  11.517 -0.4255  0.3806  0.4726
 1119TIP3   OH227551   3.313   5.815  11.427  0.5827  0.7703  0.0229
 1119TIP3    H127552   3.399   5.784  11.456  0.7108 -0.3563 -1.4259
 1119TIP3    H227553   3.331   5.898  11.382  0.6335  1.5150  1.3818
 1120TIP3   OH227554   6.087   2.165  12.334 -0.7571 -0.1169 -0.1787
 1120TIP3    H127555   6.127   2.229  12.392 -0.7434 -0.8428  0.6213
 1120TIP3    H227556   6.101   2.201  12.246 -0.5852  0.8775  0.2405
 1121TIP3   OH227557   1.509   4.673  11.168  0.0887  0.5931  0.1453
 1121TIP3    H127558   1.457   4.693  11.089  0.6493  1.1872 -0.0875
 1121TIP3    H227559   1.542   4.758  11.196  0.6042  0.2670  0.5277
 1122TIP3   OH227560   0.430   3.571  12.475 -0.1581  0.0167 -0.2234
 1122TIP3    H127561   0.356   3.620  12.512 -0.8823  0.2442 -1.9016
 1122TIP3    H227562   0.415   3.481  12.504  0.2475  0.4424  1.4418
 1123TIP3   OH227563   6.903   3.681  12.586 -0.2473  0.3151 -0.4249
 1123TIP3    H127564   6.824   3.649  12.542 -0.2394 -0.6856  0.2737
 1123TIP3    H227565   6.890   3.660  12.678  0.3348  1.1847 -0.1315
 1124TIP3   OH227566   1.299   0.784  12.583  0.4325  0.0442 -0.3057
 1124TIP3    H127567   1.248   0.774  12.663 -1.1532  0.0784 -1.2663
 1124TIP3    H227568   1.342   0.699  12.572 -0.7922 -0.5787 -0.3710
 1125TIP3   OH227569   3.451   5.937  11.874  0.0329  0.2939  0.3079
 1125TIP3    H127570   3.386   5.950  11.943  0.5911  0.7947  0.7428
 1125TIP3    H227571   3.444   5.844  11.852 -1.7201  0.5894 -0.5583
 1126TIP3   OH227572   5.669   6.621  13.141 -0.1684 -0.4470 -0.2799
 1126TIP3    H127573   5.727   6.615  13.065 -0.0491 -0.6445 -0.1739
 1126TIP3    H227574   5.704   6.556  13.203  0.8344  0.9564  0.6869
 1127TIP3   OH227575   6.152   6.823   9.568 -0.0617  0.3044 -0.7484
 1127TIP3    H127576   6.190   6.736   9.553 -0.3845 -0.5044  2.3169
 1127TIP3    H227577   6.073   6.824   9.514  0.1111 -1.1826 -1.0912
 1128TIP3   OH227578   2.630   4.691  12.029 -0.3509  0.1078 -0.4966
 1128TIP3    H127579   2.660   4.693  12.120 -0.1719  0.6555 -0.5659
 1128TIP3    H227580   2.694   4.635  11.984 -0.4255 -0.1427 -0.2903
 1129TIP3   OH227581   2.570   7.437  10.496  0.4957 -0.0313  0.5026
 1129TIP3    H127582   2.524   7.462  10.416 -0.7986 -1.7550  0.6673
 1129TIP3    H227583   2.507   7.385  10.545  2.5504 -2.4758  0.7519
 1130TIP3   OH227584   5.998   5.987  10.118 -0.0705 -0.1655  0.2270
 1130TIP3    H127585   6.051   6.062  10.146 -0.5844  0.0558  0.6261
 1130TIP3    H227586   5.932   5.977  10.187 -1.2259  0.2462 -0.7778
 1131TIP3   OH227587   5.627   4.968  11.166  0.3564 -0.0239  0.1578
 1131TIP3    H127588   5.675   5.023  11.105 -0.0135 -1.1171 -1.1540
 1131TIP3    H227589   5.669   4.984  11.251  1.3842  0.9227 -0.5113
 1132TIP3   OH227590   4.982   6.409  12.965 -0.2216  0.1455  0.4051
 1132TIP3    H127591   5.008   6.498  12.988  0.7528  0.1161 -0.5134
 1132TIP3    H227592   5.025   6.392  12.881 -1.5459 -0.6873 -0.1394
 1133TIP3   OH227593   7.260   5.680  12.018 -0.4299  0.0026  0.3596
 1133TIP3    H127594   7.193   5.748  12.019 -0.0270  0.4084  1.4772
 1133TIP3    H227595   7.314   5.698  12.096  1.3767  0.0820 -0.8466
 1134TIP3   OH227596   7.617   6.432  12.464  0.2288 -0.0485 -0.1334
 1134TIP3    H127597   7.711   6.421  12.477  0.2147 -1.2327 -0.8666
 1134TIP3    H227598   7.594   6.511  12.513  1.6597  0.4339 -0.2251
 1135TIP3   OH227599   2.171   7.540  12.649 -0.2526 -0.3425 -0.0314
 1135TIP3    H127600   2.256   7.541  12.694  0.4250  1.4158 -1.2137
 1135TIP3    H227601   2.132   7.625  12.672 -1.4981 -0.9426  0.1219
 1136TIP3   OH227602   1.720   1.243  10.670 -0.2328 -0.0390  0.2638
 1136TIP3    H127603   1.681   1.283  10.592 -0.7372 -1.1763 -0.0897
 1136TIP3    H227604   1.713   1.149  10.655  0.8245 -0.2783  1.1191
 1137TIP3   OH227605   4.149   4.462  11.601  0.0863  0.5834  0.2090
 1137TIP3    H127606   4.242   4.452  11.581 -0.5164  0.4902 -3.2698
 1137TIP3    H227607   4.113   4.374  11.591 -0.9805  1.2384 -3.3175
 1138TIP3   OH227608   3.820   5.846  11.294  0.3421  0.2004  0.1201
 1138TIP3    H127609   3.887   5.891  11.345  0.2681  0.0503  0.3474
 1138TIP3    H227610   3.811   5.761  11.335 -0.1072  0.2788  0.1869
 1139TIP3   OH227611   7.640   3.882  12.846  0.0024 -0.1737  0.4420
 1139TIP3    H127612   7.559   3.837  12.823  0.4084 -0.4689 -0.4921
 1139TIP3    H227613   7.689   3.818  12.898 -0.2609 -0.0867  0.7942
 1140TIP3   OH227614   0.366   0.490  11.734  0.3522 -0.2114 -0.0140
 1140TIP3    H127615   0.418   0.423  11.778 -1.9271 -1.6563  0.6434
 1140TIP3    H227616   0.348   0.554  11.803  1.3072  0.3531 -0.2722
 1141TIP3   OH227617   4.201   1.042  12.206  0.2999  0.2393  0.4856
 1141TIP3    H127618   4.209   0.974  12.273  0.4716  0.2662  0.4932
 1141TIP3    H227619   4.289   1.079  12.198 -0.1943  1.8823  1.9693
 1142TIP3   OH227620   5.295   2.031  11.571 -0.1238 -0.3371 -0.3199
 1142TIP3    H127621   5.254   1.953  11.535 -0.3654 -0.6282  0.5586
 1142TIP3    H227622   5.352   1.999  11.641 -0.3998  0.2730  0.2023
 1143TIP3   OH227623   1.548   0.736  10.843  0.2194  0.0186  0.1865
 1143TIP3    H127624   1.609   0.701  10.779 -1.1989 -1.2043 -0.5517
 1143TIP3    H227625   1.473   0.677  10.839 -0.4174  0.6224  2.1057
 1144TIP3   OH227626   5.615   0.101  10.898  0.1527  0.6113  0.0036
 1144TIP3    H127627   5.582   0.176  10.848 -0.0115  0.1445 -0.6042
 1144TIP3    H227628   5.640   0.037  10.831 -0.7755 -0.3239  0.5201
 1145TIP3   OH227629   3.395   6.226   9.890  0.0353 -0.1079  0.2602
 1145TIP3    H127630   3.317   6.172   9.893  0.0097 -0.2816 -1.9649
 1145TIP3    H227631   3.367   6.311   9.924 -0.9113 -0.3695  0.1415
 1146TIP3   OH227632   4.236   0.301  12.627  0.2312 -0.3137  0.3037
 1146TIP3    H127633   4.206   0.260  12.546  0.5917  1.9257 -1.0720
 1146TIP3    H227634   4.329   0.279  12.632  0.3158 -0.0675 -0.1584
 1147TIP3   OH227635   6.961   4.882  12.605 -0.1753  0.0536  0.0995
 1147TIP3    H127636   6.958   4.787  12.602  0.7815 -0.0036  0.6194
 1147TIP3    H227637   6.917   4.910  12.525  0.5991 -0.8492 -0.6659
 1148TIP3   OH227638   1.604   4.834  10.504  0.3250 -0.2001 -0.7147
 1148TIP3    H127639   1.561   4.794  10.580 -0.9601 -1.9801 -2.2714
 1148TIP3    H227640   1.668   4.769  10.476  0.4734  0.2301 -1.4019
 1149TIP3   OH227641   2.978   3.413  10.501  0.2780  0.3576  0.2213
 1149TIP3    H127642   2.915   3.485  10.506 -1.2089 -0.8640  0.2268
 1149TIP3    H227643   2.957   3.368  10.419  1.3281  0.0648  0.0959
 1150TIP3   OH227644   5.123   5.216  12.206 -0.2602 -0.3262  0.3112
 1150TIP3    H127645   5.096   5.228  12.114  0.5700 -0.3206  0.0596
 1150TIP3    H227646   5.041   5.213  12.255 -0.6955  0.3541 -0.3508
 1151TIP3   OH227647   1.562   4.417  10.654 -0.1345 -0.1370  0.2282
 1151TIP3    H127648   1.575   4.379  10.567 -0.2744 -0.3302  0.2911
 1151TIP3    H227649   1.650   4.437  10.685 -0.0579 -0.4307  0.2037
 1152TIP3   OH227650   6.725   3.744  10.973 -0.7469  0.4198 -0.4893
 1152TIP3    H127651   6.680   3.823  11.003  1.1198  2.2497 -2.1079
 1152TIP3    H227652   6.705   3.739  10.880  0.0668 -0.3793 -0.6385
 1153TIP3   OH227653   7.395   1.724  12.619 -0.0303 -0.2088  0.3568
 1153TIP3    H127654   7.346   1.805  12.632 -1.0446 -1.1082  2.5949
 1153TIP3    H227655   7.353   1.682  12.545  1.2269  1.7456 -1.6144
 1154TIP3   OH227656   6.649   1.419  12.574  0.3361  0.4288 -0.0849
 1154TIP3    H127657   6.717   1.486  12.575 -0.2104  1.0152 -0.7995
 1154TIP3    H227658   6.690   1.343  12.616  1.2393  0.9452  0.0050
 1155TIP3   OH227659   4.352   6.065  12.028  0.2163  0.0723 -0.0927
 1155TIP3    H127660   4.261   6.044  12.049  0.3943 -0.3877  0.2362
 1155TIP3    H227661   4.404   6.003  12.079  0.7108  0.1803 -0.4501
 1156TIP3   OH227662   4.872   5.121  10.043 -0.0776  0.2692 -0.2289
 1156TIP3    H127663   4.787   5.099  10.081  0.2432  0.1805  0.4648
 1156TIP3    H227664   4.924   5.153  10.117  0.9144 -0.9258 -0.3714
 1157TIP3   OH227665   1.648   2.098  11.159 -0.2279  0.0053 -0.0649
 1157TIP3    H127666   1.624   2.081  11.068 -0.6851 -2.8155  0.4855
 1157TIP3    H227667   1.739   2.069  11.167  0.2562  1.4841  0.1138
 1158TIP3   OH227668   4.162   6.746  10.652 -0.3417  0.5081 -0.2879
 1158TIP3    H127669   4.132   6.805  10.721  0.9318 -0.4903  1.1946
 1158TIP3    H227670   4.082   6.703  10.620 -0.8277 -0.2409  1.7709
 1159TIP3   OH227671   5.731   0.592  11.189 -0.5881 -0.5650 -0.2015
 1159TIP3    H127672   5.655   0.626  11.236 -1.3899 -0.8373 -1.2772
 1159TIP3    H227673   5.698   0.569  11.102  0.6220 -1.1355 -0.5338
 1160TIP3   OH227674   7.330   6.878  10.702  0.3977  0.6807  0.4418
 1160TIP3    H127675   7.350   6.874  10.796  1.1048  1.3390  0.3320
 1160TIP3    H227676   7.240   6.910  10.698 -0.2298 -0.9458  0.9203
 1161TIP3   OH227677   2.658   2.058  11.238  0.1389  0.3295  0.1614
 1161TIP3    H127678   2.662   2.142  11.192  0.6059  1.4794  2.1609
 1161TIP3    H227679   2.588   2.068  11.302  1.9877  0.2694  2.3037
 1162TIP3   OH227680   1.438   0.531  10.357 -0.0855  0.3199 -0.0284
 1162TIP3    H127681   1.452   0.600  10.422 -0.0727  2.0885 -1.7936
 1162TIP3    H227682   1.523   0.489  10.347 -0.5534 -1.4127  2.5461
 1163TIP3   OH227683   7.647   2.793  10.506  0.1229  0.7439 -0.1821
 1163TIP3    H127684   7.621   2.777  10.416 -0.4731  1.1607 -0.0937
 1163TIP3    H227685   7.650   2.889  10.513 -4.0101  0.9566  1.3342
 1164TIP3   OH227686   6.057   0.887  12.685  0.3561  0.1717 -0.4188
 1164TIP3    H127687   6.079   0.973  12.649 -2.9360  1.1736 -0.4301
 1164TIP3    H227688   5.964   0.875  12.662  0.3116 -2.7651  0.8341
 1165TIP3   OH227689   5.610   2.197  10.031  0.7220 -0.1354  0.6014
 1165TIP3    H127690   5.564   2.188   9.948  1.2982 -0.8873  0.3559
 1165TIP3    H227691   5.630   2.291  10.037 -1.6732  0.4178  1.1966
 1166TIP3   OH227692   1.121   3.562  12.285 -0.4856  0.3790 -0.1417
 1166TIP3    H127693   1.143   3.494  12.221 -0.6904  0.5611 -0.4040
 1166TIP3    H227694   1.032   3.589  12.263 -0.8168 -0.0369  0.6421
 1167TIP3   OH227695   3.201   6.632  11.864 -0.1125 -0.3999  0.5212
 1167TIP3    H127696   3.207   6.626  11.959 -0.4472 -1.4229  0.4908
 1167TIP3    H227697   3.164   6.719  11.847  1.3433  0.3973  1.2471
 1168TIP3   OH227698   2.233   5.471  11.620 -0.0084  0.2373  0.4838
 1168TIP3    H127699   2.312   5.456  11.672 -0.6750 -1.0648  1.1754
 1168TIP3    H227700   2.163   5.480  11.685 -0.2122  3.2602 -0.0173
 1169TIP3   OH227701   3.166   4.631  11.840  0.4729  0.0666 -0.0004
 1169TIP3    H127702   3.074   4.613  11.819  0.4846 -1.6817  1.1413
 1169TIP3    H227703   3.208   4.648  11.756 -1.1293  2.3232 -0.4299
 1170TIP3   OH227704   0.285   6.588  11.906  0.2209 -0.0929  0.0657
 1170TIP3    H127705   0.278   6.683  11.896  0.9186 -0.2052 -2.0655
 1170TIP3    H227706   0.237   6.553  11.831 -3.2393 -1.6026  2.7634
 1171TIP3   OH227707   0.340   2.327   9.900  0.5249  0.1440  0.0225
 1171TIP3    H127708   0.379   2.387   9.836  0.9989 -0.3413 -0.1566
 1171TIP3    H227709   0.414   2.297   9.953  0.1876  0.2606  0.5644
 1172TIP3   OH227710   4.276   3.816  12.588 -0.3593 -0.2089  0.8691
 1172TIP3    H127711   4.368   3.809  12.562 -0.4910 -0.3426  0.4197
 1172TIP3    H227712   4.261   3.910  12.600  0.1147 -0.2647  2.0181
 1173TIP3   OH227713   6.600   1.321  12.202 -0.2110 -0.7149 -0.5605
 1173TIP3    H127714   6.608   1.258  12.131 -0.1197 -1.0912 -0.2179
 1173TIP3    H227715   6.574   1.402  12.159 -0.2242 -0.9578 -1.0150
 1174TIP3   OH227716   2.445   2.610  12.791  0.0787 -0.3024  0.2190
 1174TIP3    H127717   2.391   2.678  12.831 -0.3761 -0.4476 -0.1350
 1174TIP3    H227718   2.534   2.645  12.794 -0.1342  0.2502  0.1567
 1175TIP3   OH227719   5.211   2.431  12.741 -0.2117  0.5282 -0.0204
 1175TIP3    H127720   5.211   2.412  12.647  0.0198 -0.7094  0.2104
 1175TIP3    H227721   5.118   2.442  12.762 -0.3324 -0.0547 -0.2335
 1176TIP3   OH227722   0.449   1.404   9.976 -0.0172 -0.8239  0.0768
 1176TIP3    H127723   0.367   1.449   9.955 -0.2038 -0.4909  1.4052
 1176TIP3    H227724   0.424   1.312   9.987 -0.4210 -0.5863  1.3885
 1177TIP3   OH227725   6.627   5.130  12.953  0.0717 -0.2696 -0.0962
 1177TIP3    H127726   6.675   5.205  12.916  0.9301 -1.0884 -0.6932
 1177TIP3    H227727   6.537   5.142  12.922  0.1542  0.5973 -0.0399
 1178TIP3   OH227728   7.057   7.419  11.865 -0.5715 -0.2714 -0.0782
 1178TIP3    H127729   7.141   7.462  11.880 -0.4808 -0.2635 -0.6184
 1178TIP3    H227730   7.077   7.326  11.861 -0.6226 -0.2873  0.0165
 1179TIP3   OH227731   0.479   4.763   9.907  0.2137 -0.1765  0.3974
 1179TIP3    H127732   0.484   4.852   9.942 -0.1371 -0.1335  0.3420
 1179TIP3    H227733   0.387   4.738   9.917 -0.5226  0.8062 -2.8776
 1180TIP3   OH227734   7.598   1.472  12.063 -0.2548 -0.0050  0.0130
 1180TIP3    H127735   7.546   1.427  11.997  0.8633 -1.8057  0.2884
 1180TIP3    H227736   7.605   1.408  12.135 -0.1170  1.3059  1.2022
 1181TIP3   OH227737   3.135   6.132   9.953 -0.3647  0.2409  0.5160
 1181TIP3    H127738   3.065   6.188   9.985 -0.7815  0.3733 -0.5587
 1181TIP3    H227739   3.091   6.068   9.897  0.5376  1.9269 -2.3570
 1182TIP3   OH227740   3.289   6.057  11.205  0.1757  0.4271  0.0405
 1182TIP3    H127741   3.361   6.075  11.266  0.5371  0.2624 -0.3347
 1182TIP3    H227742   3.236   6.137  11.205  0.3864  0.5666  0.2775
 1183TIP3   OH227743   3.742   4.023  11.290  0.0386  0.2700  0.0520
 1183TIP3    H127744   3.652   4.035  11.260  0.4748  0.4249 -1.2263
 1183TIP3    H227745   3.747   3.931  11.316 -0.9338  0.6481  1.7562
 1184TIP3   OH227746   5.173   3.631  11.833  0.6973 -0.3305 -0.3211
 1184TIP3    H127747   5.156   3.654  11.742  0.4228  1.0166  0.0442
 1184TIP3    H227748   5.216   3.709  11.870  0.6981 -0.8099  0.7289
 1185TIP3   OH227749   6.514   5.906  11.157 -0.1954 -0.0257  0.1574
 1185TIP3    H127750   6.598   5.940  11.190  0.8795 -2.4421  0.1142
 1185TIP3    H227751   6.533   5.881  11.067 -0.6943 -1.4071  0.4146
 1186TIP3   OH227752   1.757   4.397  11.436 -0.3248  0.0756  0.4641
 1186TIP3    H127753   1.673   4.351  11.426 -0.3059 -0.0115  0.6995
 1186TIP3    H227754   1.780   4.424  11.348  0.3561 -1.5733  0.0932
 1187TIP3   OH227755   4.007   0.067  11.289  0.2741  0.2460 -0.4543
 1187TIP3    H127756   3.913   0.083  11.286  0.0957 -0.6833 -0.2932
 1187TIP3    H227757   4.039   0.123  11.360 -1.1354 -3.5694  3.6748
 1188TIP3   OH227758   1.556   5.807  11.922  0.2800 -0.2567  0.2945
 1188TIP3    H127759   1.581   5.759  12.000  1.3156  0.7084  0.5819
 1188TIP3    H227760   1.575   5.748  11.849 -1.7062 -1.6001  0.7677
 1189TIP3   OH227761   1.045   4.590  12.585  0.7148 -0.1275  0.1472
 1189TIP3    H127762   0.997   4.650  12.527  0.6185 -0.0343  0.3213
 1189TIP3    H227763   1.136   4.617  12.577  0.6001  0.4862  0.7343
 1190TIP3   OH227764   5.631   4.551  11.345 -0.0659  0.0889 -0.1926
 1190TIP3    H127765   5.707   4.495  11.359 -0.7935 -0.8226  0.1666
 1190TIP3    H227766   5.596   4.567  11.432 -0.9773 -0.4793 -0.4429
 1191TIP3   OH227767   1.443   4.326  11.936  0.1877 -0.3086  0.6002
 1191TIP3    H127768   1.350   4.334  11.915  0.2246 -1.3339 -0.0014
 1191TIP3    H227769   1.483   4.403  11.895 -0.2956 -0.2402  0.2446
 1192TIP3   OH227770   2.703   0.691  10.556  0.5587  0.3110 -0.7445
 1192TIP3    H127771   2.668   0.645  10.479 -1.0557  1.6177 -0.8353
 1192TIP3    H227772   2.765   0.629  10.594 -2.2655 -2.4482 -0.2419
 1193TIP3   OH227773   2.089   0.459  11.079  0.1032 -0.0256  0.1441
 1193TIP3    H127774   2.115   0.402  11.151  0.0538  1.0910  1.0894
 1193TIP3    H227775   1.994   0.465  11.085  0.1589  0.6867  0.4992
 1194TIP3   OH227776   7.640   6.182  12.384  0.2896 -0.5079 -0.0814
 1194TIP3    H127777   7.634   6.268  12.426 -1.8086 -0.2209 -0.8418
 1194TIP3    H227778   7.733   6.163  12.381  0.9567  2.3965 -1.1670
 1195TIP3   OH227779   1.599   4.910  11.306  0.2526  0.2741 -0.5323
 1195TIP3    H127780   1.539   4.955  11.247 -0.8855 -0.4861  0.0223
 1195TIP3    H227781   1.615   4.973  11.376 -1.1285 -0.0382  0.1055
 1196TIP3   OH227782   0.799   3.031  11.663 -0.2337 -0.3505 -0.2030
 1196TIP3    H127783   0.792   2.935  11.660  1.3498 -0.4957 -0.0138
 1196TIP3    H227784   0.890   3.049  11.642 -0.7375  1.1973 -1.2892
 1197TIP3   OH227785   4.535   1.447  12.072 -0.1463  0.2957  0.3849
 1197TIP3    H127786   4.497   1.363  12.098  0.0188  0.0613 -0.1259
 1197TIP3    H227787   4.629   1.436  12.082 -0.1685  0.7166  1.1710
 1198TIP3   OH227788   4.290   3.867  10.364  0.1427  0.1131 -0.2540
 1198TIP3    H127789   4.305   3.825  10.449 -2.2491  0.8162  0.6003
 1198TIP3    H227790   4.217   3.927  10.380 -1.5098 -0.9438 -3.1788
 1199TIP3   OH227791   3.137   7.015  11.118  0.2936  0.1633 -0.6796
 1199TIP3    H127792   3.230   6.998  11.109  0.1230 -0.4910 -1.2548
 1199TIP3    H227793   3.121   7.093  11.065  0.1852 -0.8212 -2.1447
 1200TIP3   OH227794   3.842   2.375  11.982 -0.4473  0.1466 -0.1060
 1200TIP3    H127795   3.872   2.296  11.937  1.7413  1.4188 -1.0675
 1200TIP3    H227796   3.850   2.444  11.917 -4.4685  0.9407 -0.0077
 1201TIP3   OH227797   0.384   4.493  11.843 -0.1958 -0.2617  0.2160
 1201TIP3    H127798   0.346   4.405  11.850  0.5765 -0.5905  0.4284
 1201TIP3    H227799   0.320   4.550  11.885  0.0271 -0.9476  1.5631
 1202TIP3   OH227800   3.867   1.831  11.688  0.1619  0.3043  0.9208
 1202TIP3    H127801   3.950   1.852  11.645 -0.4158 -0.4252 -0.6422
 1202TIP3    H227802   3.804   1.889  11.646 -0.0856  1.1949  2.4335
 1203TIP3   OH227803   2.517   7.502  12.522  0.9603  0.4256 -0.3841
 1203TIP3    H127804   2.462   7.429  12.492 -1.7244  2.4748 -0.7952
 1203TIP3    H227805   2.537   7.481  12.613  0.7237 -1.0478 -0.6437
 1204TIP3   OH227806   1.666   6.984  10.868  0.0688  0.4965  0.2220
 1204TIP3    H127807   1.676   7.054  10.932  2.7704  0.6743 -0.2821
 1204TIP3    H227808   1.647   7.030  10.786  1.7930  0.7301 -0.0986
 1205TIP3   OH227809   1.093   6.685  10.116 -0.1902  0.5199  0.0488
 1205TIP3    H127810   1.148   6.701  10.193 -0.8151  0.9836  0.4169
 1205TIP3    H227811   1.134   6.611  10.072  0.3973  0.4894  0.6232
 1206TIP3   OH227812   2.413   2.930  11.813  0.2622  0.7070 -0.0140
 1206TIP3    H127813   2.468   2.873  11.866  0.5908  0.0901 -0.9878
 1206TIP3    H227814   2.388   3.001  11.872 -0.9368 -0.8965  1.5245
 1207TIP3   OH227815   3.731   1.860  12.492  0.0637  0.2044 -0.3091
 1207TIP3    H127816   3.749   1.769  12.516 -0.1920  0.1630 -0.2715
 1207TIP3    H227817   3.751   1.910  12.572  1.4691  0.3389 -0.7163
 1208TIP3   OH227818   3.109   2.021  12.087 -0.3029 -0.3000 -0.2125
 1208TIP3    H127819   3.177   2.014  12.021  1.9150  1.2254  1.7430
 1208TIP3    H227820   3.046   2.084  12.051  1.8600  2.0200 -0.1762
 1209TIP3   OH227821   5.749   4.190  12.574 -0.3311  0.2745 -0.1962
 1209TIP3    H127822   5.813   4.204  12.505  0.7235 -0.4531  0.6048
 1209TIP3    H227823   5.672   4.155  12.528  0.2588  0.0456 -1.0342
 1210TIP3   OH227824   6.588   1.889  11.582  0.1599  0.2024 -0.4126
 1210TIP3    H127825   6.496   1.914  11.594  0.6219  1.1474  1.5516
 1210TIP3    H227826   6.588   1.794  11.589 -0.3167  0.3481  3.0193
 1211TIP3   OH227827   2.351   0.408  11.678 -0.1231 -0.1822  0.9064
 1211TIP3    H127828   2.256   0.402  11.678 -0.0549 -1.4572  0.5196
 1211TIP3    H227829   2.379   0.350  11.608  0.9557 -0.0118  1.1774
 1212TIP3   OH227830   4.491   4.503  10.265 -0.0029 -0.4242 -0.2946
 1212TIP3    H127831   4.540   4.584  10.247 -1.1084  0.0271 -1.4250
 1212TIP3    H227832   4.557   4.434  10.260  1.2002  0.4814  1.8708
 1213TIP3   OH227833   0.647   6.613  12.635 -0.2489 -0.0335 -0.4102
 1213TIP3    H127834   0.721   6.668  12.607  0.0277 -0.1449  0.0839
 1213TIP3    H227835   0.629   6.641  12.725 -0.9625  0.1481 -0.6033
 1214TIP3   OH227836   0.051   4.487  12.738  0.4490  0.0383  0.4582
 1214TIP3    H127837   0.063   4.446  12.652  1.0319 -1.1054  1.0715
 1214TIP3    H227838   0.137   4.521  12.761  0.2756  0.4181  0.5673
 1215TIP3   OH227839   5.413   3.734  12.668  0.0147  0.0879 -0.6987
 1215TIP3    H127840   5.363   3.655  12.648 -2.8092  1.6489 -0.2671
 1215TIP3    H227841   5.441   3.723  12.758  0.5900 -0.8709 -0.9863
 1216TIP3   OH227842   6.761   5.912  11.319  0.6648 -0.2682  0.4543
 1216TIP3    H127843   6.807   5.887  11.239  0.0083  1.2673 -0.4429
 1216TIP3    H227844   6.831   5.937  11.380  1.1187 -0.2673 -0.0596
 1217TIP3   OH227845   3.796   2.541  11.763 -0.7336 -0.0245 -0.3452
 1217TIP3    H127846   3.787   2.499  11.677 -0.2263 -0.0360 -0.3919
 1217TIP3    H227847   3.749   2.624  11.754 -0.7802 -0.0776 -0.5965
 1218TIP3   OH227848   4.559   6.969  12.284 -0.0882  0.6482 -0.4889
 1218TIP3    H127849   4.526   6.979  12.373 -1.6105  1.2399 -1.0807
 1218TIP3    H227850   4.651   6.997  12.290 -0.7208  2.7923  0.5113
 1219TIP3   OH227851   6.937   1.922  10.892  0.2879 -0.7918 -0.5644
 1219TIP3    H127852   6.926   1.976  10.814 -0.4911  0.5331  0.4272
 1219TIP3    H227853   6.940   1.985  10.965 -1.2714 -2.1047  0.6941
 1220TIP3   OH227854   4.056   2.082  11.418  0.1764  0.1531 -0.2694
 1220TIP3    H127855   4.132   2.091  11.475 -0.5909  2.1543  0.5287
 1220TIP3    H227856   4.093   2.076  11.329  1.2842  2.1592  0.0001
 1221TIP3   OH227857   3.430   0.573  11.208  0.1136  0.6269  0.2371
 1221TIP3    H127858   3.427   0.663  11.176 -2.2747 -0.0386 -1.6922
 1221TIP3    H227859   3.340   0.551  11.229  0.5997 -1.3701  0.5000
 1222TIP3   OH227860   2.271   2.533  11.055  0.0344  0.4282  0.8417
 1222TIP3    H127861   2.211   2.501  11.122 -0.1154  0.1499  0.5794
 1222TIP3    H227862   2.224   2.519  10.972  1.8982 -3.4561  0.2058
 1223TIP3   OH227863   2.009   6.948  11.409 -0.0612  0.6256  0.5716
 1223TIP3    H127864   1.981   6.906  11.327  0.5753  2.0937 -0.4299
 1223TIP3    H227865   1.928   6.985  11.445 -0.7824 -1.9476  1.8512
 1224TIP3   OH227866   6.879   7.579  12.664 -0.1146  0.0715  0.3847
 1224TIP3    H127867   6.927   7.658  12.641 -0.2316  0.2798  0.8418
 1224TIP3    H227868   6.801   7.611  12.709  0.0879 -0.3173  1.0203
 1225TIP3   OH227869   7.026   4.171  12.026 -0.0461 -0.2919 -0.1005
 1225TIP3    H127870   6.940   4.157  12.064 -0.3702 -0.2854 -0.8104
 1225TIP3    H227871   7.083   4.108  12.070  0.0865  1.1752  1.9812
 1226TIP3   OH227872   0.575   6.824  10.569 -0.3602  0.0138 -0.4136
 1226TIP3    H127873   0.554   6.898  10.627 -0.5738 -1.1520  1.0647
 1226TIP3    H227874   0.506   6.827  10.502  0.1389  1.6510 -0.9015
 1227TIP3   OH227875   1.275   2.550  10.313 -0.3580  0.1653 -0.1573
 1227TIP3    H127876   1.331   2.472  10.312 -1.8804 -1.1505 -4.0653
 1227TIP3    H227877   1.290   2.591  10.228 -3.2766  1.2233 -0.2924
 1228TIP3   OH227878   0.520   5.695  12.544  0.4832  0.3810 -0.3515
 1228TIP3    H127879   0.436   5.685  12.589  0.5511 -1.3755 -0.5515
 1228TIP3    H227880   0.570   5.616  12.567  1.0101  0.0387 -2.4059
 1229TIP3   OH227881   4.822   3.494  11.548  0.8365  0.1674 -0.2834
 1229TIP3    H127882   4.808   3.443  11.468 -0.4417  0.3268 -0.1777
 1229TIP3    H227883   4.769   3.450  11.615  3.0094 -0.8185  0.8726
 1230TIP3   OH227884   3.893   3.610  11.552  0.7540 -0.0000 -0.2319
 1230TIP3    H127885   3.949   3.566  11.489  0.1970 -0.2258 -0.5804
 1230TIP3    H227886   3.817   3.553  11.561  0.3320  0.5590 -0.1817
 1231TIP3   OH227887   4.698   2.206  10.089  0.2061  0.4902 -0.0962
 1231TIP3    H127888   4.609   2.220  10.120 -1.0089 -2.7632 -1.6178
 1231TIP3    H227889   4.739   2.151  10.156 -0.5465 -1.7711 -1.3588
 1232TIP3   OH227890   6.287   4.822  11.211  0.8391 -0.3470  0.3076
 1232TIP3    H127891   6.366   4.772  11.191  1.7175  1.1141 -0.0154
 1232TIP3    H227892   6.221   4.789  11.149  1.4909 -0.8333 -0.1377
 1233TIP3   OH227893   6.272   1.282  11.866 -0.8464  0.0157 -0.5462
 1233TIP3    H127894   6.277   1.335  11.786 -0.2178  1.3950  0.3688
 1233TIP3    H227895   6.245   1.343  11.934  1.3468 -0.4280  0.8532
 1234TIP3   OH227896   6.571   3.932  11.264 -0.6925 -0.1862 -0.4265
 1234TIP3    H127897   6.579   3.959  11.356  0.2677 -1.4134 -0.1257
 1234TIP3    H227898   6.483   3.895  11.258 -0.1380 -1.7577  0.4942
 1235TIP3   OH227899   6.399   6.455  12.239 -0.7290  0.7279 -0.2110
 1235TIP3    H127900   6.315   6.469  12.195 -1.3032 -1.6866 -0.0027
 1235TIP3    H227901   6.376   6.411  12.321  0.7295  0.1655 -0.0794
 1236TIP3   OH227902   5.834   4.211  11.421 -0.8134 -0.3947  0.0360
 1236TIP3    H127903   5.892   4.142  11.389 -2.1230 -1.2198 -0.6572
 1236TIP3    H227904   5.754   4.165  11.447 -0.4282  0.4076  3.1129
 1237TIP3   OH227905   0.137   7.521  10.999  0.2511 -0.1667  0.6445
 1237TIP3    H127906   0.232   7.512  11.012  0.3242 -1.3127 -0.4724
 1237TIP3    H227907   0.102   7.532  11.088  1.2483 -1.8516  1.2975
 1238TIP3   OH227908   6.149   7.545  12.122 -0.4195 -0.4910 -0.4478
 1238TIP3    H127909   6.205   7.495  12.064 -1.5097 -0.7989 -1.2674
 1238TIP3    H227910   6.086   7.588  12.064 -1.4134 -0.6503  0.4715
 1239TIP3   OH227911   0.999   6.311  10.624  0.1156 -0.0277  0.2367
 1239TIP3    H127912   1.074   6.324  10.566  0.8042 -2.6810  0.3754
 1239TIP3    H227913   0.922   6.332  10.570  0.8738  1.0267 -0.4605
 1240TIP3   OH227914   7.538   5.403  11.350  0.1798 -0.4209  0.5679
 1240TIP3    H127915   7.466   5.340  11.347  1.1247 -1.5468 -3.0258
 1240TIP3    H227916   7.615   5.353  11.327  1.3736  1.5988 -0.0768
 1241TIP3   OH227917   0.573   7.326  11.330  0.3113 -0.0650 -0.2827
 1241TIP3    H127918   0.550   7.331  11.237  1.2510 -0.1643 -0.5298
 1241TIP3    H227919   0.579   7.232  11.347  0.2785 -0.0443 -0.1611
 1242TIP3   OH227920   6.306   2.928  12.431  0.0918 -0.3320  0.1096
 1242TIP3    H127921   6.216   2.922  12.397  0.1235 -1.0120  0.1379
 1242TIP3    H227922   6.361   2.898  12.358  0.2713 -0.3099  0.2354
 1243TIP3   OH227923   5.872   4.318  11.698  0.7911  0.2550  0.6248
 1243TIP3    H127924   5.885   4.235  11.745 -2.5724 -1.0077 -0.4185
 1243TIP3    H227925   5.869   4.293  11.606 -1.6172  1.2311  0.3663
 1244TIP3   OH227926   1.769   4.181  10.674  0.6268  0.2144  0.1145
 1244TIP3    H127927   1.683   4.139  10.676  0.5237  0.2881 -1.5609
 1244TIP3    H227928   1.805   4.165  10.762 -0.2712 -1.5570  0.2188
 1245TIP3   OH227929   1.510   1.931  12.060 -0.1953 -0.5000 -0.3234
 1245TIP3    H127930   1.469   2.012  12.028  1.7632 -0.1359 -2.1514
 1245TIP3    H227931   1.488   1.928  12.153  0.3778  2.6322  0.0125
 1246TIP3   OH227932   3.528   1.093  12.337 -0.4804 -0.0488  0.1800
 1246TIP3    H127933   3.455   1.148  12.365 -1.1651  0.0660 -1.7276
 1246TIP3    H227934   3.597   1.154  12.313 -0.0865 -0.1341  1.0565
 1247TIP3   OH227935   4.997   5.508  11.022 -0.5915 -0.2193  0.1760
 1247TIP3    H127936   4.977   5.544  11.109 -0.1150  1.1938 -0.2764
 1247TIP3    H227937   5.049   5.429  11.040  2.5528  1.9237  1.1674
 1248TIP3   OH227938   6.627   4.920  11.214 -0.0137 -0.1353  0.0010
 1248TIP3    H127939   6.693   4.956  11.273 -0.3874 -0.6461  0.7489
 1248TIP3    H227940   6.662   4.834  11.188 -0.1908 -0.2270  0.0643
 1249TIP3   OH227941   2.067   1.569  11.398 -0.1520 -0.3244  0.3991
 1249TIP3    H127942   2.112   1.653  11.401  1.2990 -0.6205 -4.1301
 1249TIP3    H227943   2.085   1.528  11.482  1.7762  2.5935  1.5547
 1250TIP3   OH227944   4.673   4.052  10.935  0.1284  0.5018  0.2347
 1250TIP3    H127945   4.630   4.036  10.851 -0.0931  0.0800  0.4239
 1250TIP3    H227946   4.676   4.147  10.942 -1.7306  0.5720  0.6796
 1251TIP3   OH227947   5.056   7.521  11.903  0.1140 -0.4553 -0.3291
 1251TIP3    H127948   5.054   7.441  11.851  2.4559 -1.2896  0.7052
 1251TIP3    H227949   5.111   7.499  11.979  3.6498  2.9351 -1.5401
 1252TIP3   OH227950   1.029   6.645  12.796  0.0306 -0.4011 -0.3221
 1252TIP3    H127951   1.041   6.643  12.891  0.5695  1.6962 -0.2981
 1252TIP3    H227952   1.113   6.618  12.760  1.5444  3.4965 -0.1298
 1253TIP3   OH227953   0.259   7.611  11.316  0.2374  0.2684 -0.2371
 1253TIP3    H127954   0.273   7.697  11.276  1.3878 -0.5876 -1.8329
 1253TIP3    H227955   0.335   7.599  11.373 -0.6144  0.8471  1.0448
 1254TIP3   OH227956   1.938   2.364  11.428  0.3442 -0.0340  0.5480
 1254TIP3    H127957   1.849   2.352  11.393  1.4883 -1.9224 -2.0540
 1254TIP3    H227958   1.995   2.349  11.353  3.0422 -3.3027  2.9583
 1255TIP3   OH227959   5.803   5.611  12.649 -0.2596 -0.3282 -0.6910
 1255TIP3    H127960   5.804   5.645  12.739 -1.6183  1.9775 -1.4836
 1255TIP3    H227961   5.868   5.663  12.603 -2.1741  1.1248 -1.8654
 1256TIP3   OH227962   0.333   1.305  11.109  0.1555  0.2571  0.4132
 1256TIP3    H127963   0.304   1.332  11.196  0.4056  0.4942  0.4239
 1256TIP3    H227964   0.260   1.326  11.052  0.7072  1.8662  0.2679
 1257TIP3   OH227965   4.049   1.181  10.756 -0.2819 -0.7005 -0.0595
 1257TIP3    H127966   3.966   1.229  10.745  0.3984  0.4089 -0.5462
 1257TIP3    H227967   4.069   1.190  10.849 -0.1630 -0.0265 -0.1449
 1258TIP3   OH227968   4.398   5.099  12.608 -0.2668  0.0686  0.5748
 1258TIP3    H127969   4.413   5.166  12.541  0.4055  0.2047  0.8584
 1258TIP3    H227970   4.469   5.112  12.671 -1.0438  0.1010  1.4483
 1259TIP3   OH227971   2.899   4.288  12.150 -0.0441  0.0488  0.1995
 1259TIP3    H127972   2.987   4.251  12.143 -0.2274 -0.3516 -0.0464
 1259TIP3    H227973   2.849   4.242  12.082 -0.6042 -0.1993  0.7746
 1260TIP3   OH227974   0.517   2.103  12.594  0.0094 -0.3170  0.6615
 1260TIP3    H127975   0.568   2.179  12.619 -2.5142  0.5725  3.7483
 1260TIP3    H227976   0.433   2.139  12.564 -0.0485 -1.8166 -1.2268
 1261TIP3   OH227977   0.016   6.490  11.098 -0.1624  0.1586  0.2433
 1261TIP3    H127978   0.003   6.556  11.166 -0.6771  1.1830 -0.8045
 1261TIP3    H227979  -0.021   6.410  11.134  0.7112  0.3599  1.6521
 1262TIP3   OH227980   3.951   7.541  12.137 -0.1477 -0.1360  0.3484
 1262TIP3    H127981   3.956   7.634  12.159 -0.8029 -0.4607  2.0086
 1262TIP3    H227982   3.939   7.497  12.221 -1.6150 -1.5819 -0.5631
 1263TIP3   OH227983   5.443   3.618  12.213  0.2520  0.1856 -0.1713
 1263TIP3    H127984   5.536   3.599  12.198  0.5014  1.1923  0.0127
 1263TIP3    H227985   5.410   3.542  12.259  0.6815 -0.7397 -1.3341
 1264TIP3   OH227986   0.383   1.257  11.478 -0.1569 -0.1017 -0.5263
 1264TIP3    H127987   0.300   1.271  11.433 -0.7471  1.2363  0.9012
 1264TIP3    H227988   0.366   1.279  11.569  1.6287 -0.3170 -0.0926
 1265TIP3   OH227989   5.228   0.471  10.877  1.3112  0.2540  0.4006
 1265TIP3    H127990   5.198   0.440  10.791 -0.1764  1.6570  0.3579
 1265TIP3    H227991   5.245   0.392  10.927 -0.9115 -0.6614 -0.1641
 1266TIP3   OH227992   1.381   2.961  11.367  0.2603 -0.3315 -0.2758
 1266TIP3    H127993   1.454   2.943  11.308  0.6247 -0.7836  0.2992
 1266TIP3    H227994   1.386   2.892  11.433 -1.6162 -1.2992 -1.0771
 1267TIP3   OH227995   4.854   1.354  11.453 -0.2779  0.1910  0.0542
 1267TIP3    H127996   4.898   1.304  11.521 -0.5432 -0.1273 -0.0087
 1267TIP3    H227997   4.785   1.296  11.421 -0.8548  0.7497  0.2741
 1268TIP3   OH227998   2.018   5.952  12.288 -0.0566  0.1648  0.5414
 1268TIP3    H127999   2.046   5.971  12.378 -0.9397  1.5665  0.5483
 1268TIP3    H228000   1.924   5.934  12.296 -0.0349 -0.2017 -0.0324
 1269TIP3   OH228001   4.492   5.629  11.464  0.8152  0.5917  0.0672
 1269TIP3    H128002   4.436   5.683  11.408 -0.5565 -0.1906  0.6259
 1269TIP3    H228003   4.567   5.685  11.485  0.0362  1.8270 -0.3606
 1270TIP3   OH228004   5.270   6.677  10.558 -0.2583  0.0446 -0.1417
 1270TIP3    H128005   5.250   6.757  10.509  0.1579  0.3065  0.1103
 1270TIP3    H228006   5.362   6.660  10.540 -0.2474 -0.1731  0.1048
 1271TIP3   OH228007   1.689   6.143  11.437  0.2902 -0.2725 -0.3822
 1271TIP3    H128008   1.774   6.100  11.440 -0.1105 -1.2299 -1.6536
 1271TIP3    H228009   1.637   6.100  11.504  0.6055 -0.1320 -0.0463
 1272TIP3   OH228010   2.691   5.146  12.413 -0.5061 -0.1156 -0.3392
 1272TIP3    H128011   2.666   5.152  12.321 -1.0895 -0.9765 -0.2571
 1272TIP3    H228012   2.782   5.117  12.412 -0.2894  0.5783 -0.6478
 1273TIP3   OH228013   2.969   4.343  10.998 -0.1263  0.3319  0.0220
 1273TIP3    H128014   3.040   4.316  11.055  0.0561  0.6524 -0.0490
 1273TIP3    H228015   3.003   4.331  10.909  0.2574  1.5368 -0.0120
 1274TIP3   OH228016   1.526   6.900  10.145  0.0252 -0.1609 -0.1655
 1274TIP3    H128017   1.579   6.912  10.224 -0.4288 -2.7675  0.6216
 1274TIP3    H228018   1.588   6.873  10.078  0.2815  1.2200 -0.5273
 1275TIP3   OH228019   5.462   6.028  10.417  0.1347 -0.0391  0.0469
 1275TIP3    H128020   5.523   6.005  10.487  0.6225 -0.3744 -0.4807
 1275TIP3    H228021   5.429   6.115  10.442  1.1379  0.3288  0.1417
 1276TIP3   OH228022   3.260   4.000  11.671  0.3827 -0.1358  0.6449
 1276TIP3    H128023   3.239   3.973  11.760 -0.0832 -1.7602  0.0758
 1276TIP3    H228024   3.178   3.990  11.622  0.7509  0.2407 -0.0742
 1277TIP3   OH228025   1.348   1.362  12.492 -0.0806  0.0260 -0.9401
 1277TIP3    H128026   1.351   1.301  12.419 -1.4874 -0.3298 -0.7259
 1277TIP3    H228027   1.326   1.447  12.452  1.4876  0.3447 -1.1892
 1278TIP3   OH228028   6.614   3.578  12.518  0.2744 -0.2113  0.3645
 1278TIP3    H128029   6.642   3.486  12.518 -1.4308 -0.7680  0.6780
 1278TIP3    H228030   6.519   3.574  12.511  0.1879  1.5594  0.0431
 1279TIP3   OH228031   3.274   5.799  10.214 -0.1274 -0.3369 -0.2916
 1279TIP3    H128032   3.194   5.836  10.250  0.8354  0.5973  0.9932
 1279TIP3    H228033   3.289   5.719  10.265  0.2247 -0.0233  0.1087
 1280TIP3   OH228034   0.008   2.726  11.551  0.6229 -0.4983  0.1493
 1280TIP3    H128035   0.014   2.647  11.497  0.0832  0.1929 -0.9627
 1280TIP3    H228036   0.039   2.796  11.494 -3.0367  0.7778 -0.5217
 1281TIP3   OH228037   0.995   6.501  11.402 -0.0286 -0.1391 -0.0438
 1281TIP3    H128038   0.924   6.464  11.349 -0.3962  0.1826  0.2173
 1281TIP3    H228039   1.023   6.579  11.354 -0.1826  0.0052  0.1008
 1282TIP3   OH228040   6.010   2.255  11.025 -0.7305  0.7007  0.1237
 1282TIP3    H128041   5.960   2.314  10.969  0.8976  1.7102 -0.3382
 1282TIP3    H228042   6.052   2.313  11.089  1.1831  0.1287 -0.5537
 1283TIP3   OH228043   1.026   7.450  12.242 -0.3542  0.3837  0.0154
 1283TIP3    H128044   1.101   7.502  12.215  0.5377  0.3236  2.1636
 1283TIP3    H228045   0.952   7.510  12.236 -0.0094  0.7189 -1.2358
 1284TIP3   OH228046   4.324   6.493  10.921 -0.2836  0.4620  0.0090
 1284TIP3    H128047   4.234   6.504  10.891  0.3472  1.8720 -1.4372
 1284TIP3    H228048   4.378   6.519  10.847  1.3351 -0.1467  0.9301
 1285TIP3   OH228049   2.698   7.470  12.741  0.3524 -0.1680  0.2798
 1285TIP3    H128050   2.760   7.481  12.813 -0.3166 -2.0004  1.2010
 1285TIP3    H228051   2.638   7.402  12.771  0.3013 -1.3308 -2.1971
 1286TIP3   OH228052   1.041   0.730  11.147 -0.6721 -0.2923  0.2190
 1286TIP3    H128053   1.015   0.819  11.123 -1.3653 -0.6727 -0.4799
 1286TIP3    H228054   0.998   0.716  11.232 -0.2669  0.1608  0.5035
 1287TIP3   OH228055   5.611   0.861   9.962  0.0418 -0.3753  0.0718
 1287TIP3    H128056   5.609   0.910   9.879 -1.8727 -0.9783 -0.2752
 1287TIP3    H228057   5.704   0.847   9.978  0.4940  0.3260 -1.6480
 1288TIP3   OH228058   4.440   2.648  12.587  0.1451 -0.1991 -0.1527
 1288TIP3    H128059   4.345   2.660  12.588 -0.1439 -1.9090 -1.9275
 1288TIP3    H228060   4.475   2.735  12.604 -1.7011  0.2055  2.2334
 1289TIP3   OH228061   0.091   4.187  11.168 -0.3920  0.3822 -0.1085
 1289TIP3    H128062   0.044   4.193  11.085  0.8576  1.4660 -0.7854
 1289TIP3    H228063   0.026   4.210  11.235 -1.3467 -0.2609 -0.8031
 1290TIP3   OH228064   1.607   0.587  12.801 -0.1619  0.3734 -0.4231
 1290TIP3    H128065   1.652   0.600  12.717 -0.7559  2.4432 -0.4823
 1290TIP3    H228066   1.640   0.658  12.856 -1.3560  0.3256  0.3874
 1291TIP3   OH228067   2.681   3.536  11.950 -0.0014 -0.7924 -0.4700
 1291TIP3    H128068   2.622   3.572  12.016  1.2338 -0.1907  0.3338
 1291TIP3    H228069   2.766   3.575  11.969  0.4360 -0.7196 -2.3165
 1292TIP3   OH228070   4.119   7.543  12.543  0.0263 -0.0501 -0.1694
 1292TIP3    H128071   4.036   7.504  12.517 -0.1856  0.2008  0.1186
 1292TIP3    H228072   4.151   7.487  12.613 -0.2267  0.2254  0.1718
 1293TIP3   OH228073   5.856   0.161  11.050 -0.1442  0.6659 -0.1174
 1293TIP3    H128074   5.874   0.251  11.024 -0.9503  0.6038 -0.9272
 1293TIP3    H228075   5.765   0.146  11.026 -0.3471 -0.0334  0.9787
 1294TIP3   OH228076   6.858   6.962  12.069  0.0826  0.1300 -0.8881
 1294TIP3    H128077   6.932   6.924  12.117  0.5507 -0.0097 -1.6957
 1294TIP3    H228078   6.816   6.887  12.027 -0.8893  0.1344  0.0376
 1295TIP3   OH228079   5.727   5.554  10.429 -0.3248  0.5403 -0.8931
 1295TIP3    H128080   5.722   5.530  10.522  1.8364  3.3045  0.0726
 1295TIP3    H228081   5.638   5.583  10.407 -1.2076 -1.4343 -0.1438
 1296TIP3   OH228082   1.517   0.219  12.693 -0.0218 -0.1154  0.1434
 1296TIP3    H128083   1.460   0.143  12.705  0.0261 -0.3251 -0.8504
 1296TIP3    H228084   1.605   0.186  12.711 -0.1100 -0.0201  0.7716
 1297TIP3   OH228085   2.070   2.329  11.206 -0.2526  0.7798  0.0926
 1297TIP3    H128086   2.006   2.321  11.135  0.2463  1.3688 -0.4471
 1297TIP3    H228087   2.136   2.263  11.186  0.9910  2.3420 -1.2274
 1298TIP3   OH228088   3.496   7.345  11.377  0.2569  0.3852 -0.5413
 1298TIP3    H128089   3.547   7.282  11.326 -0.3460  0.7280 -1.6051
 1298TIP3    H228090   3.562   7.400  11.419  0.7784 -0.4775 -0.1986
 1299TIP3   OH228091   4.139   0.760  11.304  0.1044  0.3515  0.3940
 1299TIP3    H128092   4.094   0.780  11.386 -1.0175  0.4132 -0.2086
 1299TIP3    H228093   4.113   0.831  11.245 -0.2939 -0.4645 -0.4397
 1300TIP3   OH228094   6.790   6.935  11.686  0.3390  0.7399 -0.4160
 1300TIP3    H128095   6.779   6.933  11.591  0.8140 -1.4560 -0.4609
 1300TIP3    H228096   6.872   6.888  11.702  0.6002  1.6295  1.0623
 1301TIP3   OH228097   2.449   5.454  10.742 -0.5138 -0.6184 -0.3365
 1301TIP3    H128098   2.490   5.381  10.697  0.5443 -0.1946 -0.1015
 1301TIP3    H228099   2.450   5.526  10.679  1.3802  0.1078  0.4515
 1302TIP3   OH228100   2.176   2.077  12.233  0.4801  0.0117  0.4647
 1302TIP3    H128101   2.086   2.065  12.203  1.2871  1.9323 -3.2911
 1302TIP3    H228102   2.169   2.142  12.303 -1.1446 -1.2333  1.5293
 1303TIP3   OH228103   6.699   7.629  10.773  0.1448 -0.2793  0.2222
 1303TIP3    H128104   6.775   7.668  10.818 -1.1588  2.6773  0.1061
 1303TIP3    H228105   6.721   7.634  10.680  0.4825 -1.0287  0.2552
 1304TIP3   OH228106   2.924   1.116  10.411 -1.3042  0.3526  0.0463
 1304TIP3    H128107   2.898   1.027  10.388 -0.1032  0.1497 -0.6382
 1304TIP3    H228108   2.877   1.135  10.492  0.0081 -1.7140  1.3952
 1305TIP3   OH228109   6.829   5.196  10.244 -0.3531 -0.0994  0.4586
 1305TIP3    H128110   6.812   5.112  10.285  1.6420 -0.2839  1.0430
 1305TIP3    H228111   6.897   5.177  10.179  1.0597  1.1896  1.4654
 1306TIP3   OH228112   6.060   3.294  10.778  0.0928 -0.2384 -0.4195
 1306TIP3    H128113   5.991   3.345  10.737  0.8469  2.2961  1.2169
 1306TIP3    H228114   6.113   3.358  10.825  2.7459 -2.2412 -0.4320
 1307TIP3   OH228115   7.018   0.771  12.369  0.3828 -0.0722  0.3895
 1307TIP3    H128116   6.932   0.811  12.379  1.7625  3.3848 -0.1215
 1307TIP3    H228117   7.012   0.721  12.288 -0.5486  2.1921 -1.0453
 1308TIP3   OH228118   3.632   3.767  12.508  0.2218 -0.3347 -0.0053
 1308TIP3    H128119   3.560   3.714  12.473  1.4823 -0.9527 -1.8209
 1308TIP3    H228120   3.591   3.823  12.573 -2.0713 -0.0913 -1.5352
 1309TIP3   OH228121   6.438   4.428  12.437 -0.3015 -0.4235 -0.4598
 1309TIP3    H128122   6.508   4.413  12.501 -0.4390  0.1436 -0.1721
 1309TIP3    H228123   6.479   4.482  12.370  0.0909 -1.7172 -1.3140
 1310TIP3   OH228124   0.491   4.019  10.633  0.3534  0.0954 -0.5897
 1310TIP3    H128125   0.438   4.053  10.561  1.0936  0.2533 -1.0749
 1310TIP3    H228126   0.508   3.928  10.609  1.0894  0.3139 -0.9108
 1311TIP3   OH228127   0.924   0.071  10.851 -0.3282  0.1178  0.1799
 1311TIP3    H128128   0.889   0.114  10.929 -0.3875 -3.2507  2.1962
 1311TIP3    H228129   1.012   0.107  10.842  0.2144 -0.3617  2.7412
 1312TIP3   OH228130   0.123   1.962  11.445  0.2202 -0.7930  0.0464
 1312TIP3    H128131   0.179   2.033  11.414 -0.7832 -0.0932 -0.1918
 1312TIP3    H228132   0.148   1.950  11.537  0.9379 -0.6756 -0.1270
 1313TIP3   OH228133   5.903   2.174  11.564 -0.1692  0.6198 -0.3166
 1313TIP3    H128134   5.962   2.246  11.585 -0.6102  0.5430  1.3074
 1313TIP3    H228135   5.821   2.216  11.536  0.0983  0.7214 -0.9743
 1314TIP3   OH228136   0.461   0.769  10.113 -0.2041 -0.5649  0.1631
 1314TIP3    H128137   0.383   0.814  10.081  0.4155 -0.6176 -1.5514
 1314TIP3    H228138   0.524   0.777  10.042  2.6938  2.5957  2.7554
 1315TIP3   OH228139   1.762   3.049  11.808 -0.2644  0.2478  0.2482
 1315TIP3    H128140   1.730   3.136  11.829 -0.0343  0.4762 -0.3495
 1315TIP3    H228141   1.857   3.055  11.819 -0.2857 -0.0588  0.6631
 1316TIP3   OH228142   4.175   5.036  10.805 -0.4482  0.2034 -0.3894
 1316TIP3    H128143   4.080   5.038  10.814 -0.4611 -0.4219 -0.3444
 1316TIP3    H228144   4.197   4.943  10.800  0.3653  0.2450  1.5933
 1317TIP3   OH228145   2.630   1.007  12.314  0.4199 -0.0723  0.2466
 1317TIP3    H128146   2.562   1.073  12.328  1.4179  0.9428  0.4904
 1317TIP3    H228147   2.661   0.985  12.401  0.1334 -0.8503  0.1626
 1318TIP3   OH228148   1.067   5.274  10.687 -0.9414 -0.3774  0.1827
 1318TIP3    H128149   1.125   5.342  10.653 -0.6299 -0.9224 -0.3863
 1318TIP3    H228150   1.023   5.238  10.610 -1.8068 -0.1930  0.5682
 1319TIP3   OH228151   0.704   0.674  12.177  0.4419 -0.8081  0.5524
 1319TIP3    H128152   0.715   0.745  12.115 -2.3100 -0.8620 -0.1658
 1319TIP3    H228153   0.627   0.699  12.229 -0.3463 -2.9893  0.5690
 1320TIP3   OH228154   2.825   4.039  11.485 -0.0235 -0.2606  0.0702
 1320TIP3    H128155   2.891   3.982  11.526  0.1993  0.1236  0.2508
 1320TIP3    H228156   2.800   4.099  11.555 -1.2372 -0.9742  0.2730
 1321TIP3   OH228157   6.188   7.276  11.088  0.2210 -0.1619  0.0066
 1321TIP3    H128158   6.130   7.203  11.111  1.4165 -0.9574  0.6396
 1321TIP3    H228159   6.256   7.236  11.033  0.3042  0.6955 -0.5250
 1322TIP3   OH228160   4.179   7.430  12.044  0.2998  0.5950 -0.7204
 1322TIP3    H128161   4.088   7.455  12.063  0.4046  2.1600 -2.0401
 1322TIP3    H228162   4.231   7.477  12.108  0.1993 -0.6946  0.3630
 1323TIP3   OH228163   7.407   1.464  12.376 -0.3818  0.2794  0.1218
 1323TIP3    H128164   7.343   1.533  12.362  1.5874  1.7688 -2.6086
 1323TIP3    H228165   7.375   1.390  12.324 -0.5493  0.5358 -0.1403
 1324TIP3   OH228166   4.252   6.072  12.426  0.3871 -0.5025  0.2195
 1324TIP3    H128167   4.161   6.058  12.451  1.0648 -1.0780  2.5408
 1324TIP3    H228168   4.274   5.996  12.373 -0.3777 -0.5143 -0.0915
 1325TIP3   OH228169   4.885   4.412  10.784 -0.1863 -0.3536  0.1648
 1325TIP3    H128170   4.912   4.493  10.742 -0.8146 -0.1372  0.1708
 1325TIP3    H228171   4.827   4.370  10.719  0.4127 -0.9685  0.0151
 1326TIP3   OH228172   0.298   0.226  11.306 -0.4224 -0.2231  0.5889
 1326TIP3    H128173   0.335   0.240  11.393 -0.5510 -1.2527  0.8129
 1326TIP3    H228174   0.233   0.296  11.296 -0.0356  0.2121  1.1065
 1327TIP3   OH228175   0.283   3.830  10.305  0.3402  0.5271  0.1286
 1327TIP3    H128176   0.194   3.810  10.335  0.6812  1.0610  1.5595
 1327TIP3    H228177   0.331   3.748  10.318  0.1309  0.3103 -0.4186
 1328TIP3   OH228178   3.855   3.588  10.796 -0.4742  0.4575  0.4789
 1328TIP3    H128179   3.873   3.655  10.863 -0.8546 -1.8075  3.0385
 1328TIP3    H228180   3.760   3.587  10.788 -0.6294 -1.0245  1.9579
 1329TIP3   OH228181   3.703   3.332  11.956  0.0029  0.3319 -0.6897
 1329TIP3    H128182   3.661   3.339  11.870  0.2837 -0.9361 -0.9453
 1329TIP3    H228183   3.677   3.246  11.988  0.2173  0.6455  0.3345
 1330TIP3   OH228184   4.529   6.616  12.506 -0.2435 -0.4711 -0.1527
 1330TIP3    H128185   4.461   6.677  12.536  1.4499  0.7132  1.4722
 1330TIP3    H228186   4.547   6.644  12.416 -1.2207 -0.1689 -0.2667
 1331TIP3   OH228187   1.158   4.159  11.908  0.1286  0.2111  0.3605
 1331TIP3    H128188   1.157   4.168  12.003 -0.7384  1.3718  0.2629
 1331TIP3    H228189   1.241   4.116  11.889  0.1759 -0.3045  1.6622
 1332TIP3   OH228190   6.614   1.996  11.222 -0.1169  0.2333  0.2563
 1332TIP3    H128191   6.681   1.974  11.286 -0.0606 -0.4714 -0.0333
 1332TIP3    H228192   6.586   2.084  11.245 -0.1898 -0.0607  1.3219
 1333TIP3   OH228193   0.328   4.130  10.846  0.1120 -0.1662  0.1171
 1333TIP3    H128194   0.241   4.093  10.860  0.1734 -0.0512  0.8592
 1333TIP3    H228195   0.353   4.101  10.759  0.3253 -2.2251  0.8143
 1334TIP3   OH228196   2.022   4.324  10.322 -0.1497  0.1981  0.6231
 1334TIP3    H128197   2.065   4.341  10.406  0.9632 -1.1982  0.3642
 1334TIP3    H228198   2.093   4.297  10.263 -0.5776  2.9240 -1.3567
 1335TIP3   OH228199   5.821   6.793  12.381 -0.4164  0.0438  0.5723
 1335TIP3    H128200   5.822   6.889  12.375  0.1112  0.0275  0.3547
 1335TIP3    H228201   5.804   6.764  12.292  0.8034 -0.0817  0.3605
 1336TIP3   OH228202   2.756   4.259  12.431  0.1302  0.5262  0.4338
 1336TIP3    H128203   2.687   4.318  12.401  0.1900 -0.3362 -1.5508
 1336TIP3    H228204   2.812   4.246  12.355  1.1921 -0.5868  1.3564
 1337TIP3   OH228205   2.674   6.090  11.459 -0.1439 -0.3076 -0.0105
 1337TIP3    H128206   2.590   6.056  11.428  0.3341 -1.0746 -0.5087
 1337TIP3    H228207   2.668   6.185  11.449 -1.1092 -0.3199  0.3740
 1338TIP3   OH228208   6.763   6.400  12.198  0.3285  0.1610  0.3365
 1338TIP3    H128209   6.837   6.346  12.169  1.1216  0.8607  0.9827
 1338TIP3    H228210   6.686   6.354  12.166  1.0692 -0.0592 -1.2483
 1339TIP3   OH228211   0.023   1.855  10.820 -0.3418  0.0659 -0.4526
 1339TIP3    H128212  -0.041   1.885  10.885 -0.2696  1.7697 -1.1084
 1339TIP3    H228213   0.108   1.869  10.862 -0.3450 -1.3429  0.0699
 1340TIP3   OH228214   6.405   6.995   9.990 -0.9750 -1.0604  0.3735
 1340TIP3    H128215   6.379   6.930   9.926 -0.6529 -0.4072 -0.4354
 1340TIP3    H228216   6.323   7.026  10.029 -1.1876 -1.2773  0.0971
 1341TIP3   OH228217   0.575   1.550  12.109  0.0937 -0.8344  0.5398
 1341TIP3    H128218   0.587   1.545  12.204  0.9597  1.0770  0.5691
 1341TIP3    H228219   0.662   1.566  12.075 -0.5905  1.7930 -0.2489
 1342TIP3   OH228220   1.927   1.150  10.375 -0.0355 -0.8817 -0.9723
 1342TIP3    H128221   1.953   1.084  10.440  0.8925  1.6128  1.3602
 1342TIP3    H228222   1.839   1.176  10.403  0.5715  0.5713 -0.3483
 1343TIP3   OH228223   1.513   1.929  12.586  0.3498  0.1088  0.1070
 1343TIP3    H128224   1.530   1.901  12.676 -0.9980  1.9816  1.0170
 1343TIP3    H228225   1.424   1.900  12.568  0.2993  0.5093 -0.3011
 1344TIP3   OH228226   5.159   2.320  10.737 -0.2730 -0.0005 -0.5459
 1344TIP3    H128227   5.154   2.259  10.663  1.0977  0.4011 -0.9966
 1344TIP3    H228228   5.247   2.357  10.732 -1.0806  2.0743 -0.3173
 1345TIP3   OH228229   7.639   1.585   9.984 -0.5538 -0.3757 -0.0238
 1345TIP3    H128230   7.696   1.548  10.051 -1.4849 -1.6193  0.1062
 1345TIP3    H228231   7.689   1.575   9.903  0.5443  1.0695  0.4304
 1346TIP3   OH228232   1.152   5.234  11.485  0.2539 -0.3217  0.2200
 1346TIP3    H128233   1.073   5.185  11.465 -0.1286  0.1736  0.4911
 1346TIP3    H228234   1.224   5.177  11.457 -0.2175  0.0607 -1.9325
 1347TIP3   OH228235   4.253   1.123  10.551 -0.1746 -0.1624 -0.1221
 1347TIP3    H128236   4.244   1.167  10.467  0.7949  1.7293  0.6991
 1347TIP3    H228237   4.194   1.170  10.610  2.1843  1.3543  1.2142
 1348TIP3   OH228238   3.398   3.014  11.086 -0.2096  0.6510  0.1433
 1348TIP3    H128239   3.310   3.021  11.123 -0.4765  0.0871 -0.3441
 1348TIP3    H228240   3.383   3.006  10.992  0.5767  6.1058 -0.7713
 1349TIP3   OH228241   4.457   1.881  11.857  0.1301 -0.2938  0.2141
 1349TIP3    H128242   4.463   1.785  11.853 -1.3105 -0.6519  3.4983
 1349TIP3    H228243   4.391   1.903  11.791 -1.9147 -1.9936  1.5544
 1350TIP3   OH228244   6.694   5.336  12.026 -0.6994  0.0209 -0.7923
 1350TIP3    H128245   6.741   5.366  11.948 -1.5946  1.3189 -0.8647
 1350TIP3    H228246   6.619   5.395  12.033 -1.8092 -1.4039 -0.1420
 1351TIP3   OH228247   3.052   0.645  12.352  0.0964 -0.3989 -0.1407
 1351TIP3    H128248   2.969   0.644  12.398  0.5438 -1.1813  0.6963
 1351TIP3    H228249   3.065   0.554  12.323  0.9223 -0.4212  0.2528
 1352TIP3   OH228250   6.924   4.341  11.095 -0.3234  0.0131  0.2546
 1352TIP3    H128251   6.961   4.412  11.147  2.5112 -0.9609 -0.2511
 1352TIP3    H228252   6.918   4.377  11.006 -1.3313  0.3840  0.4552
 1353TIP3   OH228253   0.820   4.384  11.823  0.0211 -0.1247 -0.0664
 1353TIP3    H128254   0.778   4.468  11.845  1.1623  1.7245 -3.9715
 1353TIP3    H228255   0.753   4.335  11.777 -0.2350 -0.8640  1.0439
 1354TIP3   OH228256   4.911   1.754  12.144  1.0569  0.4580  0.0771
 1354TIP3    H128257   4.850   1.796  12.083  2.2149  2.4062  0.1743
 1354TIP3    H228258   4.857   1.735  12.221  0.0414 -0.1394 -0.7551
 1355TIP3   OH228259   6.545   1.870  10.682  0.1360  0.1096  0.1746
 1355TIP3    H128260   6.456   1.875  10.647  0.1398 -1.3243 -0.0907
 1355TIP3    H228261   6.534   1.886  10.775 -1.0630 -3.9855  0.9515
 1356TIP3   OH228262   7.033   1.943  10.142 -0.2135 -0.2157  0.1093
 1356TIP3    H128263   7.050   1.849  10.152  0.1703 -0.2080 -0.4134
 1356TIP3    H228264   6.971   1.948  10.069 -0.1240 -0.0547  0.0433
 1357TIP3   OH228265   3.291   4.457  11.648  0.0134 -0.6383 -0.0296
 1357TIP3    H128266   3.375   4.417  11.670  0.5745  0.9593  0.9491
 1357TIP3    H228267   3.239   4.451  11.728 -0.6019 -1.1206 -0.4613
 1358TIP3   OH228268   4.949   1.812  12.473  0.2296 -0.4637 -0.3109
 1358TIP3    H128269   4.909   1.818  12.559  1.4142  1.2849  0.1885
 1358TIP3    H228270   5.032   1.858  12.482  0.9738 -1.3489 -2.0708
 1359TIP3   OH228271   7.680   0.216  12.562 -0.6015  0.0946 -0.3604
 1359TIP3    H128272   7.671   0.148  12.495 -0.7488 -0.7808  0.5389
 1359TIP3    H228273   7.770   0.248  12.551 -0.5786 -0.1391 -0.8857
 1360TIP3   OH228274   1.877   4.700  11.088  0.3327 -0.1988  0.7526
 1360TIP3    H128275   1.910   4.784  11.121 -0.0742  0.2380  0.0697
 1360TIP3    H228276   1.796   4.722  11.042  1.0754 -0.7185 -0.8871
 1361TIP3   OH228277   6.869   0.392   9.842 -0.2181  0.3254  0.4840
 1361TIP3    H128278   6.916   0.462   9.887  3.3018  0.3016 -2.6823
 1361TIP3    H228279   6.919   0.312   9.862  0.3547  0.0384 -1.7789
 1362TIP3   OH228280   6.815   1.671  11.314 -0.8422  0.5438 -0.1297
 1362TIP3    H128281   6.802   1.762  11.289 -0.5073  0.2639 -1.3660
 1362TIP3    H228282   6.750   1.656  11.383 -1.5735  1.4237 -0.6028
 1363TIP3   OH228283   3.862   6.296  13.150  0.7524  0.0742  0.0031
 1363TIP3    H128284   3.906   6.320  13.231 -1.1243  2.1250  0.5198
 1363TIP3    H228285   3.920   6.232  13.109  3.5558  1.6765  1.1864
 1364TIP3   OH228286   0.565   7.462   9.709  0.4194 -0.5173 -0.1961
 1364TIP3    H128287   0.473   7.448   9.688  0.4052 -0.4403 -0.1863
 1364TIP3    H228288   0.578   7.556   9.695  0.2708 -0.3510  0.6927
 1365TIP3   OH228289   1.909   1.325  10.135  0.7153 -0.0700  0.0137
 1365TIP3    H128290   1.933   1.253  10.192  1.5379  0.6624  0.6158
 1365TIP3    H228291   1.990   1.374  10.122 -0.0049  1.2604  0.3528
 1366TIP3   OH228292   1.433   1.187  11.290  0.0682 -0.3383 -0.2928
 1366TIP3    H128293   1.511   1.231  11.256 -0.4773  0.2877 -0.7651
 1366TIP3    H228294   1.374   1.181  11.215 -0.4870 -0.4715  0.1427
 1367TIP3   OH228295   1.511   6.930  11.192  0.5803 -0.5626  0.0128
 1367TIP3    H128296   1.516   6.857  11.252 -0.7218 -0.2537  0.5433
 1367TIP3    H228297   1.427   6.972  11.212  2.0413  2.1383  0.9582
 1368TIP3   OH228298   3.936   6.666  11.997  0.3567 -0.7178 -0.2276
 1368TIP3    H128299   3.941   6.580  12.040  1.8847 -1.5590 -1.9838
 1368TIP3    H228300   3.864   6.657  11.934  0.4300 -0.6527 -0.3195
 1369TIP3   OH228301   6.949   1.425  11.864  0.1488  0.2756  0.1950
 1369TIP3    H128302   6.933   1.498  11.923 -0.6353  0.4598 -0.2286
 1369TIP3    H228303   7.017   1.457  11.804 -0.3005  0.7231 -0.0873
 1370TIP3   OH228304   1.616   0.806  12.102 -0.2206 -0.2219  0.4964
 1370TIP3    H128305   1.633   0.889  12.057  1.0992 -0.8580 -0.2418
 1370TIP3    H228306   1.542   0.825  12.160  0.0574  1.4657  0.3586
 1371TIP3   OH228307   0.837   0.603  10.201 -0.5470 -0.2317  0.3263
 1371TIP3    H128308   0.931   0.585  10.199 -0.8916 -2.3386  1.0263
 1371TIP3    H228309   0.816   0.633  10.113  0.8965  1.0049  0.3711
 1372TIP3   OH228310   3.831   5.196  12.433 -0.7959  0.3946  0.3918
 1372TIP3    H128311   3.926   5.207  12.436 -0.8915  1.3467  0.1293
 1372TIP3    H228312   3.818   5.104  12.455  0.3237 -0.3429 -1.7644
 1373TIP3   OH228313   0.637   3.093  11.148  0.1302  0.1703 -0.0728
 1373TIP3    H128314   0.565   3.155  11.140 -1.9257 -1.8013  1.5905
 1373TIP3    H228315   0.671   3.107  11.237  0.0138 -0.6410  0.1112
 1374TIP3   OH228316   5.305   0.205  10.069 -0.3452  0.1258 -0.0999
 1374TIP3    H128317   5.249   0.266  10.022 -0.7405 -0.6864 -0.7170
 1374TIP3    H228318   5.381   0.194  10.012 -0.0539  0.4065  0.2340
 1375TIP3   OH228319   1.606   2.545  11.879  0.1252  0.4131  0.1572
 1375TIP3    H128320   1.675   2.478  11.875 -1.9685 -1.8315 -1.2265
 1375TIP3    H228321   1.649   2.625  11.851  1.8877 -1.1779 -2.0894
 1376TIP3   OH228322   3.827   6.829  11.697 -0.1486  0.3544 -0.8913
 1376TIP3    H128323   3.878   6.902  11.732  0.7113  0.2424 -1.8760
 1376TIP3    H228324   3.840   6.758  11.760  0.5706  0.4637 -0.9110
 1377TIP3   OH228325   1.151   4.309  10.162 -0.4896  0.6958  0.5996
 1377TIP3    H128326   1.113   4.372  10.101  0.9440 -0.5143 -1.7159
 1377TIP3    H228327   1.206   4.361  10.220  1.1095  1.6108 -1.6069
 1378TIP3   OH228328   6.597   7.217  10.409  0.2267 -0.2601  0.3047
 1378TIP3    H128329   6.692   7.210  10.402  0.2920  0.2418  0.6052
 1378TIP3    H228330   6.563   7.141  10.363  0.8251 -1.5275  1.8616
 1379TIP3   OH228331   5.368   3.463  11.908  0.6007  0.6043  0.0727
 1379TIP3    H128332   5.289   3.517  11.894  0.2102 -0.2442 -1.2230
 1379TIP3    H228333   5.350   3.382  11.860  2.4919  0.6046 -0.7346
 1380TIP3   OH228334   4.300   2.542  10.686  0.4123  0.2687 -0.0680
 1380TIP3    H128335   4.328   2.633  10.669  2.6176 -0.6910 -2.1888
 1380TIP3    H228336   4.250   2.517  10.609 -0.8701 -0.1061  0.8621
 1381TIP3   OH228337   6.689   6.351  12.726  0.3912 -0.0349  0.0549
 1381TIP3    H128338   6.773   6.318  12.696  0.5047  1.2358 -1.1392
 1381TIP3    H228339   6.705   6.443  12.746 -0.6281  0.1334  0.1599
 1382TIP3   OH228340   3.066   5.539  11.940 -0.5131  0.5639  0.1761
 1382TIP3    H128341   3.096   5.478  12.007 -1.2466  0.3194  0.2794
 1382TIP3    H228342   3.092   5.499  11.857  1.4000  1.3883  0.3184
 1383TIP3   OH228343   1.448   5.349  12.568 -0.5760  0.5220 -0.1576
 1383TIP3    H128344   1.507   5.291  12.521 -0.2546 -0.4412  1.3433
 1383TIP3    H228345   1.361   5.313  12.551 -0.7111  1.5852 -1.8813
 1384TIP3   OH228346   0.518   2.755  10.807 -0.1616  0.7566 -0.2861
 1384TIP3    H128347   0.443   2.713  10.850 -0.9529  0.9723 -1.3824
 1384TIP3    H228348   0.481   2.834  10.767  0.6010  0.7471 -1.0451
 1385TIP3   OH228349   3.197   1.535  11.632 -0.2299 -0.1251 -0.0128
 1385TIP3    H128350   3.122   1.553  11.688 -1.5178 -1.1501 -1.3489
 1385TIP3    H228351   3.245   1.466  11.677 -0.9901 -0.6035  0.0663
 1386TIP3   OH228352   0.814   4.158  10.426 -0.3711  0.0701  0.2723
 1386TIP3    H128353   0.839   4.233  10.479  0.2707  1.0735 -1.3875
 1386TIP3    H228354   0.835   4.183  10.337  0.3076 -2.2656 -0.2985
 1387TIP3   OH228355   2.635   1.401  11.749  0.1377 -0.6577  0.2881
 1387TIP3    H128356   2.696   1.339  11.710  0.5771  0.6469 -1.2173
 1387TIP3    H228357   2.688   1.450  11.812  0.5020 -0.0504 -0.4605
 1388TIP3   OH228358   6.433   6.372  10.786 -0.0868  0.0859  0.0739
 1388TIP3    H128359   6.506   6.350  10.844  0.0709  0.6265  0.0890
 1388TIP3    H228360   6.359   6.321  10.819 -0.0318  0.4850  0.8318
 1389TIP3   OH228361   5.698   2.135  11.396 -0.4884  0.2798 -0.4801
 1389TIP3    H128362   5.790   2.114  11.414 -0.5862  0.7893  0.7092
 1389TIP3    H228363   5.697   2.160  11.303  0.3508 -0.8425 -0.8236
 1390TIP3   OH228364   5.879   0.434  10.965 -0.1646  0.0678 -0.2088
 1390TIP3    H128365   5.783   0.440  10.970 -0.2896 -0.8766 -1.1135
 1390TIP3    H228366   5.900   0.464  10.877  0.2691 -0.6746 -0.3708
 1391TIP3   OH228367   5.343   3.374  10.658 -0.2634 -0.0597  0.6361
 1391TIP3    H128368   5.393   3.409  10.732  0.6263  1.4410 -0.6171
 1391TIP3    H228369   5.374   3.424  10.582 -0.0394 -2.5645 -1.0423
 1392TIP3   OH228370   4.343   1.859  12.592  0.3361 -0.4576 -0.5386
 1392TIP3    H128371   4.318   1.784  12.538  0.4786 -0.6669 -0.3112
 1392TIP3    H228372   4.347   1.932  12.530  1.7485 -0.9444 -1.0472
 1393TIP3   OH228373   7.534   2.793  12.623  0.6508  0.4570 -0.0034
 1393TIP3    H128374   7.568   2.882  12.626  0.2508  0.5865  0.9742
 1393TIP3    H228375   7.489   2.781  12.707  1.4608 -0.9639  0.2570
 1394TIP3   OH228376   5.809   7.199  11.940 -0.7065  0.1739  0.0430
 1394TIP3    H128377   5.742   7.264  11.921 -0.1653  0.7620  0.1041
 1394TIP3    H228378   5.825   7.205  12.034 -2.2008 -1.5888  0.4699
 1395TIP3   OH228379   4.953   5.987  12.982 -0.1244  0.3362 -0.0771
 1395TIP3    H128380   4.873   5.981  12.930  1.3927  1.0570 -2.6616
 1395TIP3    H228381   4.939   6.063  13.038 -1.1167  0.6634 -0.7371
 1396TIP3   OH228382   3.317   3.458  11.753 -0.1273  0.1259  0.0747
 1396TIP3    H128383   3.276   3.394  11.694  0.5086  0.3730 -0.6613
 1396TIP3    H228384   3.269   3.450  11.835 -0.8728 -0.4106 -0.4032
 1397TIP3   OH228385   5.442   3.940  11.631 -0.8352  0.0108 -0.4716
 1397TIP3    H128386   5.494   4.019  11.639  3.0558 -2.3713  0.2048
 1397TIP3    H228387   5.419   3.916  11.721  1.2709 -1.4744 -0.2570
 1398TIP3   OH228388   0.705   5.400  12.177 -0.1497 -0.5100 -0.2301
 1398TIP3    H128389   0.676   5.488  12.150  0.7227  0.1508  0.8841
 1398TIP3    H228390   0.625   5.348  12.180 -0.5692 -0.0270 -1.8237
 1399TIP3   OH228391   5.621   6.671  10.753 -0.3664 -1.0470  0.2610
 1399TIP3    H128392   5.682   6.745  10.748 -0.8113 -0.5984  1.1687
 1399TIP3    H228393   5.582   6.667  10.666 -2.0155  1.2746  0.7836
 1400TIP3   OH228394   6.816   3.271  12.803  0.2913  0.0201 -0.2570
 1400TIP3    H128395   6.745   3.300  12.746  0.0273  0.7996  0.4568
 1400TIP3    H228396   6.812   3.175  12.800 -1.0984  0.0526  0.1553
 1401TIP3   OH228397   1.300   6.353  12.527 -0.2346  0.1126 -0.6101
 1401TIP3    H128398   1.231   6.307  12.479 -1.1735 -0.1327  0.8945
 1401TIP3    H228399   1.354   6.283  12.564  3.8496  0.1045 -5.4947
 1402TIP3   OH228400   4.943   6.061  10.646 -0.5041 -0.0522  0.5047
 1402TIP3    H128401   4.897   6.122  10.588 -0.3875  1.0587  1.5456
 1402TIP3    H228402   4.962   6.112  10.725  0.0945 -1.2828  1.1892
 1403TIP3   OH228403   2.126   3.999  11.206  0.5527  0.0245 -0.2002
 1403TIP3    H128404   2.128   4.086  11.248 -0.2050 -0.3699  0.6891
 1403TIP3    H228405   2.158   3.939  11.273 -0.9073 -0.6559 -0.0691
 1404TIP3   OH228406   0.548   4.901  12.411 -0.3865  0.0842 -0.2157
 1404TIP3    H128407   0.544   4.815  12.452 -0.1891 -0.2297 -0.8514
 1404TIP3    H228408   0.608   4.891  12.338  0.3148  0.9820  0.2074
 1405TIP3   OH228409   3.120   4.893  10.671 -0.4579 -0.2008 -0.2720
 1405TIP3    H128410   3.209   4.916  10.644 -2.0274  1.9489 -4.6592
 1405TIP3    H228411   3.099   4.815  10.619 -1.7426  0.5389 -0.9226
 1406TIP3   OH228412   1.957   5.550  10.557 -0.5814  0.1694 -0.0692
 1406TIP3    H128413   2.037   5.595  10.584 -1.5349  0.5199  2.4769
 1406TIP3    H228414   1.934   5.590  10.473  1.1169  1.0864 -0.1345
 1407TIP3   OH228415   4.975   5.852  11.415  0.2789  0.2305 -0.0460
 1407TIP3    H128416   4.915   5.905  11.469 -0.7545 -1.7095  0.8299
 1407TIP3    H228417   5.062   5.887  11.435 -0.3072  1.2083  0.9460
 1408TIP3   OH228418   5.750   1.365  10.548  0.3151  0.6597 -0.1940
 1408TIP3    H128419   5.675   1.306  10.542  1.4568 -0.9601  0.5836
 1408TIP3    H228420   5.728   1.439  10.491 -2.0172  0.4451  0.3182
 1409TIP3   OH228421   0.079   5.091   9.967 -0.2052  0.3304  0.0404
 1409TIP3    H128422   0.041   5.177   9.985  0.6487  0.4385  1.4119
 1409TIP3    H228423   0.163   5.110   9.924  0.0032  0.1815  0.3816
 1410TIP3   OH228424   2.676   1.165  10.920  0.4762 -0.3671  0.3495
 1410TIP3    H128425   2.698   1.258  10.921 -2.8885  0.5689  2.1647
 1410TIP3    H228426   2.751   1.123  10.963  1.9687  1.4468 -0.2965
 1411TIP3   OH228427   5.954   5.499   9.894 -0.3582 -0.6060  0.2257
 1411TIP3    H128428   5.918   5.585   9.913 -1.5212 -1.5480  2.6297
 1411TIP3    H228429   5.891   5.459   9.833 -0.0458  0.0336 -0.5398
 1412TIP3   OH228430   2.130   4.439  10.539 -0.0377  0.0161  0.1145
 1412TIP3    H128431   2.161   4.530  10.537 -0.1605  0.0468 -1.0520
 1412TIP3    H228432   2.060   4.439  10.605 -1.3953  1.2369 -1.2336
 1413TIP3   OH228433   3.345   7.279  11.592  0.1952 -0.7831  0.5930
 1413TIP3    H128434   3.334   7.185  11.584 -1.6817 -0.6511  1.2576
 1413TIP3    H228435   3.411   7.301  11.525 -0.4272 -2.3496 -0.5975
 1414TIP3   OH228436   6.779   0.775  10.489 -0.0702  0.3307  0.4681
 1414TIP3    H128437   6.820   0.735  10.566  0.6438 -1.4323 -0.7699
 1414TIP3    H228438   6.850   0.787  10.427 -0.9023  0.1514 -0.5465
 1415TIP3   OH228439   6.470   5.729  10.401  0.0121 -0.3328  0.5053
 1415TIP3    H128440   6.412   5.706  10.473  0.9251 -0.9903  1.0574
 1415TIP3    H228441   6.431   5.689  10.324  0.0260 -1.2368  0.9621
 1416TIP3   OH228442   2.256   2.662  10.671 -0.4259 -0.1187  0.1760
 1416TIP3    H128443   2.253   2.680  10.765 -1.0141  2.0829 -0.2109
 1416TIP3    H228444   2.164   2.659  10.645 -0.2521  0.4728 -0.5219
 1417TIP3   OH228445   4.281   3.315  12.803 -0.0423  0.0079 -0.8656
 1417TIP3    H128446   4.201   3.275  12.770 -0.0943  0.0321 -0.7705
 1417TIP3    H228447   4.325   3.246  12.852 -0.2658  0.1389 -0.4723
 1418TIP3   OH228448   3.687   3.334  12.352  0.0030  0.0693  0.0584
 1418TIP3    H128449   3.722   3.418  12.323 -0.2994  0.0873 -0.2514
 1418TIP3    H228450   3.753   3.301  12.413  0.2325  0.4230  0.0038
 1419TIP3   OH228451   7.409   0.399  12.156 -0.1425 -0.3150  0.1553
 1419TIP3    H128452   7.474   0.358  12.098  0.3639 -0.0743  0.5500
 1419TIP3    H228453   7.432   0.492  12.155 -0.5410 -0.2159  0.2218
 1420TIP3   OH228454   1.128   3.494  12.545 -0.7413 -0.4365 -0.6374
 1420TIP3    H128455   1.219   3.467  12.533 -1.0059 -1.2611 -0.8049
 1420TIP3    H228456   1.105   3.538  12.463 -0.6929 -0.7850 -0.8369
 1421TIP3   OH228457   1.817   0.255  10.701  0.1885 -0.5099 -0.1421
 1421TIP3    H128458   1.840   0.226  10.613 -1.8412 -0.4432 -0.7556
 1421TIP3    H228459   1.844   0.347  10.704 -0.1814 -0.3662 -0.8914
 1422TIP3   OH228460   6.944   5.597  10.790 -0.8743 -0.2069  0.5660
 1422TIP3    H128461   6.947   5.506  10.819 -0.2522 -0.2559  0.3675
 1422TIP3    H228462   6.863   5.604  10.739 -0.3684 -0.9546 -0.3723
 1423TIP3   OH228463   7.658   4.640  10.747 -0.5217 -0.4430 -0.0386
 1423TIP3    H128464   7.652   4.643  10.651  2.6389  1.2641 -0.3234
 1423TIP3    H228465   7.686   4.550  10.766 -1.0836 -0.7729 -0.7080
 1424TIP3   OH228466   3.420   7.105  10.840 -0.1299  0.3487  0.2128
 1424TIP3    H128467   3.453   7.095  10.750  0.3168  0.5074  0.3562
 1424TIP3    H228468   3.435   7.019  10.880 -1.2439 -0.0362 -0.1508
 1425TIP3   OH228469   3.430   7.511  10.439 -0.2032 -0.1406 -0.2214
 1425TIP3    H128470   3.460   7.569  10.368  1.3766  1.1583  1.4134
 1425TIP3    H228471   3.357   7.558  10.479  0.2386  0.1305  0.2825
 1426TIP3   OH228472   5.213   6.069  12.365  0.7882  0.2586 -0.0462
 1426TIP3    H128473   5.204   6.055  12.271  1.7017 -1.2333  0.0473
 1426TIP3    H228474   5.299   6.031  12.386  0.7538  0.8907  1.3295
 1427TIP3   OH228475   3.512   5.132  12.552 -0.2458 -0.1738 -0.3859
 1427TIP3    H128476   3.547   5.043  12.552 -0.3646 -0.2243  0.0378
 1427TIP3    H228477   3.583   5.185  12.588  0.0599  0.0077 -1.2198
 1428TIP3   OH228478   4.178   5.553  11.444  0.0723 -0.4919  0.3300
 1428TIP3    H128479   4.185   5.553  11.348 -0.8619  1.3543  0.2256
 1428TIP3    H228480   4.258   5.597  11.474 -1.4918  2.8127  0.1066
 1429TIP3   OH228481   4.855   6.261  12.618  0.5652  0.2014 -0.0182
 1429TIP3    H128482   4.856   6.198  12.546  0.3915  0.1999 -0.0193
 1429TIP3    H228483   4.846   6.346  12.575  3.0634  0.4556 -0.1786
 1430TIP3   OH228484   0.855   4.417  10.224 -0.0206 -0.8612 -0.0144
 1430TIP3    H128485   0.892   4.430  10.137  0.6060  0.0682  0.3759
 1430TIP3    H228486   0.861   4.322  10.238 -3.0620 -1.5405 -2.2320
 1431TIP3   OH228487   6.062   6.236  10.241  0.3224  0.0403  0.5557
 1431TIP3    H128488   6.019   6.280  10.314 -1.0247  0.5107 -0.4785
 1431TIP3    H228489   6.058   6.300  10.169  1.0805 -0.6294 -0.0991
 1432TIP3   OH228490   7.300   1.063  11.546  0.0358 -0.3627 -0.3329
 1432TIP3    H128491   7.334   0.979  11.518  0.5665 -0.1876 -0.2178
 1432TIP3    H228492   7.259   1.100  11.467  0.3265 -0.4639 -0.5317
 1433TIP3   OH228493   1.286   6.390  10.569  0.2007  0.2267  0.6350
 1433TIP3    H128494   1.280   6.482  10.597 -1.0077  0.4749 -0.3222
 1433TIP3    H228495   1.257   6.392  10.478  3.6696 -0.5845 -0.6018
 1434TIP3   OH228496   4.760   5.523  12.372  0.1329  0.0378  0.0785
 1434TIP3    H128497   4.714   5.541  12.454  2.2366 -0.7126  1.5200
 1434TIP3    H228498   4.788   5.610  12.341  0.1132  0.2680  0.6791
 1435TIP3   OH228499   1.516   5.171  11.207  0.0190 -0.0756  0.1130
 1435TIP3    H128500   1.558   5.256  11.194  1.6779 -0.9251 -0.3684
 1435TIP3    H228501   1.427   5.183  11.174  0.2061  1.4676  0.0791
 1436TIP3   OH228502   0.696   1.855  11.826  0.4459 -0.0556  0.3084
 1436TIP3    H128503   0.783   1.874  11.790  0.2107  0.1595 -0.1614
 1436TIP3    H228504   0.665   1.938  11.859  0.3464 -0.0947  0.3134
 1437TIP3   OH228505   7.588   6.564  12.003  0.3903 -0.0757  0.2698
 1437TIP3    H128506   7.575   6.659  12.013  0.3043 -0.0985  0.3790
 1437TIP3    H228507   7.680   6.550  12.026  0.6508  0.1011 -0.6065
 1438TIP3   OH228508   1.908   4.436  11.189  0.5360 -0.6018 -0.0647
 1438TIP3    H128509   1.906   4.532  11.185  1.5861 -0.5987 -0.9705
 1438TIP3    H228510   1.827   4.409  11.145 -0.5082 -0.1389  1.4979
 1439TIP3   OH228511   4.120   2.033  11.865 -0.2811 -0.0634 -0.4499
 1439TIP3    H128512   4.177   2.048  11.790 -0.3105 -1.3867 -0.7583
 1439TIP3    H228513   4.160   2.084  11.936  0.5951  0.0058 -0.9805
 1440TIP3   OH228514   5.240   7.397  11.380 -0.7510 -0.2855  0.5207
 1440TIP3    H128515   5.222   7.486  11.351 -0.3334 -0.2066  0.4927
 1440TIP3    H228516   5.273   7.352  11.302 -2.8102 -1.0285  0.0280
 1441TIP3   OH228517   6.355   7.139  11.933  0.1725 -0.0595 -0.2051
 1441TIP3    H128518   6.279   7.082  11.936  0.1415  0.0202  0.7460
 1441TIP3    H228519   6.427   7.082  11.908  0.0605 -0.4329  0.3105
 1442TIP3   OH228520   5.475   4.404  10.561 -0.9689  0.4062 -0.1526
 1442TIP3    H128521   5.462   4.458  10.483 -0.4821  1.4099  0.4416
 1442TIP3    H228522   5.556   4.357  10.544 -1.3734 -0.1369 -0.6555
 1443TIP3   OH228523   5.282   2.546  12.354 -0.2601  0.2161  0.4412
 1443TIP3    H128524   5.258   2.464  12.397 -1.0025  0.4113  0.4166
 1443TIP3    H228525   5.234   2.545  12.271 -0.0805  0.5661  0.3291
 1444TIP3   OH228526   7.302   2.121  11.370  0.1819  0.4982 -0.3808
 1444TIP3    H128527   7.258   2.150  11.290  0.8373  0.2496 -0.8357
 1444TIP3    H228528   7.393   2.110  11.344  0.0346 -1.5851 -0.1087
 1445TIP3   OH228529   3.148   5.012  12.643 -0.0688  0.1342 -0.3346
 1445TIP3    H128530   3.239   5.042  12.647  0.0157 -0.0745 -0.6369
 1445TIP3    H228531   3.097   5.093  12.640  0.0740  0.2571  0.4019
 1446TIP3   OH228532   4.941   4.102  11.274  0.2687  0.2543 -0.4376
 1446TIP3    H128533   4.918   4.023  11.225  0.3344  0.0038 -0.0741
 1446TIP3    H228534   5.034   4.115  11.256  0.0678  0.7325 -1.1644
 1447TIP3   OH228535   2.438   7.589  12.071  0.0924 -0.7914  0.3224
 1447TIP3    H128536   2.433   7.642  12.151 -0.2118  0.8537 -0.7369
 1447TIP3    H228537   2.480   7.646  12.007 -0.7388 -1.6376 -1.0316
 1448TIP3   OH228538   3.440   2.197  11.592  0.4729 -0.2119  0.1103
 1448TIP3    H128539   3.483   2.265  11.644  0.2004  1.3540 -1.6145
 1448TIP3    H228540   3.361   2.176  11.642  0.2783  1.1509  0.4176
 1449TIP3   OH228541   6.386   1.856   9.882 -0.1984 -0.0145  0.5724
 1449TIP3    H128542   6.442   1.798   9.830 -0.3386  0.5940 -0.2971
 1449TIP3    H228543   6.313   1.877   9.823 -0.3787  0.6672  1.0286
 1450TIP3   OH228544   0.889   0.159  11.576  0.4407 -0.0225 -0.4502
 1450TIP3    H128545   0.879   0.154  11.481  0.4741  0.7094 -0.4957
 1450TIP3    H228546   0.809   0.121  11.611 -0.3054  1.1883 -0.7908
 1451TIP3   OH228547   6.945   5.452  10.240  0.1812 -0.0118 -0.1046
 1451TIP3    H128548   6.972   5.427  10.152 -0.8902  1.4696 -0.9066
 1451TIP3    H228549   6.888   5.381  10.270 -0.3367 -0.0102 -1.0646
 1452TIP3   OH228550   4.511   4.832  12.246  0.1477 -0.3909  0.3706
 1452TIP3    H128551   4.428   4.833  12.293 -0.9876  0.3252 -1.5115
 1452TIP3    H228552   4.544   4.922  12.251  0.4478 -0.5035  0.4825
 1453TIP3   OH228553   7.092   4.741  12.989 -0.3371  0.2351  0.3010
 1453TIP3    H128554   7.180   4.703  12.982 -0.2407  0.6734 -1.3191
 1453TIP3    H228555   7.091   4.781  13.076  1.6435  1.5503 -0.1986
 1454TIP3   OH228556   5.185   7.197  10.948 -0.2920  0.2676  0.2131
 1454TIP3    H128557   5.111   7.256  10.942 -0.0979  0.5189  0.2649
 1454TIP3    H228558   5.218   7.189  10.858 -0.7384 -0.3080  0.0967
 1455TIP3   OH228559   5.059   3.518  11.416  0.1177 -0.3896  0.3713
 1455TIP3    H128560   5.118   3.491  11.347  0.5651  0.9395  0.1940
 1455TIP3    H228561   4.971   3.503  11.381  0.3467 -0.2891 -0.2566
 1456TIP3   OH228562   5.572   5.726  11.367 -0.6763  0.3005 -0.4662
 1456TIP3    H128563   5.596   5.746  11.276  0.3627 -0.9557 -0.4852
 1456TIP3    H228564   5.476   5.724  11.366 -0.7348  1.7256 -1.1968
 1457TIP3   OH228565   6.262   1.505  12.291  0.2005 -0.7273 -0.2187
 1457TIP3    H128566   6.201   1.575  12.267 -2.9866 -2.9656  0.6640
 1457TIP3    H228567   6.276   1.517  12.385  0.9076 -0.4111 -0.3588
 1458TIP3   OH228568   3.072   3.861  11.557 -0.4783 -0.1506 -0.6200
 1458TIP3    H128569   3.029   3.823  11.634  0.1028 -1.5981 -0.9815
 1458TIP3    H228570   3.076   3.790  11.494  0.3392  0.6201 -1.4662
 1459TIP3   OH228571   3.687   0.780  11.839  0.2409  0.3813 -0.4054
 1459TIP3    H128572   3.719   0.844  11.902  1.5096  0.0436 -0.6655
 1459TIP3    H228573   3.660   0.705  11.892 -0.2454  0.7187 -0.1709
 1460TIP3   OH228574   5.112   4.463  11.737 -0.5017  0.5776  0.3047
 1460TIP3    H128575   5.096   4.369  11.730  0.7205  0.2785  1.1380
 1460TIP3    H228576   5.029   4.499  11.768 -1.2324 -0.0992 -0.8001
 1461TIP3   OH228577   7.227   7.379  10.302  0.2770 -0.3977 -0.4837
 1461TIP3    H128578   7.254   7.300  10.253 -0.6519 -0.7046 -0.5153
 1461TIP3    H228579   7.302   7.438  10.294 -0.7780  0.7513 -4.7644
 1462TIP3   OH228580   3.492   3.248  12.203  0.5250 -0.5285 -0.2174
 1462TIP3    H128581   3.447   3.184  12.259 -0.9240  1.2132  0.6945
 1462TIP3    H228582   3.575   3.265  12.248 -0.5416  0.7151  1.3787
 1463TIP3   OH228583   0.256   2.641  11.020  0.0347 -0.1105 -0.9189
 1463TIP3    H128584   0.191   2.709  11.002 -0.7242 -0.7527 -0.6995
 1463TIP3    H228585   0.209   2.559  11.005  0.7387 -0.5925 -0.5460
 1464TIP3   OH228586   5.006   3.054  10.897  0.1927 -0.1357  0.2888
 1464TIP3    H128587   5.050   3.046  10.813  0.6663  0.5870  0.4661
 1464TIP3    H228588   5.012   2.966  10.936 -0.5094 -0.6210 -0.6472
 1465TIP3   OH228589   3.969   3.002  11.796 -0.0382  0.0168 -0.0701
 1465TIP3    H128590   3.967   3.020  11.890  1.5400 -0.8947  0.1747
 1465TIP3    H228591   4.000   2.912  11.789 -1.1569 -0.2965 -1.4551
 1466TIP3   OH228592   4.749   5.101  10.542 -0.2788  0.5222 -0.1653
 1466TIP3    H128593   4.703   5.056  10.613 -2.1616  1.3047 -0.8150
 1466TIP3    H228594   4.774   5.185  10.579  0.0097  0.3689 -0.0129
 1467TIP3   OH228595   3.817   2.765  11.529  0.4067  0.0613  0.1090
 1467TIP3    H128596   3.753   2.724  11.472 -0.0697 -0.4116  0.9521
 1467TIP3    H228597   3.819   2.856  11.502 -0.1431 -0.0599 -0.3595
 1468TIP3   OH228598   5.373   5.157  11.956  0.0804  0.1255 -0.1950
 1468TIP3    H128599   5.383   5.063  11.967 -1.1233  0.0417  0.3435
 1468TIP3    H228600   5.388   5.193  12.044  0.5237  0.4410 -0.3957
 1469TIP3   OH228601   0.584   7.679  11.148  0.1331 -0.2258  0.2335
 1469TIP3    H128602   0.563   7.759  11.196  1.8149 -0.6460  1.7703
 1469TIP3    H228603   0.661   7.702  11.096 -0.7769 -0.2165 -1.1627
 1470TIP3   OH228604   6.465   5.046  12.617 -0.3530  0.4082 -0.3314
 1470TIP3    H128605   6.376   5.015  12.600 -0.4805  1.1703 -1.1042
 1470TIP3    H228606   6.463   5.139  12.592 -0.5702  1.7477  3.8982
 1471TIP3   OH228607   2.766   4.021  12.572  0.0933  0.0968  0.1766
 1471TIP3    H128608   2.704   4.038  12.643 -0.6235  1.0310 -0.6588
 1471TIP3    H228609   2.749   4.089  12.508  0.0841 -1.2895 -1.3501
 1472TIP3   OH228610   0.069   1.306  11.019  0.0708  0.0408 -0.5476
 1472TIP3    H128611   0.039   1.380  10.967 -0.2696 -0.1024 -0.5588
 1472TIP3    H228612   0.005   1.300  11.090 -1.1110 -1.5182 -1.6784
 1473TIP3   OH228613   0.763   2.055  10.529  0.0420  0.0072  0.1703
 1473TIP3    H128614   0.740   1.976  10.480  0.5436 -0.3680  0.5366
 1473TIP3    H228615   0.679   2.100  10.542 -0.2937 -0.6257  0.2517
 1474TIP3   OH228616   1.565   5.818  12.576 -0.2981  0.4799 -0.2551
 1474TIP3    H128617   1.576   5.743  12.634 -0.6942  1.6760  1.4367
 1474TIP3    H228618   1.470   5.834  12.576 -0.2654  0.7183 -0.9640
 1475TIP3   OH228619   2.835   6.511  10.698 -0.5443  0.8540  0.0626
 1475TIP3    H128620   2.870   6.546  10.616 -0.7821  1.0140  0.0295
 1475TIP3    H228621   2.853   6.417  10.694 -1.0258  0.7804 -0.4051
 1476TIP3   OH228622   7.434   7.149  10.976  0.0585  0.0691  0.3184
 1476TIP3    H128623   7.365   7.197  11.021 -0.5779 -1.4049  0.9807
 1476TIP3    H228624   7.510   7.206  10.981 -0.8764  1.3587  0.3289
 1477TIP3   OH228625   7.013   5.224  10.482 -0.2548 -0.3184 -0.1044
 1477TIP3    H128626   6.930   5.204  10.524 -0.3077 -0.6188 -0.3430
 1477TIP3    H228627   6.999   5.201  10.390  0.3720 -1.2319  0.0077
 1478TIP3   OH228628   5.053   1.361   9.731  0.0427 -0.2693 -0.7159
 1478TIP3    H128629   5.016   1.449   9.723 -0.9013 -0.6223 -0.3140
 1478TIP3    H228630   5.020   1.328   9.815 -0.5401 -1.4405 -1.3894
 1479TIP3   OH228631   5.195   1.726  10.518  0.1600  0.2010 -0.1256
 1479TIP3    H128632   5.279   1.717  10.472 -0.3226 -1.2479 -0.7801
 1479TIP3    H228633   5.217   1.769  10.600  1.5651 -0.2506 -0.2410
 1480TIP3   OH228634   0.946   0.433   9.902  0.0176 -0.2219  0.2682
 1480TIP3    H128635   0.932   0.528   9.899  0.5439 -0.1566 -0.3789
 1480TIP3    H228636   0.859   0.397   9.918 -0.2657  0.3467  0.0604
 1481TIP3   OH228637   6.933   6.818  12.305  0.1436  0.3227  0.0738
 1481TIP3    H128638   6.926   6.913  12.319 -0.5063  0.7176 -2.4393
 1481TIP3    H228639   6.846   6.785  12.327  0.3175  0.3024  0.7751
 1482TIP3   OH228640   2.879   7.230  12.098  0.4704 -0.1645 -0.0795
 1482TIP3    H128641   2.859   7.173  12.172 -1.0107  1.5235  0.8990
 1482TIP3    H228642   2.795   7.270  12.076  1.4747  1.7368 -0.6276
 1483TIP3   OH228643   4.683   4.744  10.870 -0.0078  0.4718  0.6014
 1483TIP3    H128644   4.671   4.755  10.964 -1.7397 -1.2250  0.6190
 1483TIP3    H228645   4.711   4.653  10.860  2.6628  1.2893 -0.3923
 1484TIP3   OH228646   0.443   6.506  10.933 -0.3879  1.1126  0.0697
 1484TIP3    H128647   0.358   6.491  10.893 -0.8344  0.6053  1.1757
 1484TIP3    H228648   0.440   6.459  11.017  0.3972  2.3962  0.8655
 1485TIP3   OH228649   1.362   0.317  11.941 -0.1915  0.0015  0.1223
 1485TIP3    H128650   1.325   0.296  12.026 -0.4939  1.0896  0.2687
 1485TIP3    H228651   1.287   0.346  11.888  0.2109  0.7901 -0.0329
 1486TIP3   OH228652   2.276   5.846  10.250  0.0863  0.1537  0.0464
 1486TIP3    H128653   2.362   5.811  10.273  0.1058 -0.0429 -0.3231
 1486TIP3    H228654   2.295   5.933  10.214  0.2634 -0.4148 -1.2931
 1487TIP3   OH228655   0.422   0.100  12.469  0.7853 -0.6924 -0.3167
 1487TIP3    H128656   0.404   0.047  12.392  0.3704 -0.7413 -0.1869
 1487TIP3    H228657   0.342   0.150  12.483  1.0370 -0.3135 -0.2118
 1488TIP3   OH228658   7.152   5.428  12.024 -0.1589 -0.4591 -0.3365
 1488TIP3    H128659   7.081   5.412  12.086  1.2228  0.2804  1.5380
 1488TIP3    H228660   7.158   5.524  12.020  0.0129 -0.5044 -1.3611
 1489TIP3   OH228661   0.563   3.095  10.788 -0.4309  0.5189  0.1514
 1489TIP3    H128662   0.503   3.099  10.713 -2.8914  1.0608  2.0118
 1489TIP3    H228663   0.506   3.082  10.864  1.6771  2.6388  2.2766
 1490TIP3   OH228664   1.966   5.268  10.756  0.4849 -0.1389  0.1025
 1490TIP3    H128665   2.052   5.299  10.784  0.6646 -0.3906 -0.1534
 1490TIP3    H228666   1.945   5.196  10.816  0.4372 -0.0500  0.1907
 1491TIP3   OH228667   5.751   1.230  12.383 -0.3391 -0.1333 -0.2945
 1491TIP3    H128668   5.794   1.145  12.399  0.6173  0.4343  0.2836
 1491TIP3    H228669   5.705   1.249  12.465  1.9962  1.3179  0.7856
 1492TIP3   OH228670   4.146   2.738  12.311  0.0056  0.4782  0.0383
 1492TIP3    H128671   4.102   2.669  12.262  0.4662  1.0649 -1.2495
 1492TIP3    H228672   4.169   2.804  12.245  2.2792  0.4677  0.7229
 1493TIP3   OH228673   6.875   4.594  10.330 -0.1632  0.0734 -0.2184
 1493TIP3    H128674   6.956   4.544  10.334 -0.4645 -0.3538  0.9130
 1493TIP3    H228675   6.843   4.582  10.241  0.7455 -0.1740 -0.5189
 1494TIP3   OH228676   1.656   3.685  11.618 -0.1815  0.5001 -0.4950
 1494TIP3    H128677   1.736   3.705  11.668 -1.1396  0.2977  1.2204
 1494TIP3    H228678   1.640   3.763  11.565  0.2159  1.2456  0.4542
 1495TIP3   OH228679   4.971   4.949  10.584 -0.0812 -0.6396  0.8727
 1495TIP3    H128680   4.904   5.011  10.555  0.9837 -0.1295 -0.5876
 1495TIP3    H228681   5.022   4.999  10.648 -0.0409 -0.4748  0.7101
 1496TIP3   OH228682   5.797   1.702  11.875  0.6561 -0.0036  0.6254
 1496TIP3    H128683   5.707   1.734  11.873  0.6984  0.1056  0.4653
 1496TIP3    H228684   5.830   1.717  11.787  0.2980 -1.6018  0.1789
 1497TIP3   OH228685   4.171   3.582  11.648 -0.3549 -0.4280 -0.1341
 1497TIP3    H128686   4.156   3.670  11.684 -3.4317 -0.2794 -1.4990
 1497TIP3    H228687   4.092   3.533  11.670  1.0979 -2.8179  0.2219
 1498TIP3   OH228688   2.268   0.558  10.431  0.0498  0.1480  0.2410
 1498TIP3    H128689   2.327   0.586  10.501 -0.5974 -2.2949  1.9139
 1498TIP3    H228690   2.264   0.632  10.371  0.2239  2.6281  3.0577
 1499TIP3   OH228691   2.536   0.061  11.342  0.0320 -0.3447 -0.5461
 1499TIP3    H128692   2.543  -0.022  11.388 -0.8491 -0.9280 -1.4028
 1499TIP3    H228693   2.549   0.038  11.250  0.3626  0.5626 -0.7341
 1500TIP3   OH228694   6.008   5.934  12.106 -0.2395 -0.5216  0.2533
 1500TIP3    H128695   5.928   5.956  12.152 -0.2207 -2.2893  1.2073
 1500TIP3    H228696   5.990   5.850  12.063  1.4278 -1.5501  1.4452
 1501TIP3   OH228697   5.496   6.365  13.108 -0.0826 -0.4644  0.0820
 1501TIP3    H128698   5.428   6.301  13.086  0.7226 -1.6139  0.8183
 1501TIP3    H228699   5.459   6.449  13.083 -1.3661 -1.1693 -0.4755
 1502TIP3   OH228700   5.366   5.766  11.884 -0.4982 -0.0191 -1.0797
 1502TIP3    H128701   5.335   5.768  11.794  1.5912 -0.2205 -1.8498
 1502TIP3    H228702   5.391   5.675  11.900 -2.4933 -0.3947  0.3619
 1503TIP3   OH228703   6.905   6.458  12.449  0.0174  0.1066  0.1212
 1503TIP3    H128704   6.908   6.458  12.353  2.3784 -0.3023  0.1417
 1503TIP3    H228705   6.894   6.366  12.472  0.2491  0.1139  0.2558
 1504TIP3   OH228706   1.421   0.256  12.445 -0.2397  0.4659  0.5548
 1504TIP3    H128707   1.334   0.218  12.445  0.1934 -0.6039  1.9473
 1504TIP3    H228708   1.450   0.250  12.536  1.5441  0.1883  0.0072
 1505TIP3   OH228709   4.603   7.095  10.249 -0.4925  0.9896  0.5459
 1505TIP3    H128710   4.676   7.036  10.267  0.0730  1.2546 -0.7600
 1505TIP3    H228711   4.556   7.054  10.177 -0.1661  2.0463 -0.2915
 1506TIP3   OH228712   4.040   6.422  10.849  0.2489  1.3182  0.4812
 1506TIP3    H128713   4.080   6.345  10.890  0.0765  2.2905  2.6080
 1506TIP3    H228714   4.025   6.395  10.758  2.9384 -0.1245  0.3374
 1507TIP3   OH228715   3.633   1.845  12.220 -0.4401 -0.2181  0.1445
 1507TIP3    H128716   3.662   1.855  12.311  1.9206 -0.7467 -0.4860
 1507TIP3    H228717   3.696   1.895  12.169 -1.5331 -0.2172 -1.2652
 1508TIP3   OH228718   1.548   6.339  11.320 -0.3782 -0.3877  0.4352
 1508TIP3    H128719   1.588   6.254  11.339 -1.2054 -1.2573 -1.5074
 1508TIP3    H228720   1.464   6.337  11.366  0.1989 -0.0213  1.5413
 1509TIP3   OH228721   5.703   2.981  11.723 -0.0180  0.2585  0.2538
 1509TIP3    H128722   5.608   2.990  11.728 -0.3039 -1.6788 -0.8552
 1509TIP3    H228723   5.729   2.949  11.809 -0.9185 -2.8785 -0.5224
 1510TIP3   OH228724   2.276   0.444  12.060 -0.6799  0.1044 -0.6998
 1510TIP3    H128725   2.228   0.460  12.141 -0.2496 -1.0110 -0.2031
 1510TIP3    H228726   2.239   0.506  11.998 -1.6045  0.4041  0.1203
 1511TIP3   OH228727   5.394   4.145  12.040  0.1078 -0.1959  0.4298
 1511TIP3    H128728   5.477   4.119  12.080 -0.2519  1.1879  2.1967
 1511TIP3    H228729   5.381   4.236  12.067 -2.1100 -0.4617  0.4574
 1512TIP3   OH228730   0.409   5.289  11.147 -0.3429 -0.2349  0.6495
 1512TIP3    H128731   0.496   5.329  11.135 -0.1559 -0.8696 -0.1933
 1512TIP3    H228732   0.402   5.225  11.076 -1.7566  0.2297  0.3400
 1513TIP3   OH228733   0.782   6.892  10.749 -0.1889 -0.9428  0.8204
 1513TIP3    H128734   0.749   6.848  10.670 -1.8605  0.9095  0.4189
 1513TIP3    H228735   0.877   6.896  10.736 -0.4093 -0.8370 -1.0391
 1514TIP3   OH228736   5.607   2.476  10.226  0.3511  0.1067 -0.3282
 1514TIP3    H128737   5.533   2.444  10.174  0.5363 -1.8329  0.5077
 1514TIP3    H228738   5.568   2.511  10.306  0.2226  1.0657 -0.7928
 1515TIP3   OH228739   4.622   5.539  10.765 -0.2980 -0.1325 -0.1868
 1515TIP3    H128740   4.592   5.564  10.852 -2.0017 -0.4704 -0.6383
 1515TIP3    H228741   4.616   5.620  10.714 -1.4947 -0.4302 -0.5377
 1516TIP3   OH228742   6.365   7.040  12.696  0.6376 -0.0463 -0.8424
 1516TIP3    H128743   6.382   6.949  12.670  1.2060 -0.3213  0.3871
 1516TIP3    H228744   6.272   7.042  12.715  0.6461 -0.4188 -0.7423
 1517TIP3   OH228745   4.862   1.115  11.953  0.5678 -0.2316 -0.3496
 1517TIP3    H128746   4.829   1.069  11.876  1.5938 -2.6008  0.5052
 1517TIP3    H228747   4.790   1.113  12.015  0.0523  0.8510 -0.8908
 1518TIP3   OH228748   6.504   2.540  11.447  0.4362 -0.4539 -0.2870
 1518TIP3    H128749   6.452   2.563  11.370  0.3649 -0.0156 -0.1118
 1518TIP3    H228750   6.443   2.494  11.504  1.1520 -3.2558 -1.6424
 1519TIP3   OH228751   3.981   0.737  12.428 -0.0966  0.0499  0.1079
 1519TIP3    H128752   4.042   0.805  12.402  1.4905 -1.7506 -1.1566
 1519TIP3    H228753   4.030   0.684  12.492 -1.2357 -0.0223  0.9552
 1520TIP3   OH228754   3.157   5.119  11.336  0.1634 -0.4901 -0.0519
 1520TIP3    H128755   3.233   5.073  11.372  0.8999  0.9341  0.2919
 1520TIP3    H228756   3.184   5.145  11.248 -0.7422 -1.8407 -0.7594
 1521TIP3   OH228757   4.673   4.869  11.126  0.2360 -0.0349  0.1742
 1521TIP3    H128758   4.654   4.934  11.059  0.0257 -0.6765 -0.3937
 1521TIP3    H228759   4.714   4.919  11.197  0.7224  0.6001 -0.5448
 1522TIP3   OH228760   1.309   7.165  12.347 -0.4438  0.1048  0.1384
 1522TIP3    H128761   1.318   7.091  12.407  0.8898 -1.5910 -1.9876
 1522TIP3    H228762   1.215   7.183  12.345 -1.0051 -2.4361 -0.2303
 1523TIP3   OH228763   1.522   3.367  12.686 -0.1015  0.3811 -0.3942
 1523TIP3    H128764   1.579   3.301  12.727  0.4541  1.7503  1.1533
 1523TIP3    H228765   1.569   3.450  12.698 -1.0585  1.1558 -1.7673
 1524TIP3   OH228766   4.407   2.426  12.000 -0.3642  0.3370 -0.0021
 1524TIP3    H128767   4.428   2.439  12.092 -1.1067  3.5521 -0.1711
 1524TIP3    H228768   4.492   2.428  11.956  0.1167 -2.5526  0.6486
 1525TIP3   OH228769   4.838   4.971  11.333 -0.1185  0.5222  0.3499
 1525TIP3    H128770   4.789   4.967  11.415  1.5214  0.6341  1.3942
 1525TIP3    H228771   4.854   5.064  11.319 -0.8300  0.5418 -0.3903
 1526TIP3   OH228772   5.059   7.171  13.184 -0.2310  0.0795  0.2868
 1526TIP3    H128773   5.064   7.093  13.238  2.1390  0.1157  0.2521
 1526TIP3    H228774   5.132   7.162  13.122 -2.0099  0.6827 -2.0252
 1527TIP3   OH228775   6.342   0.233  12.501 -0.0399  0.4509  0.0620
 1527TIP3    H128776   6.421   0.179  12.498  0.0020  0.5592 -2.4275
 1527TIP3    H228777   6.285   0.198  12.433 -1.1815  1.8268  0.2470
 1528TIP3   OH228778   1.752   5.242  10.584 -0.0813  0.2508  0.0311
 1528TIP3    H128779   1.736   5.308  10.516  1.3181 -1.1378 -1.7373
 1528TIP3    H228780   1.832   5.271  10.628  0.7171 -0.3880 -0.9608
 1529TIP3   OH228781   6.358   6.356  11.269  0.2200  0.1087 -0.1620
 1529TIP3    H128782   6.363   6.411  11.191  0.7859  1.5303  0.8406
 1529TIP3    H228783   6.330   6.270  11.236  1.6802  0.3041 -2.0895
 1530TIP3   OH228784   5.146   6.104  10.210 -0.3719  0.3631 -0.3442
 1530TIP3    H128785   5.104   6.118  10.125  0.3534  2.8320 -0.3615
 1530TIP3    H228786   5.139   6.188  10.255 -0.6575 -0.8612  2.0509
 1531TIP3   OH228787   6.238   4.921  10.865  0.4356  0.1521 -0.4215
 1531TIP3    H128788   6.166   4.968  10.908  0.4914 -0.2439  0.1263
 1531TIP3    H228789   6.238   4.835  10.907  0.6260 -0.1801 -1.0878
 1532TIP3   OH228790   3.112   6.285  11.228 -0.4721  0.3002  0.3325
 1532TIP3    H128791   3.031   6.319  11.266 -0.1232 -0.2618  1.6409
 1532TIP3    H228792   3.147   6.357  11.177 -1.9711  0.4442 -0.5669
 1533TIP3   OH228793   1.197   5.308  12.184 -0.0623  0.3621  0.7961
 1533TIP3    H128794   1.148   5.239  12.139 -0.6344  1.9559 -1.2053
 1533TIP3    H228795   1.159   5.390  12.151  2.7210  1.6800  0.5243
 1534TIP3   OH228796   1.970   4.473  12.193  0.4623  0.1744 -0.1278
 1534TIP3    H128797   1.903   4.421  12.147  1.8727 -0.0151 -2.0853
 1534TIP3    H228798   2.027   4.408  12.233 -0.3520  0.3343  1.3489
 1535TIP3   OH228799   0.584   7.580  12.555  0.1367 -0.1905  0.0076
 1535TIP3    H128800   0.546   7.526  12.486 -2.1045  0.1478  0.9014
 1535TIP3    H228801   0.547   7.667  12.541  2.9114  0.9844 -0.8041
 1536TIP3   OH228802   1.496   5.267  12.135 -0.0776 -0.9579  0.4100
 1536TIP3    H128803   1.414   5.303  12.168 -1.2807 -0.7698 -2.4281
 1536TIP3    H228804   1.471   5.186  12.092  1.1629 -0.7869 -0.7078
 1537TIP3   OH228805   6.968   0.254  11.633  0.3050  0.7773  0.2256
 1537TIP3    H128806   6.890   0.307  11.618  1.3106  1.7747 -1.9161
 1537TIP3    H228807   6.956   0.218  11.721 -1.6775  2.3903  0.6946
 1538TIP3   OH228808   6.213   0.416  11.881 -1.0405 -0.3061 -0.0880
 1538TIP3    H128809   6.264   0.354  11.830  0.0985 -0.4533  1.1781
 1538TIP3    H228810   6.134   0.367  11.906  0.1494 -1.5346  1.4584
 1539TIP3   OH228811   5.838   1.999   9.928  0.3960 -0.2819 -0.0015
 1539TIP3    H128812   5.816   2.086   9.895  2.4346  0.2006 -0.2470
 1539TIP3    H228813   5.816   1.940   9.856  1.4414  0.3585 -0.8850
 1540TIP3   OH228814   5.924   2.445  11.346 -0.2373  0.1949  0.7416
 1540TIP3    H128815   5.995   2.388  11.373 -0.7160 -0.1764  1.2226
 1540TIP3    H228816   5.950   2.532  11.377 -0.9040 -0.2522  2.7028
 1541TIP3   OH228817   1.447   3.115  12.409 -0.3957  0.3987 -0.2382
 1541TIP3    H128818   1.431   3.201  12.448 -0.5076 -0.2943  1.2984
 1541TIP3    H228819   1.360   3.077  12.398 -0.2918  0.1278 -0.1075
 1542TIP3   OH228820   5.924   7.452  11.602 -0.0523 -0.1043 -0.4263
 1542TIP3    H128821   5.926   7.455  11.506  0.0909 -0.2054 -0.4263
 1542TIP3    H228822   5.917   7.359  11.623  1.6239 -0.2300 -0.3109
 1543TIP3   OH228823   6.312   2.836  11.455  0.3624 -0.3012  0.2265
 1543TIP3    H128824   6.308   2.848  11.550  0.5011 -2.2993  0.5291
 1543TIP3    H228825   6.284   2.920  11.419 -1.4421 -0.0612  2.0247
 1544TIP3   OH228826   3.147   2.773  12.074  0.5839 -0.5546 -0.5006
 1544TIP3    H128827   3.133   2.814  12.160  2.0657 -0.7937 -0.1204
 1544TIP3    H228828   3.124   2.681  12.087 -1.7376 -0.1262 -1.0857
 1545TIP3   OH228829   0.284   1.625  10.840 -0.5663 -0.3158  0.1557
 1545TIP3    H128830   0.301   1.709  10.883 -1.4246  0.7221 -1.4278
 1545TIP3    H228831   0.371   1.594  10.814 -0.0897 -0.6856  2.0179
 1546TIP3   OH228832   7.220   6.878  11.939 -0.2545 -0.1550  0.0103
 1546TIP3    H128833   7.133   6.848  11.911 -0.8085  0.7043  0.7595
 1546TIP3    H228834   7.281   6.817  11.897 -1.1666 -0.2511 -1.2376
 1547TIP3   OH228835   6.926   3.425  11.199  0.0970  0.2173  0.2147
 1547TIP3    H128836   7.019   3.442  11.214 -0.0396  0.5507  0.7319
 1547TIP3    H228837   6.888   3.422  11.287 -0.0349 -2.0651  0.1232
 1548TIP3   OH228838   4.417   6.264  11.858  0.4521 -0.3625 -0.0525
 1548TIP3    H128839   4.358   6.332  11.891  0.3111 -1.3339  1.8667
 1548TIP3    H228840   4.387   6.184  11.901 -1.2591 -2.3611 -4.4346
 1549TIP3   OH228841   6.573   5.788  12.841  0.0325  0.3681  0.5956
 1549TIP3    H128842   6.580   5.880  12.866 -0.6894  1.0692 -1.5816
 1549TIP3    H228843   6.648   5.774  12.783  0.1188 -0.4389  0.8869
 1550TIP3   OH228844   6.070   6.113  11.779 -0.1352 -0.1260  0.2832
 1550TIP3    H128845   6.002   6.053  11.808 -0.6993  0.6675  0.6283
 1550TIP3    H228846   6.051   6.128  11.687 -0.2132 -0.1740  0.2914
 1551TIP3   OH228847   1.554   6.449  11.060  0.2269 -0.4928  0.6078
 1551TIP3    H128848   1.595   6.397  10.991  0.4208 -1.5794  1.5175
 1551TIP3    H228849   1.567   6.398  11.140 -0.0988  0.6832  1.4375
 1552TIP3   OH228850   0.957   6.938  11.800  0.1796  0.7344 -0.4132
 1552TIP3    H128851   0.968   6.845  11.820  0.1530  0.6712 -0.6877
 1552TIP3    H228852   0.989   6.947  11.710  2.8017  1.4976  0.5190
 1553TIP3   OH228853   3.314   0.682  10.574 -0.5234  0.3756  0.5408
 1553TIP3    H128854   3.251   0.613  10.555  0.8840 -0.4886 -1.3051
 1553TIP3    H228855   3.396   0.651  10.535  1.0658  1.4818  2.7760
 1554TIP3   OH228856   6.531   3.704  10.197 -0.2739  0.1650  0.1942
 1554TIP3    H128857   6.506   3.792  10.168  0.0551 -0.1661 -1.1748
 1554TIP3    H228858   6.487   3.693  10.281 -0.5916  1.5088  0.2249
 1555TIP3   OH228859   4.913   7.401  12.932 -1.0075  0.4882 -0.7375
 1555TIP3    H128860   4.908   7.449  13.015  1.1429  0.7305 -0.6944
 1555TIP3    H228861   4.869   7.318  12.949 -3.7950  1.8705 -0.4639
 1556TIP3   OH228862   7.326   1.982  10.265  0.2494 -0.6888  0.0904
 1556TIP3    H128863   7.345   2.075  10.278 -0.7579 -0.6889  1.7999
 1556TIP3    H228864   7.238   1.981  10.227 -0.1709 -0.9554  1.0437
 1557TIP3   OH228865   3.295   5.988  12.100 -0.1160 -0.1269 -0.0197
 1557TIP3    H128866   3.239   5.942  12.037 -0.5146  1.2902 -0.7327
 1557TIP3    H228867   3.245   5.987  12.182 -1.0984  0.8667 -0.5729
 1558TIP3   OH228868   2.008   6.692  11.874 -0.4431 -0.2504  0.2494
 1558TIP3    H128869   1.922   6.667  11.908 -0.6905 -0.0196 -0.1970
 1558TIP3    H228870   2.034   6.767  11.926 -1.3877  0.8966 -0.8812
 1559TIP3   OH228871   7.661   7.257  12.634 -0.6826  0.7483 -0.0219
 1559TIP3    H128872   7.707   7.269  12.717  1.7353 -1.8899 -0.8214
 1559TIP3    H228873   7.596   7.189  12.652  1.5334 -1.7232 -0.6813
 1560TIP3   OH228874   7.076   0.062  10.522 -0.1663 -0.0802 -0.0197
 1560TIP3    H128875   7.123   0.127  10.574  0.6259  0.7558 -1.6940
 1560TIP3    H228876   7.102   0.080  10.432 -2.6098 -0.4972 -0.8937
 1561TIP3   OH228877   5.032   7.451  13.202 -0.0989  0.0860  0.1303
 1561TIP3    H128878   5.058   7.467  13.293  1.5481  2.2597 -0.6333
 1561TIP3    H228879   5.031   7.356  13.193 -0.0315 -0.1621  2.3287
 1562TIP3   OH228880   0.277   1.653  11.652  0.1720  0.3549  0.3136
 1562TIP3    H128881   0.246   1.736  11.689  0.9891  0.2196  1.3464
 1562TIP3    H228882   0.213   1.589  11.682 -0.0281  0.4889  0.1763
 1563TIP3   OH228883   5.448   1.283  10.656  0.4803 -0.1355  0.2166
 1563TIP3    H128884   5.481   1.352  10.597  0.8757  0.5822  1.2388
 1563TIP3    H228885   5.356   1.306  10.670  0.7352  0.5161  0.9555
 1564TIP3   OH228886   4.269   6.131  11.534 -0.2309 -0.3749  0.1884
 1564TIP3    H128887   4.231   6.064  11.591  0.9490 -0.8329  0.4654
 1564TIP3    H228888   4.241   6.214  11.573 -0.7715 -0.6977  0.4963
 1565TIP3   OH228889   1.519   2.717  11.006  0.0152  0.4362 -0.2717
 1565TIP3    H128890   1.544   2.668  10.927 -0.0761  0.7834 -0.5169
 1565TIP3    H228891   1.478   2.797  10.973 -0.4115  0.3839  0.1326
 1566TIP3   OH228892   5.597   1.532  12.636  0.3426 -0.4400  0.2301
 1566TIP3    H128893   5.585   1.447  12.679  0.1885 -1.0296 -0.9576
 1566TIP3    H228894   5.579   1.515  12.544  0.9342  0.7489 -0.1154
 1567TIP3   OH228895   3.735   0.985  11.369 -0.0428  0.2742 -0.1709
 1567TIP3    H128896   3.768   0.977  11.279  0.0995 -1.1174 -0.0224
 1567TIP3    H228897   3.676   1.060  11.367  0.3275  0.5528 -1.3098
 1568TIP3   OH228898   0.215   7.587  10.688 -0.1765  0.0005  0.2253
 1568TIP3    H128899   0.154   7.614  10.619 -0.4562 -0.9408  0.0995
 1568TIP3    H228900   0.174   7.616  10.770 -0.8627 -0.7444  0.1509
 1569TIP3   OH228901   3.295   3.705  12.823  0.3879  0.2016 -0.6074
 1569TIP3    H128902   3.219   3.653  12.799 -0.1573  0.9480 -0.5382
 1569TIP3    H228903   3.360   3.641  12.852 -0.4646 -0.4008  0.0378
 1570TIP3   OH228904   6.907   2.773  12.176  0.5153  0.0152  0.1066
 1570TIP3    H128905   6.989   2.815  12.203  0.3587  1.1281 -1.0485
 1570TIP3    H228906   6.858   2.843  12.133 -0.1960 -1.1405 -1.0178
 1571TIP3   OH228907   6.903   6.339  10.861  0.3680 -0.0023  0.4354
 1571TIP3    H128908   6.815   6.355  10.897  0.8127  1.8965  0.8000
 1571TIP3    H228909   6.927   6.422  10.820  0.9164 -1.3112 -2.1028
 1572TIP3   OH228910   3.795   6.936  11.398  0.0978  0.2632  1.0809
 1572TIP3    H128911   3.877   6.982  11.417  1.4029 -2.2796  2.0148
 1572TIP3    H228912   3.803   6.852  11.444 -2.5495 -0.5499  0.2354
 1573TIP3   OH228913   6.842   0.210  10.272  0.0970  0.1937  0.0767
 1573TIP3    H128914   6.916   0.265  10.249  0.2028 -0.5409 -1.4730
 1573TIP3    H228915   6.800   0.189  10.188 -1.7344  0.3940  0.8849
 1574TIP3   OH228916   6.670   0.230  12.427  0.5138 -0.1659 -0.1390
 1574TIP3    H128917   6.723   0.211  12.504 -0.3131 -0.0127  0.4758
 1574TIP3    H228918   6.603   0.161  12.426  0.6213 -0.2674 -0.8195
 1575TIP3   OH228919   1.080   0.880  10.832 -0.5997 -0.1025  0.1057
 1575TIP3    H128920   1.066   0.927  10.914 -1.4233 -0.9423  0.4550
 1575TIP3    H228921   1.176   0.876  10.823 -0.5087  1.2345  0.2814
 1576TIP3   OH228922   6.828   1.182  11.579 -0.0093 -0.7393 -0.2979
 1576TIP3    H128923   6.767   1.110  11.565 -1.9469  0.8429 -0.5495
 1576TIP3    H228924   6.860   1.204  11.491  0.5756 -1.2621 -0.2218
 1577TIP3   OH228925   6.883   2.205  11.475 -0.0330 -0.3863  0.4588
 1577TIP3    H128926   6.795   2.211  11.511 -0.5921 -0.3783 -0.8440
 1577TIP3    H228927   6.899   2.290  11.435  0.0942 -0.7591 -0.3174
 1578TIP3   OH228928   2.309   7.305  10.044  0.3573  0.0521 -0.3213
 1578TIP3    H128929   2.403   7.292  10.057  0.5123  1.9781  0.8880
 1578TIP3    H228930   2.293   7.393  10.077 -1.7081  0.1564 -1.4755
 1579TIP3   OH228931   4.654   2.188  10.855  0.0920 -0.0418 -0.1897
 1579TIP3    H128932   4.719   2.146  10.800 -1.9539 -1.4684 -1.6984
 1579TIP3    H228933   4.602   2.241  10.795 -1.0347 -0.1046  0.6886
 1580TIP3   OH228934   4.871   6.488  11.119  0.4901 -0.1128  0.0525
 1580TIP3    H128935   4.776   6.495  11.113  0.4212  1.0362  1.7439
 1580TIP3    H228936   4.887   6.406  11.166  0.3997 -0.6883 -0.8848
 1581TIP3   OH228937   4.094   0.294  10.543 -0.1337 -0.2806 -0.3978
 1581TIP3    H128938   4.047   0.347  10.479  1.5718  0.4750 -1.1126
 1581TIP3    H228939   4.182   0.331  10.544 -0.1583 -0.0629  2.6556
 1582TIP3   OH228940   5.505   4.634  12.197 -0.0365  0.0226  1.0236
 1582TIP3    H128941   5.581   4.689  12.215  1.3651 -0.8095 -1.7178
 1582TIP3    H228942   5.436   4.696  12.174  1.0002  0.7452 -0.2817
 1583TIP3   OH228943   1.342   0.603  11.958  0.5657  0.2950 -0.1346
 1583TIP3    H128944   1.409   0.536  11.973 -1.2329 -1.3440  1.0837
 1583TIP3    H228945   1.259   0.558  11.975 -0.8786  2.2281 -1.6064
 1584TIP3   OH228946   6.383   3.522  10.769  0.1209 -0.3101  0.6875
 1584TIP3    H128947   6.450   3.455  10.779 -1.0422 -1.3877  1.5654
 1584TIP3    H228948   6.381   3.568  10.853 -0.1914 -0.2435  0.6479
 1585TIP3   OH228949   0.053   0.580  12.425 -0.2820 -0.9865  0.5538
 1585TIP3    H128950   0.045   0.532  12.343  0.5472  0.6268 -0.5318
 1585TIP3    H228951  -0.037   0.590  12.456 -0.8019 -0.0499 -1.1477
 1586TIP3   OH228952   2.160   4.237  10.087  1.0620  0.5881  0.3084
 1586TIP3    H128953   2.227   4.177  10.120 -0.1161 -1.3869 -0.6962
 1586TIP3    H228954   2.096   4.180  10.044 -1.0065  2.4464  0.7689
 1587TIP3   OH228955   6.622   2.902  10.879 -0.3989  0.3803 -0.6540
 1587TIP3    H128956   6.624   2.900  10.783 -0.7140 -0.5371 -0.6551
 1587TIP3    H228957   6.530   2.887  10.901 -0.0851 -0.9546 -0.1946
 1588TIP3   OH228958   7.434   5.418  12.097 -0.4277  0.4853 -0.3618
 1588TIP3    H128959   7.434   5.387  12.188 -0.1390  1.4204 -0.0327
 1588TIP3    H228960   7.343   5.444  12.081 -1.1404 -2.2455 -1.2765
 1589TIP3   OH228961   4.869   5.751  12.666  0.2303 -0.3923  0.1567
 1589TIP3    H128962   4.939   5.813  12.644 -0.8696  1.0069  0.4499
 1589TIP3    H228963   4.889   5.724  12.755 -0.3244  1.1117  0.7820
 1590TIP3   OH228964   4.654   4.686  10.136  0.0783  0.5377 -0.1580
 1590TIP3    H128965   4.612   4.748  10.076  0.5121 -0.2010 -1.2718
 1590TIP3    H228966   4.747   4.703  10.126  0.1148  1.3785  1.4198
 1591TIP3   OH228967   5.838   0.987  10.568 -0.3300  0.1069 -0.1991
 1591TIP3    H128968   5.822   0.928  10.494  0.8029 -0.3396 -0.0986
 1591TIP3    H228969   5.932   0.980  10.585 -0.3688  1.1218  0.5174
 1592TIP3   OH228970   2.020   2.591  10.556 -0.1777  0.0989 -0.4854
 1592TIP3    H128971   1.949   2.621  10.500 -1.5313 -1.3109  0.3917
 1592TIP3    H228972   2.032   2.499  10.533  0.6056  0.0303  0.1568
 1593TIP3   OH228973   0.707   3.302  12.314  0.0499 -0.2795 -0.7319
 1593TIP3    H128974   0.699   3.395  12.294 -0.4150 -0.1055  0.2299
 1593TIP3    H228975   0.801   3.285  12.314  0.1399  0.2202 -0.7772
 1594TIP3   OH228976   5.545   6.878  13.148  0.1876  0.1328 -0.0861
 1594TIP3    H128977   5.612   6.934  13.108  2.0753 -2.3666 -0.7061
 1594TIP3    H228978   5.593   6.825  13.212 -1.4587 -0.8755  0.3785
 1595TIP3   OH228979   1.606   1.461  10.779 -0.3020 -0.2198 -0.2111
 1595TIP3    H128980   1.590   1.501  10.865  0.7209  1.5121 -0.7816
 1595TIP3    H228981   1.660   1.384  10.799 -0.5640 -0.1761  0.7418
 1596TIP3   OH228982   5.645   2.729  11.171  0.2916  0.1732 -1.4280
 1596TIP3    H128983   5.678   2.640  11.185  1.3885  0.7377 -0.1655
 1596TIP3    H228984   5.636   2.737  11.077 -2.8062 -2.3084 -1.5097
 1597TIP3   OH228985   6.045   1.643  11.670  0.6393 -0.1192 -0.6461
 1597TIP3    H128986   5.994   1.564  11.682  0.2393  0.2805  0.3666
 1597TIP3    H228987   5.981   1.714  11.672  1.2690  0.4539  1.4548
 1598TIP3   OH228988   7.509   3.529  11.476  0.1366  0.2056 -0.0248
 1598TIP3    H128989   7.484   3.542  11.567  0.7243  0.6193  0.0808
 1598TIP3    H228990   7.491   3.613  11.434 -0.7935 -0.1893 -0.4561
 1599TIP3   OH228991   6.002   4.945  11.486  0.1593  0.2009  0.1242
 1599TIP3    H128992   5.948   4.895  11.547  0.5400 -0.4005 -0.0266
 1599TIP3    H228993   6.071   4.885  11.459 -0.3044  0.2753 -1.3239
 1600TIP3   OH228994   4.576   7.673  10.818  0.0540  0.1688  0.0112
 1600TIP3    H128995   4.509   7.739  10.839  1.2869  1.0990  1.3059
 1600TIP3    H228996   4.595   7.631  10.902  1.4230  0.2932 -0.1983
 1601TIP3   OH228997   5.441   2.081  12.248 -0.0348  0.0907 -0.3257
 1601TIP3    H128998   5.367   2.112  12.198  0.6274 -0.0031 -1.3843
 1601TIP3    H228999   5.512   2.072  12.185  0.1700 -2.3283  0.1306
 1602TIP3   OH229000   2.523   2.510  12.420  0.3228  0.6311 -0.0298
 1602TIP3    H129001   2.508   2.519  12.326  0.1592  0.6166 -0.0063
 1602TIP3    H229002   2.544   2.598  12.451 -0.6004  0.8208  0.0846
 1603TIP3   OH229003   6.753   4.555  10.088  0.2218 -0.1408  0.0344
 1603TIP3    H129004   6.665   4.576  10.118  0.5130  1.1183  0.0738
 1603TIP3    H229005   6.757   4.459  10.089 -0.2577 -0.2193  2.6853
 1604TIP3   OH229006   7.048   4.112  11.187 -0.0466  0.3879  0.0556
 1604TIP3    H129007   7.027   4.192  11.139  0.2928  0.4199 -0.0368
 1604TIP3    H229008   7.008   4.042  11.135 -0.5821  0.5161  0.2791
 1605TIP3   OH229009   6.140   2.200  12.875 -0.2685  0.0720 -0.6859
 1605TIP3    H129010   6.060   2.232  12.835 -0.1941  0.4741 -0.5305
 1605TIP3    H229011   6.130   2.221  12.968 -0.1132 -0.1458 -0.6195
 1606TIP3   OH229012   5.833   1.817  11.638  0.2809  0.3024 -0.1516
 1606TIP3    H129013   5.791   1.888  11.687  1.1842  0.5059  0.3408
 1606TIP3    H229014   5.810   1.836  11.547  0.7282  1.3909 -0.0578
 1607TIP3   OH229015   5.297   3.258  11.445  0.1647  0.6600 -0.1378
 1607TIP3    H129016   5.225   3.283  11.503 -0.2994 -0.9703  0.0571
 1607TIP3    H229017   5.361   3.329  11.453 -0.4642  1.0915  1.3678
 1608TIP3   OH229018   2.490   2.970  12.195 -0.1579  0.0642 -0.4429
 1608TIP3    H129019   2.413   2.924  12.161 -0.1000 -0.7426  0.5031
 1608TIP3    H229020   2.506   3.039  12.131 -2.0148  0.6116 -0.3736
 1609TIP3   OH229021   4.103   0.968  11.123  0.0593  0.2795  0.4944
 1609TIP3    H129022   4.119   0.990  11.031 -0.8308 -0.0117  0.2607
 1609TIP3    H229023   4.145   1.039  11.172  1.4823 -0.1257 -0.0924
 1610TIP3   OH229024   4.200   6.410  11.532 -0.3486 -0.5522  0.0529
 1610TIP3    H129025   4.222   6.389  11.441  0.1009  0.1437 -0.0109
 1610TIP3    H229026   4.228   6.502  11.542 -1.7112 -0.1622  0.4637
 1611TIP3   OH229027   2.599   1.060  11.761  0.2761 -0.0430  0.2683
 1611TIP3    H129028   2.609   1.118  11.836  0.6693 -0.1405  0.2950
 1611TIP3    H229029   2.596   0.972  11.799 -0.4636 -0.0401  0.2403
 1612TIP3   OH229030   4.526   2.982  11.477  0.3909  0.3994 -0.3097
 1612TIP3    H129031   4.507   3.075  11.491  0.9002  0.7170 -1.6056
 1612TIP3    H229032   4.445   2.946  11.442 -0.0957  0.1381  1.0286
 1613TIP3   OH229033   0.444   5.257  12.651 -0.2807 -0.2350 -0.2467
 1613TIP3    H129034   0.436   5.295  12.738  1.6286  1.1786 -0.5983
 1613TIP3    H229035   0.511   5.189  12.661 -0.4164 -0.4059 -0.5016
 1614TIP3   OH229036   2.725   6.301  11.754 -0.2272 -0.2824  0.5600
 1614TIP3    H129037   2.651   6.268  11.806 -1.0437  1.7229  0.7462
 1614TIP3    H229038   2.785   6.336  11.819 -0.5776  0.9161  0.2518
 1615TIP3   OH229039   2.778   5.104  10.620 -0.5280  0.5871  0.5012
 1615TIP3    H129040   2.807   5.046  10.689 -1.9731 -0.8713 -0.0537
 1615TIP3    H229041   2.853   5.112  10.562  0.1975  0.5822  1.4219
 1616TIP3   OH229042   5.870   3.013  11.136 -0.0493  0.0073  0.3210
 1616TIP3    H129043   5.893   2.992  11.227 -1.0887 -0.8878  0.3955
 1616TIP3    H229044   5.846   2.929  11.098 -1.0369  0.5900 -0.3705
 1617TIP3   OH229045   5.184   1.959  12.482 -0.0970 -0.0290 -0.0720
 1617TIP3    H129046   5.216   2.000  12.562  0.2243  0.2270 -0.3301
 1617TIP3    H229047   5.157   2.032  12.427 -3.4510 -0.2419  1.0460
 1618TIP3   OH229048   7.384   7.226  10.088 -0.5864  0.3742  0.2128
 1618TIP3    H129049   7.328   7.287  10.040 -0.6526  0.4383  0.3698
 1618TIP3    H229050   7.460   7.278  10.112 -0.4629  0.2889  0.0070
 1619TIP3   OH229051   5.323   7.140  12.196  0.1964 -0.0746  0.1143
 1619TIP3    H129052   5.390   7.134  12.128 -0.4300  0.6427 -0.5861
 1619TIP3    H229053   5.271   7.060  12.185 -0.0280  0.1319 -0.4073
 1620TIP3   OH229054   0.560   3.983  10.955  0.2506  0.1639 -0.6238
 1620TIP3    H129055   0.595   4.039  11.024 -0.0519 -0.4092  0.0098
 1620TIP3    H229056   0.485   4.032  10.920  1.9525  1.6406 -2.3595
 1621TIP3   OH229057   7.370   1.904  12.218 -0.3151  0.0725 -0.3098
 1621TIP3    H129058   7.405   1.972  12.161 -1.3037 -0.3692 -1.4959
 1621TIP3    H229059   7.304   1.859  12.164  0.0622 -1.5879  0.5534
 1622TIP3   OH229060   1.163   4.134  10.388  0.3291  0.3425  0.3463
 1622TIP3    H129061   1.173   4.180  10.305 -1.0700  1.7268  0.8960
 1622TIP3    H229062   1.105   4.190  10.440 -2.4023 -2.5393  0.7007
 1623TIP3   OH229063   3.215   0.991  11.179 -0.1495 -0.0028  0.1465
 1623TIP3    H129064   3.227   0.962  11.089 -0.3110  0.8258 -0.1530
 1623TIP3    H229065   3.175   0.916  11.223 -3.4803  0.7407 -1.3321
 1624TIP3   OH229066   5.744   0.497  11.525  0.2900  0.0105  0.1054
 1624TIP3    H129067   5.758   0.432  11.457  1.1220  0.7692 -0.4660
 1624TIP3    H229068   5.682   0.559  11.487 -1.6481 -1.1608  1.1619
 1625TIP3   OH229069   7.617   6.893   9.860 -0.1651 -0.3881  0.0278
 1625TIP3    H129070   7.522   6.882   9.858 -0.0166 -1.9559  0.4736
 1625TIP3    H229071   7.633   6.956   9.931 -0.9679  1.5083 -1.4013
 1626TIP3   OH229072   3.098   6.907  11.755 -0.4711 -0.2015 -0.2562
 1626TIP3    H129073   3.036   6.936  11.822 -1.1263 -2.2369  0.0665
 1626TIP3    H229074   3.179   6.953  11.777 -1.2738  0.9005  0.5571
 1627TIP3   OH229075   2.888   0.653  11.322  0.3827 -0.1545 -0.2701
 1627TIP3    H129076   2.946   0.596  11.371  0.0609 -0.5811 -0.3798
 1627TIP3    H229077   2.807   0.603  11.313  0.6137 -0.3203 -1.7116
 1628TIP3   OH229078   1.586   1.746  10.846  0.3321  0.0020 -0.6430
 1628TIP3    H129079   1.499   1.748  10.806  0.6453  0.9220 -1.2907
 1628TIP3    H229080   1.643   1.792  10.785  1.0747  0.3512  0.2733
 1629TIP3   OH229081   3.872   3.931  10.223 -0.3700  0.1587  0.3986
 1629TIP3    H129082   3.794   3.987  10.226  0.0932  0.7836  1.7163
 1629TIP3    H229083   3.938   3.979  10.275  0.0074 -1.6504  1.6852
 1630TIP3   OH229084   1.008   6.415  12.656  0.0042 -0.0503 -0.1806
 1630TIP3    H129085   1.098   6.430  12.627 -0.1619 -0.1819 -0.7782
 1630TIP3    H229086   0.979   6.501  12.688  0.4511 -0.0876  0.3360
 1631TIP3   OH229087   3.192   5.103  11.036  0.1406  0.3424  0.1047
 1631TIP3    H129088   3.264   5.106  10.972  1.9879 -0.3556  2.0341
 1631TIP3    H229089   3.159   5.014  11.030 -0.2227  0.5098 -0.4211
 1632TIP3   OH229090   5.610   6.728  12.753  0.7452  0.4140 -0.4213
 1632TIP3    H129091   5.594   6.685  12.669  0.0503  0.1038 -0.1356
 1632TIP3    H229092   5.543   6.694  12.811 -0.1278  2.2061 -0.3033
 1633TIP3   OH229093   5.404   6.095  11.747  0.5991  0.1910  0.0135
 1633TIP3    H129094   5.423   6.118  11.838  1.4997 -2.2491  0.5164
 1633TIP3    H229095   5.491   6.086  11.706  0.3065 -1.2827 -0.3474
 1634TIP3   OH229096   6.895   0.084   9.530 -0.3193 -0.2339 -0.1803
 1634TIP3    H129097   6.943   0.002   9.537 -0.0202  0.0104  0.8220
 1634TIP3    H229098   6.957   0.145   9.490 -0.7265 -0.6228 -1.4483
 1635TIP3   OH229099   4.628   2.414  11.052  0.2764  0.5106  0.4184
 1635TIP3    H129100   4.631   2.359  10.974 -0.4288 -0.9606  1.3920
 1635TIP3    H229101   4.544   2.459  11.046  0.4799  0.8627  0.0623
 1636TIP3   OH229102   3.297   1.832  12.388 -0.2152 -0.2287 -0.2061
 1636TIP3    H129103   3.389   1.811  12.376 -0.3519 -0.2831 -1.2640
 1636TIP3    H229104   3.254   1.746  12.396 -0.5696 -0.4191 -2.9890
 1637TIP3   OH229105   2.776   6.357  11.091 -0.4235  0.1673 -0.1804
 1637TIP3    H129106   2.809   6.368  11.180 -0.6460  0.4265 -0.1295
 1637TIP3    H229107   2.690   6.400  11.091 -0.4560  0.1079 -0.4980
 1638TIP3   OH229108   6.096   1.981  11.615 -0.0834  0.1755  0.3761
 1638TIP3    H129109   6.066   1.946  11.699  0.4982 -0.9770  0.1170
 1638TIP3    H229110   6.024   2.035  11.585 -0.5462  0.1126  1.3339
 1639TIP3   OH229111   6.043   6.194  12.781 -0.3773  0.1987  0.0139
 1639TIP3    H129112   6.135   6.197  12.805 -0.4586 -0.1230  0.3727
 1639TIP3    H229113   6.001   6.261  12.836 -0.2926  0.6631 -0.4713
 1640TIP3   OH229114   0.795   3.847  12.596 -0.0128 -0.1742  0.1502
 1640TIP3    H129115   0.826   3.937  12.602 -0.8513  0.0884  0.6719
 1640TIP3    H229116   0.706   3.850  12.631  0.5609 -1.5109  1.8982
 1641TIP3   OH229117   7.651   2.565  12.499 -0.1470  0.7476 -0.4610
 1641TIP3    H129118   7.603   2.638  12.538  0.1635  1.1718 -0.8693
 1641TIP3    H229119   7.625   2.489  12.552 -0.2063  1.2049  0.1862
 1642TIP3   OH229120   7.602   3.460  10.195  0.4036  0.3536 -0.6498
 1642TIP3    H129121   7.577   3.377  10.236  2.0822  0.0051 -0.2822
 1642TIP3    H229122   7.589   3.445  10.101 -1.2345  0.3905 -0.4680
 1643TIP3   OH229123   5.743   6.093  12.898  0.1850  0.2551  0.3943
 1643TIP3    H129124   5.653   6.084  12.931 -0.2240  0.5237 -0.6190
 1643TIP3    H229125   5.774   6.176  12.935 -0.8200  1.3432 -1.1014
 1644TIP3   OH229126   4.255   0.978  12.654 -0.2089 -0.4558  0.0306
 1644TIP3    H129127   4.313   0.912  12.691  1.2751  0.2568 -0.8897
 1644TIP3    H229128   4.173   0.932  12.637 -0.0015 -1.4521  1.5617
 1645TIP3   OH229129   1.777   4.809  11.690  0.2690  0.3141 -0.1963
 1645TIP3    H129130   1.763   4.715  11.674 -0.2058 -0.0484  1.9828
 1645TIP3    H229131   1.865   4.826  11.657  0.3612 -0.9051 -0.6288
 1646TIP3   OH229132   6.713   4.976  11.959 -0.8528  0.6009  0.1357
 1646TIP3    H129133   6.692   4.884  11.947 -2.1192  0.6847  1.4795
 1646TIP3    H229134   6.807   4.977  11.978 -0.5785 -0.2666 -1.0491
 1647TIP3   OH229135   2.844   7.259  10.179  0.4382 -0.4238 -0.1395
 1647TIP3    H129136   2.897   7.266  10.258 -0.4884  1.0803  0.3996
 1647TIP3    H229137   2.862   7.171  10.145  1.7783 -0.6458  1.0638
 1648TIP3   OH229138   0.993   4.309  11.487 -0.6185 -0.5086  0.3155
 1648TIP3    H129139   0.948   4.225  11.490 -0.1258 -0.7684  0.6452
 1648TIP3    H229140   0.994   4.339  11.578 -1.8244  0.4229  0.0436
 1649TIP3   OH229141   4.857   4.481  11.213  0.3780 -0.0361  0.4944
 1649TIP3    H129142   4.774   4.513  11.177  1.7814 -0.3680 -3.5438
 1649TIP3    H229143   4.870   4.532  11.293 -2.6442  1.5617  0.0956
 1650TIP3   OH229144   2.333   0.623  11.196  0.0132 -0.2772 -0.4285
 1650TIP3    H129145   2.402   0.568  11.234 -0.1257  0.3049  0.7042
 1650TIP3    H229146   2.280   0.562  11.145  1.2628 -0.7645 -1.1982
 1651TIP3   OH229147   6.381   6.623   9.531 -0.1578  0.3214 -0.5018
 1651TIP3    H129148   6.409   6.558   9.596  1.1408  1.0628 -0.2845
 1651TIP3    H229149   6.463   6.655   9.492 -0.6996  2.2817 -0.1520
 1652TIP3   OH229150   1.703   1.259  10.989  0.3043 -0.3274  0.1215
 1652TIP3    H129151   1.785   1.296  10.958  0.2322 -0.6289 -0.4521
 1652TIP3    H229152   1.678   1.314  11.064 -0.9683  2.3346 -2.0604
 1653TIP3   OH229153   0.840   0.431  12.133 -0.6209  0.1144  0.1386
 1653TIP3    H129154   0.849   0.472  12.047 -0.7825  0.4954  0.2997
 1653TIP3    H229155   0.782   0.490  12.181  0.1009  0.3277  0.7714
 1654TIP3   OH229156   2.417   3.459  11.860 -0.5280  0.2445  0.4902
 1654TIP3    H129157   2.503   3.474  11.900  0.0733 -0.7721 -0.3785
 1654TIP3    H229158   2.356   3.460  11.934  0.3482  0.0072  1.2388
 1655TIP3   OH229159   5.974   0.616  11.634 -0.8799  0.0716  0.0688
 1655TIP3    H129160   5.897   0.570  11.602 -0.1963  0.2862 -1.9983
 1655TIP3    H229161   6.028   0.631  11.557  1.0606  0.2971  1.3839
 1656TIP3   OH229162   6.015   1.020  10.212 -0.5959 -0.3049 -0.0988
 1656TIP3    H129163   5.947   0.959  10.184 -0.4744 -0.6759  0.4056
 1656TIP3    H229164   6.096   0.984  10.177 -0.5125 -0.4772  0.2771
 1657TIP3   OH229165   0.602   5.677  12.047  0.3603  0.6158 -0.2728
 1657TIP3    H129166   0.676   5.704  12.101  1.4799  0.2681 -1.5691
 1657TIP3    H229167   0.577   5.757  12.000 -0.4089  0.8430  0.5014
 1658TIP3   OH229168   2.581   4.702  12.699  0.0755 -0.0123  0.1626
 1658TIP3    H129169   2.603   4.743  12.782  1.5396  0.8802 -0.6135
 1658TIP3    H229170   2.497   4.741  12.674 -0.3368 -0.2329  1.1720
 1659TIP3   OH229171   7.253   5.651  10.291  0.1860 -0.3314  0.1149
 1659TIP3    H129172   7.215   5.654  10.203  0.7569 -0.4141 -0.1374
 1659TIP3    H229173   7.178   5.638  10.349 -0.0759 -1.5738 -0.4677
 1660TIP3   OH229174   6.807   5.388  11.781 -0.3522 -0.0700  0.2558
 1660TIP3    H129175   6.784   5.426  11.696  0.1020  0.4526  0.3540
 1660TIP3    H229176   6.903   5.383  11.779 -0.3831 -0.7367  0.4525
 1661TIP3   OH229177   2.927   1.154  11.043  0.9645  0.1738  0.0495
 1661TIP3    H129178   2.976   1.072  11.038 -0.1958 -0.5053 -0.8026
 1661TIP3    H229179   2.967   1.211  10.978  0.8512 -0.2430 -0.3873
 1662TIP3   OH229180   6.631   6.823  12.466 -0.5463 -0.3842 -0.3843
 1662TIP3    H129181   6.632   6.755  12.398  0.2481 -0.5961 -0.1655
 1662TIP3    H229182   6.585   6.896  12.425  2.1747  0.4926 -2.1531
 1663TIP3   OH229183   4.706   2.955  10.349 -0.2793 -0.2138 -0.0968
 1663TIP3    H129184   4.794   2.966  10.387 -0.1055 -0.8518 -0.2929
 1663TIP3    H229185   4.716   2.881  10.289 -0.5345  0.7870 -1.4214
 1664TIP3   OH229186   6.568   1.017  12.302 -0.0210  0.4229 -0.3677
 1664TIP3    H129187   6.549   1.070  12.225 -0.0527 -1.4673 -1.7274
 1664TIP3    H229188   6.511   1.053  12.370 -0.1984  1.9524 -1.2733
 1665TIP3   OH229189   1.748   7.543  11.560 -0.2079 -0.1240 -0.1175
 1665TIP3    H129190   1.823   7.591  11.524  2.0713 -2.0072  1.7384
 1665TIP3    H229191   1.716   7.599  11.631  0.1989  0.2071 -0.1881
 1666TIP3   OH229192   2.966   3.052  11.928  0.0561  0.4774  0.1478
 1666TIP3    H129193   3.014   3.066  11.846 -0.1150 -2.5538 -0.5846
 1666TIP3    H229194   3.028   3.008  11.985 -1.3155 -2.3050 -0.3441
 1667TIP3   OH229195   7.029   3.452  12.878  0.3079 -0.2967  0.5565
 1667TIP3    H129196   6.939   3.423  12.893  0.6588 -1.4040  0.5786
 1667TIP3    H229197   7.068   3.383  12.825  0.8721  0.6435 -0.2766
 1668TIP3   OH229198   4.929   1.720  11.794  0.4569  1.2430  0.2796
 1668TIP3    H129199   4.912   1.698  11.703 -0.1711  0.4395  0.5864
 1668TIP3    H229200   4.861   1.783  11.817  0.5667  1.3836  0.2270
 1669TIP3   OH229201   3.787   3.316  10.188 -0.0869 -0.6706 -0.1739
 1669TIP3    H129202   3.833   3.396  10.162 -1.0420 -0.1317 -0.2331
 1669TIP3    H229203   3.695   3.341  10.193 -0.1537 -1.1766  2.0813
 1670TIP3   OH229204   3.583   6.806  12.302  0.4129  0.3639 -0.2120
 1670TIP3    H129205   3.549   6.895  12.297  0.8505  0.6487  1.3433
 1670TIP3    H229206   3.664   6.807  12.252  2.9743  2.1797  3.4987
 1671TIP3   OH229207   4.401   1.130  10.784 -0.1154 -0.1380  0.3630
 1671TIP3    H129208   4.471   1.195  10.773 -0.3588  0.2421  0.9912
 1671TIP3    H229209   4.362   1.122  10.697 -0.3505  0.8753  0.3593
 1672TIP3   OH229210   4.522   0.661  10.102 -0.2656  0.2118 -0.1728
 1672TIP3    H129211   4.589   0.595  10.085  0.0185  0.6089 -0.6209
 1672TIP3    H229212   4.439   0.616  10.084 -0.1965 -0.5984  1.4090
 1673TIP3   OH229213   6.315   6.130  12.408  0.3058 -0.1696  0.4768
 1673TIP3    H129214   6.385   6.094  12.354  0.4207  0.0996  0.4419
 1673TIP3    H229215   6.270   6.054  12.444  0.9199 -0.3415  0.8905
 1674TIP3   OH229216   3.618   4.544  12.198  0.1647  0.2257  0.2151
 1674TIP3    H129217   3.528   4.574  12.184  0.2930  0.2311 -0.7181
 1674TIP3    H229218   3.623   4.461  12.149  1.1019  1.0355 -1.1305
 1675TIP3   OH229219   0.142   4.433  10.780 -0.0705 -0.1721 -0.4273
 1675TIP3    H129220   0.158   4.393  10.866  0.3603 -0.8718 -0.8228
 1675TIP3    H229221   0.082   4.372  10.737 -0.0696  0.0391 -0.7232
 1676TIP3   OH229222   5.898   2.850  10.870 -0.6521  0.6266  0.0410
 1676TIP3    H129223   5.874   2.854  10.777 -0.4480  0.3118 -0.0277
 1676TIP3    H229224   5.957   2.925  10.883  1.3272 -0.7346 -0.6804
 1677TIP3   OH229225   3.765   1.596  11.078  0.7931 -0.0053  0.4347
 1677TIP3    H129226   3.695   1.654  11.108  0.7620 -0.0096  0.3715
 1677TIP3    H229227   3.787   1.628  10.991  1.0886  0.1875  0.5821
 1678TIP3   OH229228   4.864   6.368  10.736  0.0488  0.0465 -0.0391
 1678TIP3    H129229   4.871   6.384  10.642 -0.6441  0.2410 -0.0649
 1678TIP3    H229230   4.926   6.430  10.776  0.3797 -0.0721 -0.3685
 1679TIP3   OH229231   0.588   3.725  10.900 -0.3294 -0.3727  0.7212
 1679TIP3    H129232   0.501   3.710  10.863 -1.3498  1.7232  2.0406
 1679TIP3    H229233   0.590   3.819  10.918  1.5362 -0.6743  2.4076
 1680TIP3   OH229234   7.007   3.889  11.699  0.0981  0.4757 -0.0348
 1680TIP3    H129235   7.083   3.925  11.653  0.7371 -0.0218  0.6069
 1680TIP3    H229236   7.044   3.828  11.762 -0.9396 -1.2204 -0.9854
 1681TIP3   OH229237   5.503   0.219  12.144 -0.4134  0.2400 -0.1618
 1681TIP3    H129238   5.477   0.212  12.236 -0.6564 -0.7077 -0.2899
 1681TIP3    H229239   5.474   0.137  12.104  0.9604  0.0079 -0.7682
 1682TIP3   OH229240   3.185   5.370  12.127 -0.2580  0.0669  0.8649
 1682TIP3    H129241   3.191   5.307  12.199 -0.2712 -1.1362 -0.1548
 1682TIP3    H229242   3.245   5.336  12.060 -1.0326  0.5670 -0.1078
 1683TIP3   OH229243   7.209   0.850  12.067  0.2159 -0.1422  0.1838
 1683TIP3    H129244   7.144   0.908  12.104  0.5808  0.4437 -0.0767
 1683TIP3    H229245   7.210   0.871  11.974  0.9041 -0.0005  0.2116
 1684TIP3   OH229246   2.792   4.625  12.542 -0.3932 -0.1777 -0.7083
 1684TIP3    H129247   2.843   4.705  12.553  0.2074 -0.4626 -1.2951
 1684TIP3    H229248   2.730   4.625  12.615  0.7284 -0.0294  0.2711
 1685TIP3   OH229249   6.422   5.433  11.583 -0.0581 -0.4755 -0.5363
 1685TIP3    H129250   6.501   5.386  11.558  0.7251 -0.7530  2.1584
 1685TIP3    H229251   6.354   5.366  11.584 -0.1768 -0.4162 -1.9430
 1686TIP3   OH229252   1.520   1.296  10.045 -0.2835 -0.2524  0.6151
 1686TIP3    H129253   1.511   1.230  10.114 -0.0983 -0.0826  0.8034
 1686TIP3    H229254   1.602   1.275  10.001 -0.4755 -0.4508  0.3468
 1687TIP3   OH229255   4.272   7.518  12.298  0.5207 -0.4324 -0.3223
 1687TIP3    H129256   4.287   7.612  12.307  2.0223 -0.7107  0.4481
 1687TIP3    H229257   4.230   7.492  12.380 -2.3776 -0.0399 -1.5811
 1688TIP3   OH229258   5.684   5.105  11.439 -0.1249  0.9430  0.1291
 1688TIP3    H129259   5.653   5.188  11.475  0.3841  0.1454  2.5738
 1688TIP3    H229260   5.639   5.038  11.491  1.6177 -0.2764  0.1407
 1689TIP3   OH229261   1.354   4.306  12.455  0.4885 -0.5517 -0.1075
 1689TIP3    H129262   1.356   4.232  12.516  1.6140 -2.5279 -2.3554
 1689TIP3    H229263   1.391   4.271  12.374  0.8042  2.4438 -1.3947
 1690TIP3   OH229264   1.535   4.903  11.602  0.4391 -0.0207 -0.1764
 1690TIP3    H129265   1.491   4.830  11.558 -1.6835  0.1100  1.5286
 1690TIP3    H229266   1.618   4.867  11.631  1.2656 -0.5220 -2.8509
 1691TIP3   OH229267   4.900   0.764  11.912  0.2686  0.4323 -0.1819
 1691TIP3    H129268   4.807   0.749  11.892  0.1239 -0.2961  0.9592
 1691TIP3    H229269   4.929   0.826  11.845 -0.8744  0.1686 -0.9518
 1692TIP3   OH229270   2.799   0.960  12.100 -0.2951 -0.0953 -0.4163
 1692TIP3    H129271   2.752   0.940  12.181  0.1300 -0.3490 -0.2286
 1692TIP3    H229272   2.873   1.012  12.127 -0.0941 -0.2651 -0.6309
 1693TIP3   OH229273   4.976   7.396  10.933 -0.4791  0.2081  0.3571
 1693TIP3    H129274   4.898   7.361  10.890 -0.6677 -1.1611  1.7472
 1693TIP3    H229275   5.019   7.449  10.865 -2.1966  0.3724 -0.6528
 1694TIP3   OH229276   6.502   7.621  11.146 -0.6814  0.6061  0.5471
 1694TIP3    H129277   6.487   7.527  11.161 -2.0272  0.7163  0.0534
 1694TIP3    H229278   6.435   7.646  11.082  1.3057  1.3418 -1.3787
 1695TIP3   OH229279   0.270   3.349  10.855  0.1971  0.3766 -0.1404
 1695TIP3    H129280   0.309   3.377  10.937  0.2772 -0.1621  0.0089
 1695TIP3    H229281   0.180   3.381  10.859 -0.1236 -0.5755  0.6400
 1696TIP3   OH229282   1.595   4.030  10.372 -0.1053  0.0728  0.2124
 1696TIP3    H129283   1.514   4.002  10.414  0.0868  0.5672  0.9202
 1696TIP3    H229284   1.590   4.125  10.371 -0.2787  0.0764 -1.2397
 1697TIP3   OH229285   4.862   3.346  11.884 -0.4243  0.2032 -0.2842
 1697TIP3    H129286   4.891   3.435  11.863  0.7465 -0.3411 -1.0550
 1697TIP3    H229287   4.788   3.331  11.825 -0.0408  0.3369 -0.8045
 1698TIP3   OH229288   6.946   6.061  11.740 -0.2095  0.2438 -0.3853
 1698TIP3    H129289   6.949   5.983  11.796  0.8758 -0.3711 -1.2681
 1698TIP3    H229290   6.869   6.047  11.684  0.4885 -0.6440 -1.1503
 1699TIP3   OH229291   5.548   3.798  12.021 -0.0117 -0.2740  0.1544
 1699TIP3    H129292   5.642   3.787  12.003 -0.4282 -1.7519 -1.3277
 1699TIP3    H229293   5.530   3.739  12.094  0.2621  0.3018  0.7011
 1700TIP3   OH229294   2.609   6.685  11.158  0.2350  0.5127 -0.2295
 1700TIP3    H129295   2.533   6.629  11.139 -0.4495  1.6873 -1.1238
 1700TIP3    H229296   2.637   6.659  11.246  1.0653 -2.4287 -1.2690
 1701TIP3   OH229297   0.602   4.227  11.707  0.5960 -0.0534  0.1988
 1701TIP3    H129298   0.627   4.188  11.624  2.2261  0.0346  0.6168
 1701TIP3    H229299   0.529   4.286  11.685 -1.2918 -2.5086 -0.5946
 1702TIP3   OH229300   6.804   1.349   9.889 -0.4594  0.5941 -0.2393
 1702TIP3    H129301   6.840   1.432   9.920  0.0542 -0.0395  0.9373
 1702TIP3    H229302   6.880   1.295   9.869 -0.7907  0.5467 -1.4259
 1703TIP3   OH229303   5.848   5.486  11.489 -0.1252  0.0791 -0.4836
 1703TIP3    H129304   5.863   5.553  11.422  0.4494 -1.4746 -1.9747
 1703TIP3    H229305   5.917   5.421  11.474 -1.6846 -1.7248 -0.2323
 1704TIP3   OH229306   2.182   7.237  11.204  0.2815  0.7569 -0.1618
 1704TIP3    H129307   2.195   7.186  11.284 -0.0107  0.1609 -0.4859
 1704TIP3    H229308   2.149   7.173  11.140  0.0980  1.3159 -0.6320
 1705TIP3   OH229309   3.101   7.269  10.331 -0.1232 -0.1082 -0.0445
 1705TIP3    H129310   3.096   7.300  10.422 -0.4337  1.3974 -0.5512
 1705TIP3    H229311   3.186   7.226  10.325  0.6784  1.3478  0.4958
 1706TIP3   OH229312   0.548   1.591  10.387  0.1220 -0.2314 -0.2554
 1706TIP3    H129313   0.605   1.536  10.332  1.9730  0.2439  1.0730
 1706TIP3    H229314   0.512   1.656  10.327  0.2823 -1.0829 -1.3023
 1707TIP3   OH229315   0.874   0.715  10.870 -0.0500  0.8600 -0.5827
 1707TIP3    H129316   0.946   0.777  10.857  0.2607  0.4916 -0.6441
 1707TIP3    H229317   0.874   0.698  10.964  0.7435 -0.0793 -0.7374
 1708TIP3   OH229318   6.560   2.033   9.998  0.0987  0.1189  0.2346
 1708TIP3    H129319   6.512   1.967   9.948 -0.0271  0.8663 -0.6377
 1708TIP3    H229320   6.493   2.080  10.047  0.1708 -0.2642  0.7116
 1709TIP3   OH229321   3.078   1.439  12.409  0.0329 -0.1030  0.2778
 1709TIP3    H129322   3.096   1.389  12.488  0.2026 -1.4241 -0.5651
 1709TIP3    H229323   3.128   1.396  12.340 -0.3919  0.7920 -0.6314
 1710TIP3   OH229324   2.481   2.357  11.709  0.3127 -0.0026 -0.6013
 1710TIP3    H129325   2.469   2.326  11.799  2.2722  1.3377  0.1873
 1710TIP3    H229326   2.408   2.417  11.695 -0.2745 -0.5788 -0.0830
 1711TIP3   OH229327   4.638   7.431  11.552  0.3052 -0.7345  0.6761
 1711TIP3    H129328   4.728   7.436  11.521  0.4578  1.2169  1.3055
 1711TIP3    H229329   4.634   7.493  11.625 -1.5758 -0.6627  0.5599
 1712TIP3   OH229330   0.501   5.960  12.748  0.3199  0.6425  0.4370
 1712TIP3    H129331   0.559   5.945  12.824  1.9828  0.8238 -0.7348
 1712TIP3    H229332   0.466   5.873  12.727  1.1558  0.2967  0.4235
 1713TIP3   OH229333   7.222   6.999  12.600  0.1012 -0.6133  0.2127
 1713TIP3    H129334   7.200   6.914  12.637  0.6133 -0.9108 -0.1617
 1713TIP3    H229335   7.239   6.982  12.508  0.4891 -0.1551  0.1964
 1714TIP3   OH229336   3.827   6.970  11.087 -0.4004  0.3738  0.0496
 1714TIP3    H129337   3.793   6.994  11.173 -0.0606  0.5450  0.1363
 1714TIP3    H229338   3.754   6.984  11.027 -0.7082  0.0372  0.3435
 1715TIP3   OH229339   2.264   2.393  12.210  0.6363 -1.2533  0.5897
 1715TIP3    H129340   2.277   2.314  12.157 -0.3065 -1.3134  0.4199
 1715TIP3    H229341   2.209   2.363  12.283  0.3834 -0.7808  0.5936
 1716TIP3   OH229342   2.777   4.786  10.058  0.4814  0.0573 -0.2363
 1716TIP3    H129343   2.729   4.762   9.979  0.2912 -0.3271 -0.0028
 1716TIP3    H229344   2.844   4.719  10.067  1.0116  0.5444 -0.5111
 1717TIP3   OH229345   0.708   5.006  10.152 -0.0064  0.2503  0.0172
 1717TIP3    H129346   0.719   4.911  10.159 -0.1805  0.3187  2.0319
 1717TIP3    H229347   0.622   5.017  10.111 -0.3981 -0.4963  0.6066
 1718TIP3   OH229348   1.563   4.692  12.117 -0.4131  0.1837 -0.2325
 1718TIP3    H129349   1.514   4.768  12.085 -1.7865 -0.6455 -0.1912
 1718TIP3    H229350   1.499   4.622  12.118  0.3690 -0.5540  1.4505
 1719TIP3   OH229351   4.232   0.263  11.332  0.3993  0.0896  0.2975
 1719TIP3    H129352   4.246   0.198  11.263 -0.4974 -1.4453  1.4912
 1719TIP3    H229353   4.162   0.319  11.298  0.7864  0.1072 -0.5077
 1720TIP3   OH229354   3.694   6.261  12.220  0.7002 -0.5182 -0.1657
 1720TIP3    H129355   3.645   6.232  12.143  0.7645  0.0626 -0.4250
 1720TIP3    H229356   3.686   6.356  12.220  0.5031 -0.5210  0.6736
 1721TIP3   OH229357   4.402   4.732  11.838 -0.1662 -0.2550  0.3100
 1721TIP3    H129358   4.388   4.706  11.747  0.6912  0.4013 -0.0287
 1721TIP3    H229359   4.497   4.726  11.850 -0.2151  0.2274  0.9801
 1722TIP3   OH229360   4.262   3.771  12.308 -0.4273 -0.3741 -0.5853
 1722TIP3    H129361   4.323   3.720  12.360 -1.5481 -1.7871 -0.5841
 1722TIP3    H229362   4.204   3.812  12.372 -0.3537 -0.1995 -0.6310
 1723TIP3   OH229363   1.809   0.270  10.419  0.0460 -0.3974  0.2000
 1723TIP3    H129364   1.781   0.361  10.418 -0.7068 -0.6219 -0.3555
 1723TIP3    H229365   1.768   0.232  10.341  1.3268 -0.9224 -0.2365
 1724TIP3   OH229366   5.352   2.342  11.724  0.1307  0.1319 -0.4926
 1724TIP3    H129367   5.274   2.295  11.753  0.4186  0.2110  0.4635
 1724TIP3    H229368   5.417   2.324  11.792 -0.0016  2.5832  0.3862
 1725TIP3   OH229369   1.860   3.973  12.225 -0.1218 -0.2961 -0.2499
 1725TIP3    H129370   1.926   3.955  12.293  0.4485 -1.1172 -1.0006
 1725TIP3    H229371   1.781   3.995  12.274  0.5875  0.2794  0.6729
 1726TIP3   OH229372   6.196   2.409  11.163 -0.1857 -0.1810  0.2792
 1726TIP3    H129373   6.191   2.414  11.258 -0.1485  1.9392  0.2303
 1726TIP3    H229374   6.194   2.501  11.134 -3.2009 -0.7654 -1.9171
 1727TIP3   OH229375   3.753   5.971  11.589 -0.0932  0.1911  0.3881
 1727TIP3    H129376   3.793   5.928  11.664  1.1397 -0.9842 -0.9010
 1727TIP3    H229377   3.826   5.997  11.533 -0.9953  0.7104 -0.6006
 1728TIP3   OH229378   0.270   4.345  11.029 -0.5476  0.4276 -0.4431
 1728TIP3    H129379   0.274   4.271  10.968 -1.9087  0.5685 -0.7456
 1728TIP3    H229380   0.241   4.305  11.112  3.0121 -0.0705  0.7324
 1729TIP3   OH229381   2.589   2.991  12.909 -0.0401 -0.3645 -0.4502
 1729TIP3    H129382   2.621   2.902  12.890  0.1059 -0.5044  0.3917
 1729TIP3    H229383   2.509   3.000  12.857 -0.9681 -1.6053  0.7016
 1730TIP3   OH229384   5.865   0.904  11.392  0.1691 -0.4882  0.5763
 1730TIP3    H129385   5.770   0.904  11.400  0.1107 -0.5051 -0.0968
 1730TIP3    H229386   5.896   0.942  11.474 -0.3184 -2.7482  1.9041
 1731TIP3   OH229387   7.576   4.655  11.558  0.2418  0.3761  0.5401
 1731TIP3    H129388   7.650   4.599  11.581  0.4808  0.2635 -0.4765
 1731TIP3    H229389   7.515   4.645  11.631  0.2913 -1.1889  0.3910
 1732TIP3   OH229390   1.691   3.586  11.037  0.4717 -0.0789 -0.3667
 1732TIP3    H129391   1.704   3.550  10.950 -0.0278 -1.1538 -0.0149
 1732TIP3    H229392   1.596   3.594  11.046  0.5479  0.7365 -0.1930
 1733TIP3   OH229393   3.445   5.465  11.091 -0.2480  0.0366 -0.4050
 1733TIP3    H129394   3.350   5.459  11.104 -0.1211 -0.7284  0.2786
 1733TIP3    H229395   3.460   5.555  11.063 -0.8433  1.1885  2.6393
 1734TIP3   OH229396   4.242   5.369  12.252 -0.3045 -0.7232  0.2541
 1734TIP3    H129397   4.189   5.346  12.176  0.1695  0.0815 -0.3422
 1734TIP3    H229398   4.200   5.326  12.326 -3.7236  2.3603  0.3833
 1735TIP3   OH229399   6.796   0.890  12.436  0.3545 -0.7237 -0.1978
 1735TIP3    H129400   6.737   0.950  12.390  2.4678  0.3035 -1.7634
 1735TIP3    H229401   6.739   0.821  12.469 -1.8043  0.6389 -0.8519
 1736TIP3   OH229402   1.214   1.690   9.792 -0.0356  0.4322  0.6365
 1736TIP3    H129403   1.167   1.631   9.735  0.1990  0.3957  0.4778
 1736TIP3    H229404   1.204   1.776   9.752  3.2430 -0.0502 -1.6167
 1737TIP3   OH229405   3.562   6.844  11.604 -0.0189  0.2697 -1.3396
 1737TIP3    H129406   3.649   6.824  11.640 -0.3122  1.2540 -0.0029
 1737TIP3    H229407   3.522   6.758  11.590 -0.4875 -0.2654  2.2895
 1738TIP3   OH229408   1.573   4.525  10.347  0.3752 -0.4001  0.1477
 1738TIP3    H129409   1.655   4.478  10.365  0.2740 -0.3037  0.8965
 1738TIP3    H229410   1.599   4.601  10.295  0.7610 -0.3805  0.3650
 1739TIP3   OH229411   4.624   2.793  11.878  0.3337 -0.0029  0.3704
 1739TIP3    H129412   4.715   2.763  11.879  0.1330 -0.7547 -1.0443
 1739TIP3    H229413   4.617   2.851  11.954  2.4086  1.2832 -0.3212
 1740TIP3   OH229414   5.824   6.667  12.926  0.3613  0.0875  0.0220
 1740TIP3    H129415   5.748   6.680  12.870  0.9383 -1.9384 -1.3186
 1740TIP3    H229416   5.898   6.661  12.866  1.2883 -0.1149  1.1377
 1741TIP3   OH229417   3.152   3.795  11.888  0.2755 -0.2117  0.3256
 1741TIP3    H129418   3.100   3.758  11.817 -1.5998  1.0812  0.9684
 1741TIP3    H229419   3.205   3.721  11.919 -1.0156 -1.5389 -0.4803
 1742TIP3   OH229420   4.212   0.847  10.194  0.2879  0.5356 -0.2370
 1742TIP3    H129421   4.128   0.801  10.198  0.6658 -0.1468  0.0628
 1742TIP3    H229422   4.193   0.928  10.146 -0.1104 -0.5253 -1.9450
 1743TIP3   OH229423   0.976   3.270  12.212 -0.4806 -0.3739 -1.2043
 1743TIP3    H129424   1.070   3.283  12.206 -0.4973  1.4899  1.0856
 1743TIP3    H229425   0.966   3.180  12.244  0.6725  0.1084  0.6557
 1744TIP3   OH229426   0.911   6.175  12.790  0.2604 -0.0722 -0.2546
 1744TIP3    H129427   0.816   6.184  12.794  0.3346  0.4839  2.4150
 1744TIP3    H229428   0.942   6.261  12.764  0.0607  0.0097 -0.2235
 1745TIP3   OH229429   6.978   0.522  10.638  0.2122 -0.5547  0.0083
 1745TIP3    H129430   6.960   0.523  10.544 -2.6395  0.9070  0.4356
 1745TIP3    H229431   6.974   0.614  10.664  1.0662 -0.9139  1.5540
 1746TIP3   OH229432   0.405   1.909  10.375 -0.2421 -0.0771 -0.0373
 1746TIP3    H129433   0.391   1.848  10.303  0.7664  0.6678 -0.8985
 1746TIP3    H229434   0.367   1.992  10.344 -0.7300 -0.0061  0.7192
 1747TIP3   OH229435   7.103   3.736  10.526  0.1953 -0.0756  0.5490
 1747TIP3    H129436   7.035   3.791  10.486 -0.0873 -0.4484  0.5133
 1747TIP3    H229437   7.185   3.781  10.506  0.0362 -0.1177 -0.2222
 1748TIP3   OH229438   2.823   3.058  11.262  0.5033 -0.5600 -0.1425
 1748TIP3    H129439   2.734   3.044  11.230  0.6188  1.4248 -1.5493
 1748TIP3    H229440   2.871   2.980  11.233 -0.3114 -0.6704 -1.2823
 1749TIP3   OH229441   5.617   2.843  11.462  0.2898 -0.5929 -0.2025
 1749TIP3    H129442   5.625   2.798  11.378 -0.0658  0.1596 -0.6455
 1749TIP3    H229443   5.667   2.924  11.451  0.0762 -0.3973  0.2466
 1750TIP3   OH229444   4.329   1.110  11.774  0.1653  0.3351  0.0496
 1750TIP3    H129445   4.313   1.190  11.823  0.6081 -0.1240  0.9708
 1750TIP3    H229446   4.354   1.046  11.841  1.9344 -0.0158 -0.8953
 1751TIP3   OH229447   2.119   6.421  11.235  0.0835  0.2122  0.1963
 1751TIP3    H129448   2.203   6.463  11.250  0.4411  0.4831 -2.1357
 1751TIP3    H229449   2.141   6.340  11.188 -0.8506 -0.7804  1.3802
 1752TIP3   OH229450   3.156   6.233  11.985 -0.1001 -0.5514 -0.4112
 1752TIP3    H129451   3.211   6.211  11.910  0.8804  0.2621  0.0510
 1752TIP3    H229452   3.088   6.291  11.949  0.6150  0.1816 -0.6095
 1753TIP3   OH229453   3.790   2.073  11.048  0.2079  0.3285  0.0180
 1753TIP3    H129454   3.831   2.027  11.121  0.2745  2.2954  1.3115
 1753TIP3    H229455   3.838   2.155  11.042 -1.4486  1.2999 -0.5484
 1754TIP3   OH229456   4.035   2.261  11.116  0.4623  0.0328  0.0539
 1754TIP3    H129457   4.023   2.320  11.191 -0.9775 -0.5196  0.2841
 1754TIP3    H229458   4.094   2.193  11.149  0.6899  0.3656  0.3445
 1755TIP3   OH229459   1.082   3.740  12.620  0.1092 -0.3233 -0.6014
 1755TIP3    H129460   1.107   3.649  12.636 -1.9705 -0.8320  0.0462
 1755TIP3    H229461   0.987   3.737  12.610  0.1289  1.6146 -1.8726
 1756TIP3   OH229462   0.676   6.454  10.209 -0.4552  0.1012  0.2273
 1756TIP3    H129463   0.616   6.525  10.185 -1.1171 -0.2752  0.7298
 1756TIP3    H229464   0.758   6.476  10.164 -0.5994  1.2546  0.4871
 1757TIP3   OH229465   1.348   6.147  11.049 -0.1562  0.3864  0.0862
 1757TIP3    H129466   1.444   6.142  11.044  0.0441 -0.2854  2.7896
 1757TIP3    H229467   1.321   6.183  10.964  2.4226  0.0342 -0.9777
 1758TIP3   OH229468   6.593   4.046  11.911  0.2644  0.2638 -0.1967
 1758TIP3    H129469   6.534   4.080  11.844 -0.0965  0.4664  0.2134
 1758TIP3    H229470   6.659   4.115  11.922 -0.3105  0.7213  0.4394
 1759TIP3   OH229471   3.390   1.752  11.576 -0.6448 -0.6216  0.4585
 1759TIP3    H129472   3.331   1.798  11.635  0.8262 -0.4470  1.8803
 1759TIP3    H229473   3.358   1.661  11.576 -0.1942 -0.8200  2.2563
 1760TIP3   OH229474   7.672   6.976  11.092  0.3154  0.1871  0.6995
 1760TIP3    H129475   7.590   7.024  11.078  0.3502  0.0977  0.1501
 1760TIP3    H229476   7.648   6.884  11.082  0.8911  0.2458 -1.8360
 1761TIP3   OH229477   0.383   0.684  11.337 -0.3040 -0.4667 -0.4554
 1761TIP3    H129478   0.374   0.778  11.324  2.3237  0.1802  1.5763
 1761TIP3    H229479   0.323   0.664  11.409  0.6356  0.1046  0.5140
 1762TIP3   OH229480   3.418   2.966  11.638  0.2111 -0.0652 -0.0394
 1762TIP3    H129481   3.477   2.905  11.681  0.9958  0.9707  0.3797
 1762TIP3    H229482   3.385   3.022  11.708 -0.3388  0.1294 -0.4467
 1763TIP3   OH229483   1.234   4.162  11.430 -0.4391  0.4172  0.4565
 1763TIP3    H129484   1.261   4.112  11.508 -1.2838 -1.6871 -0.5241
 1763TIP3    H229485   1.167   4.222  11.463  0.6835  1.0144  1.7066
 1764TIP3   OH229486   2.097   3.246  11.472 -0.5191  0.3744  0.2593
 1764TIP3    H129487   2.158   3.202  11.531 -1.1568 -0.0404  0.6299
 1764TIP3    H229488   2.083   3.332  11.512  3.0420  2.2263 -2.0090
 1765TIP3   OH229489   7.086   5.678  10.058  0.1085 -0.4682  0.2738
 1765TIP3    H129490   7.055   5.595  10.021  0.0885 -0.7157  0.8426
 1765TIP3    H229491   7.040   5.745  10.007  0.8958 -0.7804 -0.8740
 1766TIP3   OH229492   5.103   4.827  10.925  0.1169 -0.3043  0.2431
 1766TIP3    H129493   5.074   4.761  10.862 -1.5023  0.2148  0.3951
 1766TIP3    H229494   5.073   4.910  10.889  1.2041  0.2647  0.5792
 1767TIP3   OH229495   2.976   2.289  11.990 -0.0349 -0.2780  0.1872
 1767TIP3    H129496   2.981   2.366  11.933 -1.7155 -1.1638 -1.2411
 1767TIP3    H229497   2.967   2.325  12.078  0.9837  1.1401 -0.2434
 1768TIP3   OH229498   3.765   5.401  12.226 -0.1738 -0.0033 -0.1490
 1768TIP3    H129499   3.675   5.377  12.202 -0.3730 -0.8419  1.2651
 1768TIP3    H229500   3.789   5.337  12.294  1.8445 -0.3649 -1.1396
 1769TIP3   OH229501   1.879   1.354  11.264 -0.0002 -0.1331  0.7633
 1769TIP3    H129502   1.939   1.347  11.339  0.6101  0.2270  0.3138
 1769TIP3    H229503   1.887   1.269  11.220  1.9563  0.7207 -0.6101
 1770TIP3   OH229504   1.846   0.021  12.193 -0.9145 -0.3500  0.6751
 1770TIP3    H129505   1.821   0.113  12.185  0.3753 -0.0614 -0.2463
 1770TIP3    H229506   1.913   0.008  12.126  0.4639 -1.4272  2.1815
 1771TIP3   OH229507   6.664   4.682  10.511 -0.6484  0.3897  0.2143
 1771TIP3    H129508   6.718   4.700  10.434 -0.3716  0.7426  0.4860
 1771TIP3    H229509   6.589   4.634  10.477 -0.6155  0.6971 -0.3032
 1772TIP3   OH229510   7.495   5.232  10.443  0.2353  0.3518  0.2177
 1772TIP3    H129511   7.497   5.314  10.395  0.6611  0.7957  0.9660
 1772TIP3    H229512   7.451   5.253  10.526  0.9907 -0.0001  0.7177
 1773TIP3   OH229513   0.384   5.113  11.452 -0.1370 -0.0108 -0.1186
 1773TIP3    H129514   0.462   5.169  11.463 -0.4077  0.3892 -0.2037
 1773TIP3    H229515   0.316   5.157  11.503 -0.1955 -0.5973  0.3157
 1774TIP3   OH229516   3.379   4.545  10.714  0.1123 -0.4570 -0.2427
 1774TIP3    H129517   3.466   4.535  10.753  1.2711 -1.6221 -2.8685
 1774TIP3    H229518   3.386   4.624  10.660 -0.9657  0.2582  0.6184
 1775TIP3   OH229519   6.563   3.847  11.553 -0.0875  0.3025 -0.7330
 1775TIP3    H129520   6.478   3.876  11.521 -0.7129 -2.4397 -1.7722
 1775TIP3    H229521   6.547   3.822  11.644  0.0690  1.4631 -0.3661
 1776TIP3   OH229522   1.254   7.133  11.188  0.4267 -0.3410 -0.8330
 1776TIP3    H129523   1.189   7.144  11.257  0.7738  0.1533 -0.5727
 1776TIP3    H229524   1.222   7.187  11.116  1.6282  1.7309  0.0886
 1777TIP3   OH229525   6.438   4.925  11.416 -0.2244 -0.1002  0.3493
 1777TIP3    H129526   6.473   4.947  11.330  1.2470 -1.0376  0.6644
 1777TIP3    H229527   6.441   4.829  11.419  2.2663 -0.0730  2.3604
 1778TIP3   OH229528   0.504   1.750  12.970 -0.5226 -0.2302  0.2358
 1778TIP3    H129529   0.504   1.782  12.880 -0.6971  0.6182  0.5283
 1778TIP3    H229530   0.445   1.810  13.017 -1.7278 -1.6203  0.5788
 1779TIP3   OH229531   4.555   5.735  12.237  0.5069  0.2191 -0.1625
 1779TIP3    H129532   4.569   5.647  12.201  0.2317 -0.3473  1.0672
 1779TIP3    H229533   4.586   5.729  12.328  0.5782  1.4249 -0.0889
 1780TIP3   OH229534   2.011   2.320  10.491 -0.0262 -0.0532 -0.1389
 1780TIP3    H129535   2.089   2.265  10.481  0.9096  1.1656  0.1696
 1780TIP3    H229536   1.950   2.288  10.424  1.4479  0.1263 -1.6333
 1781TIP3   OH229537   1.724   5.901  12.376 -0.1629 -0.2796 -0.1189
 1781TIP3    H129538   1.740   5.981  12.426 -1.1672  0.5673 -1.1161
 1781TIP3    H229539   1.691   5.839  12.441  2.9502 -0.7631  1.1757
 1782TIP3   OH229540   5.407   5.237  11.234  0.0446  0.2634 -0.5806
 1782TIP3    H129541   5.471   5.175  11.198 -0.5314 -0.8770  0.2876
 1782TIP3    H229542   5.457   5.317  11.249  1.2480 -0.5387 -0.1075
 1783TIP3   OH229543   3.266   5.761  10.880 -0.3177 -0.3545  0.0809
 1783TIP3    H129544   3.336   5.742  10.943  1.0311 -0.2416 -1.3210
 1783TIP3    H229545   3.294   5.841  10.837 -0.8191 -0.8336 -1.1747
 1784TIP3   OH229546   7.282   2.366  10.809  0.2182  0.6631 -0.1915
 1784TIP3    H129547   7.368   2.379  10.851 -0.0803  2.4899 -0.0405
 1784TIP3    H229548   7.220   2.403  10.872 -0.5146  0.8562 -1.0190
 1785TIP3   OH229549   5.771   4.524  10.591 -0.1769 -0.6791 -0.0725
 1785TIP3    H129550   5.851   4.477  10.568  0.8172  1.1720 -0.6180
 1785TIP3    H229551   5.744   4.486  10.675  0.8994 -1.7744 -0.1877
 1786TIP3   OH229552   2.548   3.727  11.510 -0.3306 -0.1849 -0.1040
 1786TIP3    H129553   2.584   3.800  11.560  0.0604  0.3643 -1.1556
 1786TIP3    H229554   2.623   3.672  11.489 -0.6683 -1.0828  0.9559
 1787TIP3   OH229555   5.428   0.871  12.311  0.4791  0.7253 -0.2478
 1787TIP3    H129556   5.487   0.863  12.385  0.2280  1.8966  0.1005
 1787TIP3    H229557   5.356   0.812  12.331  0.5962  0.7514  0.2600
 1788TIP3   OH229558   4.048   1.929  10.831 -0.1417 -0.2208 -0.2181
 1788TIP3    H129559   4.117   1.876  10.791  0.1226  0.6355 -0.9544
 1788TIP3    H229560   4.087   2.016  10.839 -1.0606  0.2232 -0.4343
 1789TIP3   OH229561   1.817   5.181  10.274 -0.3228  0.3781 -0.0364
 1789TIP3    H129562   1.765   5.158  10.197 -0.1392  3.1179 -1.0571
 1789TIP3    H229563   1.788   5.269  10.298  1.9121  0.8910  1.0215
 1790TIP3   OH229564   0.867   6.667  10.940  0.6216 -0.1260  0.2397
 1790TIP3    H129565   0.937   6.708  10.888  1.2268 -0.2339  0.9525
 1790TIP3    H229566   0.839   6.592  10.887  2.1337 -1.0063  0.6110
 1791TIP3   OH229567   0.457   4.431  12.307  0.4345 -0.3326  0.4706
 1791TIP3    H129568   0.379   4.433  12.251  0.7475  1.1768  0.0380
 1791TIP3    H229569   0.459   4.342  12.341  0.2998 -1.3919 -2.0229
 1792TIP3   OH229570   7.457   7.377  12.499 -0.5888  0.3066 -0.1405
 1792TIP3    H129571   7.521   7.317  12.536 -0.0706  0.9288 -0.0118
 1792TIP3    H229572   7.386   7.380  12.563 -0.4680  0.0793  0.0028
 1793TIP3   OH229573   2.892   3.981  11.213 -0.7596  1.2955  0.4438
 1793TIP3    H129574   2.817   3.923  11.198  0.3676 -0.1900  0.2563
 1793TIP3    H229575   2.876   4.020  11.299 -0.2519 -1.5369  1.9515
 1794TIP3   OH229576   2.280   6.923  11.491 -0.3801 -0.2315  0.6682
 1794TIP3    H129577   2.197   6.947  11.450 -0.3406 -0.3329  0.5283
 1794TIP3    H229578   2.341   6.991  11.463 -0.2379 -0.5618  0.1679
 1795TIP3   OH229579   5.384   4.885  11.739 -0.0425 -0.1774 -0.0481
 1795TIP3    H129580   5.333   4.813  11.701 -0.2065  0.4947 -1.1428
 1795TIP3    H229581   5.465   4.887  11.687 -0.1097  0.5197 -0.1367
 1796TIP3   OH229582   5.254   0.698  11.286  1.1330 -0.2791 -0.0968
 1796TIP3    H129583   5.275   0.625  11.229  2.6934 -0.0160  0.1055
 1796TIP3    H229584   5.208   0.659  11.360 -0.1127 -0.7338 -1.0807
 1797TIP3   OH229585   6.798   3.116  10.690 -0.7104  0.3276  0.0345
 1797TIP3    H129586   6.790   3.174  10.615  0.9618  0.4939 -0.0433
 1797TIP3    H229587   6.796   3.028  10.653 -0.7559  0.3840 -0.0968
 1798TIP3   OH229588   0.143   3.144  11.747  0.6609 -0.1971 -0.1328
 1798TIP3    H129589   0.125   3.177  11.659 -0.0082  0.4780  0.2424
 1798TIP3    H229590   0.083   3.070  11.757  1.8782 -1.3099 -0.8251
 1799TIP3   OH229591   4.950   6.224  11.252 -0.5621 -0.0303  0.3216
 1799TIP3    H129592   4.882   6.163  11.279  0.4283 -1.7585 -0.8911
 1799TIP3    H229593   4.996   6.246  11.333 -2.4429  1.1223  1.1433
 1800TIP3   OH229594   5.784   1.496  11.144  0.1479  0.7687  0.1155
 1800TIP3    H129595   5.786   1.452  11.059  2.5125  0.5142  0.2199
 1800TIP3    H229596   5.694   1.487  11.175  0.0353 -2.1734 -0.8099
 1801TIP3   OH229597   4.780   2.303  12.162  0.4320  0.4524  0.0174
 1801TIP3    H129598   4.843   2.316  12.232  0.9638  0.1406 -0.3932
 1801TIP3    H229599   4.807   2.364  12.093 -1.7592  2.8709  1.1309
 1802TIP3   OH229600   1.693   5.432  10.360 -0.3933  0.2580  0.0600
 1802TIP3    H129601   1.724   5.521  10.343 -1.6996  1.4552  3.1442
 1802TIP3    H229602   1.598   5.440  10.364 -0.5016 -1.1170  1.0818
 1803TIP3   OH229603   2.496   1.022  10.562  0.0530  0.5719  0.0274
 1803TIP3    H129604   2.470   1.079  10.634 -0.2869  0.3629  0.0730
 1803TIP3    H229605   2.590   1.033  10.555 -0.1155  1.8349 -0.5523
 1804TIP3   OH229606   0.597   1.881  11.532  0.0999 -0.4928 -0.2334
 1804TIP3    H129607   0.560   1.803  11.489  0.1888 -0.7414  0.1393
 1804TIP3    H229608   0.665   1.846  11.589 -1.6272 -0.4442  2.0046
 1805TIP3   OH229609   5.532   3.354  12.756  0.6577 -0.0165 -0.3955
 1805TIP3    H129610   5.442   3.325  12.740  0.3863  0.9153 -0.6107
 1805TIP3    H229611   5.579   3.330  12.676 -0.0091  1.8570 -1.3975
 1806TIP3   OH229612   7.374   5.241  11.001 -0.7447 -0.4072 -0.0087
 1806TIP3    H129613   7.301   5.202  11.050  0.0183 -0.4472  1.1445
 1806TIP3    H229614   7.362   5.336  11.013 -1.5517 -0.3335 -1.2550
 1807TIP3   OH229615   0.581   2.942  10.099 -0.5559  0.1896 -1.0537
 1807TIP3    H129616   0.632   2.940  10.180 -1.0901 -0.8428 -0.7198
 1807TIP3    H229617   0.604   3.025  10.059 -1.3235  1.4019  0.8496
 1808TIP3   OH229618   4.454   7.222  11.218  0.1332  0.2999  0.2964
 1808TIP3    H129619   4.544   7.190  11.211 -0.5960 -2.1877  1.2356
 1808TIP3    H229620   4.441   7.276  11.139  2.2399  0.2361 -0.1314
 1809TIP3   OH229621   3.820   7.100  12.784  0.3679 -0.1898  0.5584
 1809TIP3    H129622   3.884   7.035  12.812  1.8120  0.9526  0.0243
 1809TIP3    H229623   3.857   7.139  12.705 -0.6580  0.9899  0.6176
 1810TIP3   OH229624   0.608   4.001  10.310 -0.0376  0.2238  0.0244
 1810TIP3    H129625   0.639   3.910  10.309  0.9377  0.5450 -0.5964
 1810TIP3    H229626   0.675   4.048  10.359 -0.5749  0.5953  0.4011
 1811TIP3   OH229627   0.945   4.582  10.866  0.2687 -0.2318 -0.0321
 1811TIP3    H129628   0.970   4.490  10.868  0.3931 -0.3095 -2.2237
 1811TIP3    H229629   0.872   4.586  10.805  0.4965  1.1640 -0.2616
 1812TIP3   OH229630   3.099   0.381  12.242 -0.3971  0.0358  0.3458
 1812TIP3    H129631   3.068   0.294  12.216  0.0465  0.0553 -0.2805
 1812TIP3    H229632   3.190   0.366  12.268 -0.9749 -0.0741  2.4519
 1813TIP3   OH229633   4.587   1.797  12.715  0.0973 -0.0945  0.1380
 1813TIP3    H129634   4.519   1.828  12.655 -0.1936  1.7819  1.3542
 1813TIP3    H229635   4.542   1.734  12.772  0.0542 -0.8552 -0.7150
 1814TIP3   OH229636   2.704   2.638  10.303 -0.3508  0.4861 -0.3735
 1814TIP3    H129637   2.776   2.612  10.246 -0.1843  1.7056 -0.7603
 1814TIP3    H229638   2.660   2.556  10.326  0.2816 -0.1362 -1.3109
 1815TIP3   OH229639   5.404   7.055  11.618  0.0037 -0.1613  0.0806
 1815TIP3    H129640   5.330   7.105  11.583 -0.3861 -1.7427 -1.4979
 1815TIP3    H229641   5.430   6.997  11.546  2.2616 -0.2445  0.8813
 1816TIP3   OH229642   3.358   2.245  10.755  0.0099  0.1293 -0.0493
 1816TIP3    H129643   3.295   2.238  10.683  0.0069  2.3199 -0.3405
 1816TIP3    H229644   3.382   2.338  10.757  2.7777 -0.5010  0.4567
 1817TIP3   OH229645   0.182   7.175  11.135  0.6165  0.1414 -0.3125
 1817TIP3    H129646   0.125   7.102  11.111  0.4485  0.3353 -0.5110
 1817TIP3    H229647   0.231   7.195  11.055  0.8991  0.0339 -0.1670
 1818TIP3   OH229648   7.413   1.974  12.454 -0.0786  0.0494 -0.4812
 1818TIP3    H129649   7.490   1.938  12.498 -1.8109 -1.0044  1.9603
 1818TIP3    H229650   7.406   1.924  12.373  1.2922 -0.4525 -0.3184
 1819TIP3   OH229651   4.290   4.902  12.428  1.0875 -0.3827 -0.5524
 1819TIP3    H129652   4.327   4.947  12.504  2.1839  1.8935 -2.2820
 1819TIP3    H229653   4.289   4.809  12.452 -0.2643  0.3722  2.8261
 1820TIP3   OH229654   4.977   0.817  12.517  0.1492 -0.2263 -0.1386
 1820TIP3    H129655   4.954   0.754  12.448  2.9395  0.7879 -2.2266
 1820TIP3    H229656   4.943   0.901  12.484 -0.7483 -0.1027  1.0501
 1821TIP3   OH229657   2.998   0.720  12.868 -0.3548  0.6449 -0.0719
 1821TIP3    H129658   3.088   0.700  12.840  0.0044  1.8935  0.1034
 1821TIP3    H229659   3.007   0.741  12.961 -1.0452 -0.4426  0.2567
 1822TIP3   OH229660   4.531   3.437  12.438 -0.1982  0.4745 -0.1619
 1822TIP3    H129661   4.521   3.416  12.531 -1.0493  0.5780 -0.2197
 1822TIP3    H229662   4.539   3.533  12.435 -3.2480  0.8421 -0.3699
 1823TIP3   OH229663   6.436   6.013  11.716 -0.2362  0.0946  0.2555
 1823TIP3    H129664   6.396   5.926  11.719  2.1711 -1.0687  1.4705
 1823TIP3    H229665   6.383   6.065  11.777 -1.3083 -0.6834  0.0257
 1824TIP3   OH229666   6.827   3.752  11.246 -0.0025 -0.0305  0.5754
 1824TIP3    H129667   6.835   3.757  11.341 -0.6155 -0.6143  0.6631
 1824TIP3    H229668   6.760   3.817  11.224 -0.8630 -0.8542  0.6976
 1825TIP3   OH229669   1.944   7.089  12.608  0.2600 -0.0051  0.4921
 1825TIP3    H129670   1.944   7.116  12.700  2.3019  0.0079  0.5338
 1825TIP3    H229671   1.938   7.171  12.559  0.8815  0.1174  0.6179
 1826TIP3   OH229672   1.155   6.414  11.601  0.3249  0.2727  0.2383
 1826TIP3    H129673   1.100   6.470  11.546  0.0785 -0.3047 -0.1140
 1826TIP3    H229674   1.228   6.390  11.544  0.4136  0.2091  0.3788
 1827TIP3   OH229675   4.694   3.726  10.901 -0.5783  0.1921 -0.3940
 1827TIP3    H129676   4.633   3.798  10.885 -0.2032  0.8148  0.8519
 1827TIP3    H229677   4.763   3.738  10.836 -0.0210  1.5616  0.3947
 1828TIP3   OH229678   2.945   6.889  11.539  0.6159 -0.2067  0.6854
 1828TIP3    H129679   2.994   6.947  11.481 -0.1333 -0.5439 -0.3179
 1828TIP3    H229680   2.989   6.896  11.624  2.2582 -0.3396 -0.1230
 1829TIP3   OH229681   5.868   5.377  10.888  0.2377  0.2073  0.0277
 1829TIP3    H129682   5.900   5.335  10.967  2.1194 -0.7545 -1.1700
 1829TIP3    H229683   5.817   5.452  10.919 -1.2476 -1.5753  2.1765
 1830TIP3   OH229684   2.295   1.446  11.163 -0.0705 -0.1144 -0.1180
 1830TIP3    H129685   2.322   1.470  11.251 -0.3090 -0.4941  0.0612
 1830TIP3    H229686   2.366   1.476  11.107 -0.9502  2.2307 -0.0666
 1831TIP3   OH229687   7.418   7.094  10.491 -0.2409  0.2373  0.5463
 1831TIP3    H129688   7.434   7.136  10.576 -0.3040  0.9987  0.1887
 1831TIP3    H229689   7.331   7.125  10.465 -1.2516 -1.8178  1.2645
 1832TIP3   OH229690   3.042   3.612  11.416 -0.4801 -0.4508 -0.1779
 1832TIP3    H129691   3.073   3.634  11.328  0.3403 -0.6946  0.0339
 1832TIP3    H229692   3.071   3.522  11.430 -0.0098 -0.2008  0.5834
 1833TIP3   OH229693   6.723   4.305  11.935 -0.5965  0.4835  0.2536
 1833TIP3    H129694   6.718   4.354  12.017 -0.0875 -0.8693  1.1327
 1833TIP3    H229695   6.750   4.370  11.870  1.4053  1.1084  1.6228
 1834TIP3   OH229696   6.347   5.415  10.906  0.3279 -0.0681 -0.9290
 1834TIP3    H129697   6.430   5.459  10.929  1.2231 -2.1006 -0.0467
 1834TIP3    H229698   6.367   5.322  10.914 -2.2816 -0.6111  0.1137
 1835TIP3   OH229699   5.810   1.055  10.953  0.3146  0.2119  0.3932
 1835TIP3    H129700   5.834   0.983  11.012 -1.1441  1.1257  2.1817
 1835TIP3    H229701   5.767   1.012  10.879  0.6805 -0.8499  0.7813
 1836TIP3   OH229702   6.239   3.814  10.193 -0.3352  0.3469  0.0375
 1836TIP3    H129703   6.210   3.774  10.111 -0.7507  0.8990 -0.0903
 1836TIP3    H229704   6.175   3.883  10.210  0.2004  0.7625  0.4067
 1837TIP3   OH229705   6.122   5.219  12.782  0.3448  0.1545  0.1656
 1837TIP3    H129706   6.095   5.215  12.874 -0.2026  0.1276  0.0072
 1837TIP3    H229707   6.059   5.279  12.742  1.6409  1.5658  0.1653
 1838TIP3   OH229708   6.122   0.667  10.008 -0.0744  0.4114 -0.2761
 1838TIP3    H129709   6.163   0.637   9.927  0.3244  4.4767 -1.8214
 1838TIP3    H229710   6.186   0.729  10.045 -1.1753  0.2558  2.0243
 1839TIP3   OH229711   1.593   0.650  11.859 -0.5725 -0.3587 -0.2432
 1839TIP3    H129712   1.502   0.668  11.835 -0.8414 -0.2288  0.8025
 1839TIP3    H229713   1.621   0.729  11.905  0.4670  0.0891 -1.5733
 1840TIP3   OH229714   2.563   5.241  11.369  0.1873  0.2419  0.5839
 1840TIP3    H129715   2.495   5.309  11.370  0.7983  0.8858  2.2670
 1840TIP3    H229716   2.625   5.270  11.303 -0.9338 -0.1456 -0.6892
 1841TIP3   OH229717   6.008   7.639   9.847 -0.4124  0.0250 -0.4298
 1841TIP3    H129718   6.066   7.648   9.923  0.5650 -2.4385 -0.7595
 1841TIP3    H229719   6.043   7.701   9.783  1.1546 -0.5280 -0.1660
 1842TIP3   OH229720   4.117   6.595  12.519 -0.4042 -0.6529 -0.3128
 1842TIP3    H129721   4.160   6.671  12.480 -0.7446 -1.8728 -3.3700
 1842TIP3    H229722   4.186   6.529  12.525 -0.5912 -0.7985  0.3239
 1843TIP3   OH229723   4.668   5.507  12.115 -0.2225 -0.5390  0.5478
 1843TIP3    H129724   4.762   5.510  12.098 -0.5721 -2.6650 -2.4149
 1843TIP3    H229725   4.662   5.473  12.205  1.8413 -1.8137  0.2824
 1844TIP3   OH229726   4.462   5.332  12.428  0.5689  0.7988 -0.0590
 1844TIP3    H129727   4.388   5.360  12.374 -1.2463 -0.9241  1.3839
 1844TIP3    H229728   4.510   5.271  12.372 -1.6491 -1.4750  0.3110
 1845TIP3   OH229729   4.046   4.145  11.903 -0.4076  0.8852  0.5081
 1845TIP3    H129730   3.951   4.135  11.893 -0.2335 -0.7666  0.1491
 1845TIP3    H229731   4.072   4.068  11.954  0.8614  0.8017 -0.2384
 1846TIP3   OH229732   6.443   6.375  11.696  0.1974 -0.1825  0.1835
 1846TIP3    H129733   6.482   6.416  11.774  0.2077 -0.9037  0.5679
 1846TIP3    H229734   6.381   6.311  11.731  0.4278 -0.7320 -0.3974
 1847TIP3   OH229735   4.085   3.734  11.857 -0.0112  0.8882 -0.0375
 1847TIP3    H129736   4.122   3.763  11.941 -0.6857 -0.0390  0.5992
 1847TIP3    H229737   4.045   3.649  11.876 -0.6008  0.8849 -1.1918
 1848TIP3   OH229738   3.788   6.184  11.963 -0.2954 -0.0026  0.3582
 1848TIP3    H129739   3.783   6.101  12.010 -1.3404 -0.1894 -0.0466
 1848TIP3    H229740   3.701   6.195  11.923  0.1155  0.8276 -0.3660
 1849TIP3   OH229741   3.898   4.319  10.758  0.3546 -0.2015 -0.1030
 1849TIP3    H129742   3.950   4.371  10.697  0.1520  1.4926  1.0875
 1849TIP3    H229743   3.845   4.263  10.702  1.4267  0.0421 -1.4194
 1850TIP3   OH229744   1.461   1.911  11.718  0.1693  0.0787  0.0423
 1850TIP3    H129745   1.493   1.900  11.629  1.0905  1.1629  0.2260
 1850TIP3    H229746   1.510   1.847  11.770  0.4112  0.2021 -0.0383
 1851TIP3   OH229747   2.056   3.933  11.557  0.1546  0.5266 -0.0404
 1851TIP3    H129748   2.149   3.954  11.564  0.3627 -0.8513  3.0120
 1851TIP3    H229749   2.012   3.999  11.611 -0.5428  0.4505 -0.4897
 1852TIP3   OH229750   5.430   2.582  11.882  0.0615 -0.2395 -0.3402
 1852TIP3    H129751   5.503   2.611  11.828 -0.0568 -0.7921 -0.8031
 1852TIP3    H229752   5.383   2.518  11.828  0.5945 -1.6733  0.8014
 1853TIP3   OH229753   3.359   0.531  11.861 -0.0233 -0.4988 -0.3915
 1853TIP3    H129754   3.284   0.476  11.882 -1.0620  0.8269 -0.5493
 1853TIP3    H229755   3.399   0.550  11.946  0.3298 -1.4418 -0.3313
 1854TIP3   OH229756   1.131   4.374  11.748 -0.9769 -0.2489 -0.0385
 1854TIP3    H129757   1.155   4.301  11.805  0.6288  0.2049 -0.0805
 1854TIP3    H229758   1.048   4.405  11.782 -0.6477 -0.7634  1.2832
 1855TIP3   OH229759   3.018   4.432  12.484  0.0971 -0.5016 -0.7268
 1855TIP3    H129760   2.964   4.510  12.493  0.0399 -0.6585  0.5269
 1855TIP3    H229761   2.964   4.361  12.519  1.2098 -0.5968  0.9120
 1856TIP3   OH229762   5.790   0.836  12.632 -0.2280 -0.5411 -0.3616
 1856TIP3    H129763   5.742   0.874  12.559 -2.2314  1.3013  1.7391
 1856TIP3    H229764   5.726   0.779  12.676  0.1205  0.2473  1.2560
 1857TIP3   OH229765   2.479   2.001  12.217  0.5201  0.2075 -0.0715
 1857TIP3    H129766   2.530   2.046  12.284  0.1012 -0.8651  0.9974
 1857TIP3    H229767   2.390   2.033  12.228  0.2761 -0.6338  0.4991
 1858TIP3   OH229768   4.686   1.715  11.025  0.4261 -0.4488  0.5825
 1858TIP3    H129769   4.750   1.725  11.096  4.6317 -0.3927 -2.8500
 1858TIP3    H229770   4.680   1.802  10.986 -0.7971 -0.7512  0.0481
 1859TIP3   OH229771   6.543   1.325  10.542 -0.3690 -0.0323 -0.5002
 1859TIP3    H129772   6.544   1.363  10.630  0.3404 -0.5795 -0.2554
 1859TIP3    H229773   6.477   1.257  10.545  1.0762 -1.4786  0.2713
 1860TIP3   OH229774   6.558   1.727  10.100 -0.8157 -0.8373 -0.6151
 1860TIP3    H129775   6.568   1.799  10.037  1.1689 -2.6819 -2.5914
 1860TIP3    H229776   6.642   1.723  10.146 -1.0993 -1.5011 -0.1378
 1861TIP3   OH229777   6.105   5.928  11.282  0.4931  0.2799  0.4535
 1861TIP3    H129778   6.094   5.945  11.375 -0.0440 -0.6484  0.5745
 1861TIP3    H229779   6.021   5.949  11.243 -0.1864 -1.8790  0.6019
 1862TIP3   OH229780   6.656   7.303  11.315  0.1765  0.0231  0.0639
 1862TIP3    H129781   6.571   7.323  11.276  0.5531 -0.5009 -1.0815
 1862TIP3    H229782   6.707   7.383  11.304 -0.2997  0.4949  1.1728
 1863TIP3   OH229783   5.126   2.482  11.572  0.4691  0.3190  0.2344
 1863TIP3    H129784   5.116   2.395  11.535  2.3420  0.8015 -1.6040
 1863TIP3    H229785   5.212   2.481  11.614 -0.3818  0.6961  2.1129
 1864TIP3   OH229786   1.036   7.246  12.427 -0.6533 -0.1398  0.6921
 1864TIP3    H129787   1.029   7.311  12.357 -0.7362 -0.1759  0.6675
 1864TIP3    H229788   0.955   7.195  12.422 -0.3335 -0.6233  0.3310
 1865TIP3   OH229789   3.220   0.589  12.774  0.1077 -0.0707  0.4665
 1865TIP3    H129790   3.295   0.557  12.825 -0.4573 -1.2481  0.5813
 1865TIP3    H229791   3.208   0.524  12.706 -0.2613  0.5843 -0.1076
 1866TIP3   OH229792   1.018   1.898  12.800 -0.4631  0.0006  0.1577
 1866TIP3    H129793   1.049   1.813  12.770 -2.6721 -0.0465 -2.4076
 1866TIP3    H229794   1.094   1.938  12.842  1.4330 -2.1134 -1.0480
 1867TIP3   OH229795   6.890   3.960  11.010  0.7713 -0.3855  0.1781
 1867TIP3    H129796   6.874   4.002  10.926 -2.9443 -1.3317  0.2578
 1867TIP3    H229797   6.924   3.873  10.986  0.2738 -0.4451 -0.3489
 1868TIP3   OH229798   4.563   4.130  11.551  0.5897  0.1897  0.1236
 1868TIP3    H129799   4.509   4.083  11.487 -1.6603  3.1513 -0.3521
 1868TIP3    H229800   4.565   4.071  11.627 -3.0502 -0.3596 -0.0132
 1869TIP3   OH229801   7.115   3.000  10.505 -0.3395 -0.0792  0.1309
 1869TIP3    H129802   7.075   2.922  10.543  2.2839 -0.7696  1.7021
 1869TIP3    H229803   7.121   2.981  10.411 -1.8468 -0.7189  0.1389
 1870TIP3   OH229804   0.567   5.304  11.885 -0.4603  0.4899 -0.2674
 1870TIP3    H129805   0.482   5.326  11.924 -0.3612  1.2685 -0.4807
 1870TIP3    H229806   0.593   5.383  11.839  0.7669  0.5375  0.4768
 1871TIP3   OH229807   4.702   2.487  12.659 -0.3578 -1.0550 -0.1161
 1871TIP3    H129808   4.725   2.579  12.645 -1.1116 -0.3576  2.6593
 1871TIP3    H229809   4.608   2.489  12.674 -0.2836 -2.2176  0.5515
 1872TIP3   OH229810   2.575   0.380  12.828  0.1553 -0.5478 -0.7572
 1872TIP3    H129811   2.504   0.371  12.764  2.0513 -1.7541 -2.8160
 1872TIP3    H229812   2.588   0.292  12.863  0.3394 -0.2416 -0.0336
 1873TIP3   OH229813   3.601   7.270  12.397  0.3029  0.1203 -0.4519
 1873TIP3    H129814   3.682   7.322  12.396  0.1902  0.3179 -1.8377
 1873TIP3    H229815   3.571   7.275  12.488  1.8495  0.0131  0.1033
 1874TIP3   OH229816   1.510   1.223  11.575 -0.3758  0.0367  0.7067
 1874TIP3    H129817   1.577   1.155  11.566 -0.7705 -0.1998 -0.7437
 1874TIP3    H229818   1.466   1.224  11.490 -0.6910  1.7839  0.8595
 1875TIP3   OH229819   4.147   3.224  10.735  0.0067 -0.1363  0.2988
 1875TIP3    H129820   4.136   3.252  10.644  2.0672  1.6624  0.5129
 1875TIP3    H229821   4.073   3.263  10.781 -0.2443  0.1906 -0.3705
 1876TIP3   OH229822   0.635   2.199  11.692 -0.5830 -0.4392 -0.3943
 1876TIP3    H129823   0.656   2.151  11.772 -0.9140 -1.1345 -0.7170
 1876TIP3    H229824   0.718   2.202  11.644 -0.7678 -1.5875 -0.8310
 1877TIP3   OH229825   1.306   4.526  10.653 -0.3917 -0.0181 -0.0041
 1877TIP3    H129826   1.272   4.486  10.573  1.3855 -0.3732 -0.6167
 1877TIP3    H229827   1.386   4.477  10.672 -1.5596 -1.0280  2.9150
 1878TIP3   OH229828   5.193   6.637  12.337 -0.6441  0.1477  0.1467
 1878TIP3    H129829   5.169   6.690  12.261 -1.6530  0.6451  0.7990
 1878TIP3    H229830   5.289   6.633  12.334 -0.6913 -0.5348 -1.6003
 1879TIP3   OH229831   6.909   0.404  12.137 -0.0758 -0.0074 -0.1582
 1879TIP3    H129832   6.991   0.373  12.175 -0.1622 -0.3827 -0.2795
 1879TIP3    H229833   6.924   0.498  12.122  0.6027 -0.2215 -0.9057
 1880TIP3   OH229834   4.379   4.668  10.554  0.3244  0.2480  0.0907
 1880TIP3    H129835   4.454   4.708  10.509  0.5596 -1.2768 -0.9255
 1880TIP3    H229836   4.385   4.575  10.533 -0.9007 -0.1585  1.4043
 1881TIP3   OH229837   6.538   1.543  10.311  0.8214 -0.3131  0.1225
 1881TIP3    H129838   6.567   1.599  10.240 -0.4370  0.6004  0.2818
 1881TIP3    H229839   6.463   1.495  10.274 -0.1368  0.5147  0.9446
 1882TIP3   OH229840   6.085   2.822  10.157  0.2374 -0.1015  0.4581
 1882TIP3    H129841   6.180   2.814  10.154  0.2036 -0.3489 -1.7776
 1882TIP3    H229842   6.055   2.781  10.076 -1.7140  0.8343  0.6442
 1883TIP3   OH229843   1.167   2.790  11.673  0.1472  0.0739  0.3657
 1883TIP3    H129844   1.114   2.860  11.636 -2.5818 -2.7619 -1.5684
 1883TIP3    H229845   1.229   2.766  11.604 -0.1795 -0.5964  0.2929
 1884TIP3   OH229846   1.494   5.213  10.182 -0.5363  0.0661  0.1189
 1884TIP3    H129847   1.481   5.308  10.188 -1.5546 -0.0993  0.6426
 1884TIP3    H229848   1.451   5.188  10.101 -0.0110  0.0846 -0.1713
 1885TIP3   OH229849   3.097   3.709  10.917  0.4711  0.1103 -0.0935
 1885TIP3    H129850   3.014   3.756  10.908  0.2482 -0.4134 -0.8341
 1885TIP3    H229851   3.163   3.773  10.891  0.1262 -0.1652 -1.7207
 1886TIP3   OH229852   0.671   1.098  10.925 -0.1115  0.0777 -0.2495
 1886TIP3    H129853   0.731   1.172  10.932 -0.6915  0.6392 -1.0328
 1886TIP3    H229854   0.592   1.126  10.971  0.3146 -0.7905  1.0808
 1887TIP3   OH229855   6.063   1.152  10.929  0.1200  0.8099  0.1790
 1887TIP3    H129856   6.052   1.246  10.913 -0.9342  0.8580  1.0846
 1887TIP3    H229857   5.976   1.121  10.952  0.5494 -0.3094  0.3675
 1888TIP3   OH229858   5.629   5.079  12.446  0.3922  0.0306 -0.0493
 1888TIP3    H129859   5.632   4.987  12.419 -0.1379 -0.4302  1.3622
 1888TIP3    H229860   5.537   5.095  12.468  1.0065 -0.2669  3.3561
 1889TIP3   OH229861   3.157   7.589  10.190 -0.3429 -0.1149  0.1074
 1889TIP3    H129862   3.240   7.630  10.166 -0.5589 -0.3054 -1.0013
 1889TIP3    H229863   3.153   7.509  10.138 -0.3827 -1.0745  1.5155
 1890TIP3   OH229864   5.283   6.500  11.673 -0.1338  0.2347 -0.0152
 1890TIP3    H129865   5.376   6.489  11.658 -0.2792 -0.7806 -0.2591
 1890TIP3    H229866   5.258   6.575  11.619  0.2266 -0.5346 -1.2771
 1891TIP3   OH229867   6.564   1.684  12.242 -0.0659 -0.8081  0.1004
 1891TIP3    H129868   6.644   1.662  12.194 -0.6449 -1.2521 -0.6939
 1891TIP3    H229869   6.496   1.630  12.201 -0.9106  0.1018  0.2704
 1892TIP3   OH229870   0.805   3.547  11.574 -0.4938  0.2887 -0.3219
 1892TIP3    H129871   0.757   3.538  11.491  0.2251 -1.3306 -0.5980
 1892TIP3    H229872   0.786   3.466  11.621 -1.3559  1.4307  1.3789
 1893TIP3   OH229873   7.135   3.147  12.458 -0.4028  0.1112  0.5296
 1893TIP3    H129874   7.183   3.219  12.419  0.3747 -0.5536  0.2238
 1893TIP3    H229875   7.192   3.113  12.527  0.2246 -1.5538 -0.7306
 1894TIP3   OH229876   1.393   2.154  11.955 -0.2714  0.0404  0.2027
 1894TIP3    H129877   1.323   2.218  11.941 -0.7100 -0.0871  1.6537
 1894TIP3    H229878   1.471   2.197  11.921 -0.4358  1.6556  1.7040
 1895TIP3   OH229879   3.776   6.956   9.978 -0.1880  0.2501  0.8342
 1895TIP3    H129880   3.704   6.945   9.916  0.7374 -0.1691 -0.1897
 1895TIP3    H229881   3.752   6.902  10.053 -0.3645 -0.8640 -0.0123
 1896TIP3   OH229882   1.617   5.893  10.756  0.3608  0.1985 -0.0552
 1896TIP3    H129883   1.650   5.980  10.781  0.7929 -0.3825  1.4639
 1896TIP3    H229884   1.682   5.861  10.693  0.9555  0.3976  0.4516
 1897TIP3   OH229885   2.263   6.222  11.444  0.5201 -0.3232 -0.9009
 1897TIP3    H129886   2.229   6.289  11.503 -0.7188 -1.0091 -0.7907
 1897TIP3    H229887   2.227   6.245  11.358 -0.9454 -1.4720 -0.6477
 1898TIP3   OH229888   2.506   4.386  12.550 -0.5176 -0.4834  0.0879
 1898TIP3    H129889   2.506   4.294  12.578 -0.7850 -0.7476 -0.7556
 1898TIP3    H229890   2.501   4.435  12.632 -3.0609 -1.2514  0.4972
 1899TIP3   OH229891   7.568   4.445  11.122  0.5180 -0.7772 -0.3911
 1899TIP3    H129892   7.550   4.377  11.057 -4.1619 -0.7060  0.4806
 1899TIP3    H229893   7.538   4.526  11.082  0.2460 -0.2757  0.7812
 1900TIP3   OH229894   7.272   0.851  10.237 -0.2076  0.4140  0.5520
 1900TIP3    H129895   7.287   0.761  10.263  2.4264 -0.4293 -3.0672
 1900TIP3    H229896   7.189   0.850  10.189  0.8145 -0.6867 -1.3135
 1901TIP3   OH229897   7.198   3.679  10.772  0.0975  0.1499  0.0640
 1901TIP3    H129898   7.162   3.689  10.684  0.9542  1.6339 -0.1654
 1901TIP3    H229899   7.292   3.675  10.759  0.2064 -0.1272  0.8816
 1902TIP3   OH229900   3.730   0.201  12.683  0.2012  0.3928 -0.4209
 1902TIP3    H129901   3.752   0.111  12.706  0.6165  1.1713  2.6357
 1902TIP3    H229902   3.810   0.250  12.697 -0.3404  1.4445 -0.8737
 1903TIP3   OH229903   1.633   4.425  11.149 -0.3240 -0.1704  0.3034
 1903TIP3    H129904   1.605   4.509  11.186 -1.5169 -0.1169 -0.6458
 1903TIP3    H229905   1.560   4.365  11.167 -0.3640 -0.4734 -0.7827
 1904TIP3   OH229906   7.433   4.038  10.096  0.0887  0.0335 -0.1462
 1904TIP3    H129907   7.384   3.960  10.121  2.0119 -2.1156 -2.5270
 1904TIP3    H229908   7.365   4.102  10.073 -1.6090 -1.7994 -0.5788
 1905TIP3   OH229909   3.033   1.614  11.831  0.5529 -0.4541 -0.4552
 1905TIP3    H129910   2.942   1.592  11.810 -0.5374  1.6610  1.6855
 1905TIP3    H229911   3.031   1.642  11.922  3.3903 -0.3477 -0.3385
 1906TIP3   OH229912   7.197   7.064  10.226  0.2304  0.3769  0.4160
 1906TIP3    H129913   7.246   7.120  10.166 -0.3562 -0.3847 -0.8140
 1906TIP3    H229914   7.133   7.020  10.170 -0.9649  0.3455  1.7558
 1907TIP3   OH229915   2.037   3.536  11.609 -0.3293 -0.1267  0.0509
 1907TIP3    H129916   2.013   3.491  11.690  0.0860 -0.1114  0.1849
 1907TIP3    H229917   2.126   3.566  11.624 -0.7993  1.2631  0.1829
 1908TIP3   OH229918   7.273   3.219  10.157  0.4791  0.1857 -0.4908
 1908TIP3    H129919   7.337   3.174  10.103  0.8159 -1.1249  0.9603
 1908TIP3    H229920   7.218   3.149  10.194  0.6509  0.9642  1.3495
 1909TIP3   OH229921   6.117   1.898  12.373  0.1763  0.6455 -0.2625
 1909TIP3    H129922   6.099   1.991  12.366  0.7162  0.7658 -0.1123
 1909TIP3    H229923   6.121   1.881  12.467 -1.8214  0.0788 -0.2284
 1910TIP3   OH229924   0.381   3.408  12.896  0.4045 -0.4741 -0.1056
 1910TIP3    H129925   0.426   3.493  12.896  0.4415 -0.4119  2.1520
 1910TIP3    H229926   0.447   3.346  12.867  1.3139 -0.0915  1.0629
 1911TIP3   OH229927   4.927   7.342  11.229  0.9255  0.0426 -0.2864
 1911TIP3    H129928   4.863   7.411  11.247  1.0687  0.0700  0.1214
 1911TIP3    H229929   4.961   7.363  11.142  1.4180  0.8348  0.0895
 1912TIP3   OH229930   3.552   2.079  11.853 -0.0894 -0.1349  0.4843
 1912TIP3    H129931   3.623   2.140  11.875  0.2978 -0.6903  0.7793
 1912TIP3    H229932   3.532   2.099  11.761  1.6408 -1.1312 -0.1647
 1913TIP3   OH229933   3.255   7.527  11.373  0.3990 -0.4498 -0.0453
 1913TIP3    H129934   3.283   7.506  11.462  0.7401 -1.8177 -0.4504
 1913TIP3    H229935   3.274   7.448  11.322  0.4617  0.3981 -1.3953
 1914TIP3   OH229936   7.519   0.624  10.434 -0.3495 -0.7557  0.0957
 1914TIP3    H129937   7.449   0.620  10.369  0.6181  1.0317 -1.1387
 1914TIP3    H229938   7.596   0.655  10.386  0.6829 -0.3425  1.8829
 1915TIP3   OH229939   3.183   6.582  10.475 -0.4081 -0.0569  0.0129
 1915TIP3    H129940   3.147   6.511  10.422  0.8171  0.3518 -1.4227
 1915TIP3    H229941   3.151   6.662  10.433 -0.2121  0.2761  0.4824
 1916TIP3   OH229942   0.261   4.619  11.540  0.8900  0.4693 -0.2845
 1916TIP3    H129943   0.351   4.643  11.562  0.5759  1.4143  0.0199
 1916TIP3    H229944   0.265   4.595  11.447  1.9680 -2.2697  0.3787
 1917TIP3   OH229945   3.575   5.761  11.538 -0.2449  0.4706  0.1845
 1917TIP3    H129946   3.622   5.690  11.494 -0.9186  0.2761 -0.2568
 1917TIP3    H229947   3.643   5.818  11.573  0.3074 -0.1721  0.1784
 1918TIP3   OH229948   5.955   3.988  12.591 -0.3837 -0.7362  0.1833
 1918TIP3    H129949   5.892   4.051  12.628  0.3272 -0.1122  0.3486
 1918TIP3    H229950   6.036   4.038  12.582 -0.8889 -0.3337 -3.7105
 1919TIP3   OH229951   0.658   5.835  11.656 -0.1542 -0.1060 -0.0999
 1919TIP3    H129952   0.683   5.928  11.658 -0.1371 -0.1101 -0.1104
 1919TIP3    H229953   0.732   5.791  11.613 -0.5581  0.0000 -0.9261
 1920TIP3   OH229954   4.579   4.958  10.734  0.1131 -0.0814 -0.0127
 1920TIP3    H129955   4.606   4.880  10.784 -1.4183 -0.6458 -0.0158
 1920TIP3    H229956   4.543   4.923  10.653  0.2174  0.6911 -0.3988
 1921TIP3   OH229957   6.178   5.216  11.661 -0.2542 -0.0547 -0.4325
 1921TIP3    H129958   6.161   5.264  11.742 -1.3553 -0.2337 -0.5429
 1921TIP3    H229959   6.256   5.165  11.680 -0.6627 -0.3184  0.6202
 1922TIP3   OH229960   2.528   5.616  11.964  0.2365  0.5085 -0.4443
 1922TIP3    H129961   2.478   5.603  12.045  0.0687 -3.1836 -0.9450
 1922TIP3    H229962   2.618   5.627  11.993  0.0392  0.3020  0.2804
 1923TIP3   OH229963   6.288   0.921  12.081  0.7228  0.0955  0.5460
 1923TIP3    H129964   6.285   0.838  12.128 -0.9021 -0.1528  0.0405
 1923TIP3    H229965   6.217   0.973  12.118  0.9872  0.8231  0.0576
 1924TIP3   OH229966   4.992   0.050  11.504  0.3909  0.1476  0.3101
 1924TIP3    H129967   4.986   0.070  11.598 -1.4955  2.2181 -0.1541
 1924TIP3    H229968   5.085   0.057  11.484  0.7785  0.1452  1.9266
 1925TIP3   OH229969   7.181   6.306  11.717 -0.2219  0.2450 -0.0953
 1925TIP3    H129970   7.093   6.269  11.715  0.3514 -1.4578  2.4399
 1925TIP3    H229971   7.178   6.373  11.785  1.1366 -2.1714  2.5666
 1926TIP3   OH229972   0.216   5.684  11.920 -0.5897  0.0783  0.4621
 1926TIP3    H129973   0.286   5.734  11.878 -0.5895  0.2105  0.6168
 1926TIP3    H229974   0.155   5.751  11.953 -1.5091 -0.0608 -0.8771
 1927TIP3   OH229975   7.371   1.054  10.739 -0.6029  0.3692  0.2450
 1927TIP3    H129976   7.362   1.133  10.686  1.8686  0.6621  0.1341
 1927TIP3    H229977   7.404   1.086  10.823 -0.4741 -0.4654  0.5190
 1928TIP3   OH229978   6.697   3.337  10.550 -0.3091  0.5560  0.2325
 1928TIP3    H129979   6.745   3.403  10.501 -2.2442  1.0219 -1.1902
 1928TIP3    H229980   6.610   3.376  10.564 -0.1619  0.0833  3.3400
 1929TIP3   OH229981   7.215   3.669  11.616  0.2784  0.0419 -0.1214
 1929TIP3    H129982   7.229   3.580  11.582  0.4236 -0.6228  1.5453
 1929TIP3    H229983   7.181   3.718  11.542  0.9210 -1.2130 -1.2941
 1930TIP3   OH229984   6.511   3.134  11.337 -0.3945  0.1182  0.1463
 1930TIP3    H129985   6.503   3.045  11.371 -0.4670  0.0245 -0.1100
 1930TIP3    H229986   6.554   3.183  11.407 -1.7265  0.2413  0.9002
 1931TIP3   OH229987   3.765   5.539  11.746 -0.1305 -0.6436 -0.1908
 1931TIP3    H129988   3.811   5.456  11.758  0.5222 -0.2564  0.0011
 1931TIP3    H229989   3.832   5.600  11.717 -0.3728  0.1098  0.7931
 1932TIP3   OH229990   5.607   1.650  10.788  0.0402  0.2743  0.4552
 1932TIP3    H129991   5.572   1.564  10.767  1.0047 -0.3791  1.4286
 1932TIP3    H229992   5.552   1.682  10.859  1.9184 -1.2136  2.7364
 1933TIP3   OH229993   6.234   3.792  12.236  0.2093 -0.4873 -0.0756
 1933TIP3    H129994   6.202   3.762  12.321  1.5162 -0.0167  0.6057
 1933TIP3    H229995   6.204   3.883  12.231  1.2709 -0.0909  0.4996
 1934TIP3   OH229996   2.159   4.437  11.589 -0.0013  0.3100  0.0052
 1934TIP3    H129997   2.143   4.516  11.538 -1.0388  0.9287  1.2328
 1934TIP3    H229998   2.254   4.432  11.597  0.0737  1.7423  0.3388
 1935TIP3   OH229999   5.932   4.264  12.388  0.7509  0.6307 -0.0949
 1935TIP3    H130000   6.028   4.258  12.391  0.6831 -0.1938  0.8081
 1935TIP3    H230001   5.914   4.302  12.303  1.8321 -0.4259 -0.8360
 1936TIP3   OH230002   1.038   2.560  12.100  0.2604  0.1735  0.0864
 1936TIP3    H130003   1.120   2.543  12.147  0.7031  0.5611 -0.5268
 1936TIP3    H230004   1.066   2.578  12.010 -0.3797  1.7931  0.1950
 1937TIP3   OH230005   6.896   2.129  11.082 -0.2111  0.2114  0.4605
 1937TIP3    H130006   6.806   2.156  11.100 -0.6560 -1.3764  0.7650
 1937TIP3    H230007   6.926   2.192  11.016 -1.5528  0.7518  0.3158
 1938TIP3   OH230008   3.834   6.989  12.399 -0.0756  0.3406  0.1333
 1938TIP3    H130009   3.804   7.032  12.319  2.0349  2.2374  0.2308
 1938TIP3    H230010   3.855   6.900  12.372 -0.5809  0.5893 -1.1370
 1939TIP3   OH230011   2.102   1.021  11.325 -0.2839 -0.4758 -0.0723
 1939TIP3    H130012   2.091   1.110  11.360 -1.8706 -0.4524 -0.5890
 1939TIP3    H230013   2.106   0.965  11.403  0.5705  0.0027  0.2533
 1940TIP3   OH230014   6.934   6.610  11.928  0.0623 -0.1557  0.3460
 1940TIP3    H130015   6.987   6.599  12.007 -1.7866 -0.8649  1.5748
 1940TIP3    H230016   6.910   6.521  11.903  0.2666  0.0914 -0.7824
 1941TIP3   OH230017   0.407   6.112  11.690  0.3040 -0.5221  0.4032
 1941TIP3    H130018   0.321   6.071  11.684 -0.5063  1.1540 -0.1935
 1941TIP3    H230019   0.390   6.205  11.674  2.0435  0.0660  1.6274
 1942TIP3   OH230020   1.776   2.535  10.856 -0.3069 -0.2064 -0.5120
 1942TIP3    H130021   1.752   2.608  10.800 -1.1441  0.7559  1.0306
 1942TIP3    H230022   1.697   2.481  10.860 -0.0100 -0.6785 -0.8350
 1943TIP3   OH230023   4.893   2.783  11.966  0.0033  0.9149  0.1470
 1943TIP3    H130024   4.960   2.808  11.902  0.2794  1.3305  0.5928
 1943TIP3    H230025   4.916   2.832  12.045  0.7174 -0.9393  1.1464
 1944TIP3   OH230026   0.295   6.861  10.944 -0.1602  0.3296 -0.0531
 1944TIP3    H130027   0.253   6.803  10.880 -0.2471 -0.0118  0.3113
 1944TIP3    H230028   0.276   6.950  10.912  0.9593  0.1664 -1.2552
 1945TIP3   OH230029   6.592   5.737  12.311  0.2277 -0.4445 -0.2178
 1945TIP3    H130030   6.572   5.682  12.386 -0.7962  0.0067 -0.1501
 1945TIP3    H230031   6.688   5.732  12.303  0.4806  0.3109  1.7608
 1946TIP3   OH230032   3.088   0.819  11.814  0.1772 -0.4670 -0.0708
 1946TIP3    H130033   3.009   0.865  11.786 -0.0509  0.1496  1.4928
 1946TIP3    H230034   3.073   0.727  11.791 -1.3058 -0.4740  0.8194
 1947TIP3   OH230035   3.703   4.766  10.793  0.1001 -0.5677 -0.3214
 1947TIP3    H130036   3.629   4.753  10.852 -1.7998  0.9679 -2.1914
 1947TIP3    H230037   3.696   4.695  10.729  0.1458 -0.3328 -0.5895
 1948TIP3   OH230038   6.028   1.260  10.102  0.0259  0.1291  0.5431
 1948TIP3    H130039   6.120   1.279  10.085  0.1853 -0.2749  0.9318
 1948TIP3    H230040   6.029   1.171  10.138 -0.5884 -0.1822 -0.1840
 1949TIP3   OH230041   3.973   1.779  11.971  0.0201 -0.2943  0.1711
 1949TIP3    H130042   3.927   1.789  11.888 -0.8842 -0.5325  0.6270
 1949TIP3    H230043   3.959   1.863  12.016 -0.1961 -0.4587  0.4149
 1950TIP3   OH230044   4.060   3.230  12.616  0.2777 -0.1280  0.3207
 1950TIP3    H130045   3.996   3.189  12.558  0.8916  0.3164 -0.7038
 1950TIP3    H230046   4.013   3.305  12.654 -0.3299 -0.8016  0.9182
 1951TIP3   OH230047   0.207   0.702  10.460 -0.1203 -0.3753  0.0433
 1951TIP3    H130048   0.289   0.735  10.423  1.3434 -0.7499  2.6940
 1951TIP3    H230049   0.221   0.608  10.473 -0.4970 -0.2515  1.5811
 1952TIP3   OH230050   4.098   0.487  10.850  0.1589 -0.6197 -0.0991
 1952TIP3    H130051   4.057   0.535  10.778  0.9351 -1.0423 -0.8515
 1952TIP3    H230052   4.192   0.493  10.832  0.4247  0.1510  1.4682
 1953TIP3   OH230053   3.768   0.097  12.335  0.4418 -0.3745 -0.3867
 1953TIP3    H130054   3.739   0.018  12.382  0.2945 -0.0451  0.0805
 1953TIP3    H230055   3.831   0.138  12.394 -0.9686  0.9206  0.2790
 1954TIP3   OH230056   2.494   1.550  10.985 -0.2937 -0.1968 -0.6323
 1954TIP3    H130057   2.578   1.505  10.995  0.7566  1.2474 -2.2404
 1954TIP3    H230058   2.471   1.537  10.893 -0.0353  2.2769 -1.1254
 1955TIP3   OH230059   1.768   3.041  11.487  0.3467 -0.0914  0.1505
 1955TIP3    H130060   1.685   3.039  11.534  0.0024  1.6310 -0.3088
 1955TIP3    H230061   1.778   3.133  11.460  0.9921 -0.8148 -2.2937
 1956TIP3   OH230062   3.577   0.830  11.124  0.0890  0.2036 -0.0120
 1956TIP3    H130063   3.662   0.867  11.097  0.6724 -1.1790 -0.1722
 1956TIP3    H230064   3.532   0.902  11.167  0.8402  1.3210 -1.0320
 1957TIP3   OH230065   6.270   6.036  12.118  0.1821 -0.0276 -0.5469
 1957TIP3    H130066   6.318   5.960  12.152  1.6697  2.1818  2.8524
 1957TIP3    H230067   6.178   6.015  12.135  0.6641 -0.4792  1.9798
 1958TIP3   OH230068   0.779   4.736  10.123 -0.3214  0.2679  0.0673
 1958TIP3    H130069   0.804   4.688  10.202  1.4613  0.2998 -0.4377
 1958TIP3    H230070   0.861   4.749  10.075 -1.3493  0.1769 -1.8392
 1959TIP3   OH230071   3.291   3.410  11.119 -0.1451  0.4047 -0.5965
 1959TIP3    H130072   3.386   3.402  11.110  0.0067  1.7842 -0.3462
 1959TIP3    H230073   3.257   3.385  11.033  0.0426 -4.8718  0.4937
 1960TIP3   OH230074   0.787   5.213  12.367  0.0643  0.1054  0.4521
 1960TIP3    H130075   0.719   5.268  12.405 -0.8667  0.3256 -1.4060
 1960TIP3    H230076   0.802   5.250  12.279  0.3496 -1.7770 -0.3463
 1961TIP3   OH230077   5.873   5.863  10.933 -0.2758 -0.6594 -0.3581
 1961TIP3    H130078   5.938   5.861  10.863  1.4823  0.1837  1.1634
 1961TIP3    H230079   5.872   5.955  10.961 -0.6602 -1.0571  0.9802
 1962TIP3   OH230080   5.358   2.992  11.343 -0.1246  0.6845  0.0525
 1962TIP3    H130081   5.338   3.064  11.402 -0.4184  2.3436 -1.9557
 1962TIP3    H230082   5.439   3.018  11.300  0.1005 -0.4885 -0.2739
 1963TIP3   OH230083   7.344   2.463  11.278 -0.1347  0.1117 -0.1935
 1963TIP3    H130084   7.324   2.400  11.208 -2.2633 -0.5596  0.9334
 1963TIP3    H230085   7.435   2.489  11.261  0.3200 -2.1070 -1.5892
 1964TIP3   OH230086   0.553   5.981  12.226  0.1886  0.3940 -0.4088
 1964TIP3    H130087   0.633   5.931  12.212 -0.1941  0.0537 -1.4611
 1964TIP3    H230088   0.517   5.995  12.138 -0.8692  0.5951  0.0360
 1965TIP3   OH230089   5.988   4.682  12.722  0.1250  0.0980  0.7060
 1965TIP3    H130090   6.002   4.605  12.667 -0.3974  0.6324 -0.1983
 1965TIP3    H230091   5.930   4.739  12.670 -0.0623  0.7910  1.6418
 1966TIP3   OH230092   0.900   0.463  11.302 -0.1813  0.2090  0.3101
 1966TIP3    H130093   0.909   0.551  11.337  1.6303 -0.4927  1.7889
 1966TIP3    H230094   0.806   0.448  11.297 -0.5904  2.8690 -1.8424
 1967TIP3   OH230095   1.741   6.066  10.363  0.2702 -0.6132 -0.3101
 1967TIP3    H130096   1.724   6.040  10.273 -1.9036  0.3439 -0.2285
 1967TIP3    H230097   1.677   6.135  10.381  0.2729 -1.1475  2.1410
 1968TIP3   OH230098   4.812   1.042  11.436  0.0554  0.3483  0.1479
 1968TIP3    H130099   4.862   1.029  11.355 -1.1618  1.9814 -0.9309
 1968TIP3    H230100   4.726   1.006  11.416 -0.0014 -0.0409  1.0578
 1969TIP3   OH230101   7.316   2.189  12.593  0.1165 -0.0698  0.2294
 1969TIP3    H130102   7.228   2.212  12.562  0.3597  0.8272  0.1885
 1969TIP3    H230103   7.331   2.101  12.560 -1.3339 -0.8079  1.4213
 1970TIP3   OH230104   3.528   6.143  10.924  0.3287 -0.0257  0.2986
 1970TIP3    H130105   3.587   6.178  10.857 -0.1839 -1.5500 -1.0007
 1970TIP3    H230106   3.585   6.089  10.980  0.5593  0.3424  0.4203
 1971TIP3   OH230107   0.699   1.813  10.444 -0.0888  0.2945  0.2473
 1971TIP3    H130108   0.607   1.786  10.454  0.0169  0.1647  0.9124
 1971TIP3    H230109   0.747   1.731  10.439 -0.2559  0.2529 -3.1174
 1972TIP3   OH230110   3.970   3.817  10.579 -0.5943 -0.5232  0.0873
 1972TIP3    H130111   3.988   3.728  10.549 -1.0910 -0.5536 -0.1363
 1972TIP3    H230112   3.875   3.818  10.596  0.0286 -1.4766  4.9368
 1973TIP3   OH230113   2.184   1.230  10.323  0.0741  0.2203 -0.1591
 1973TIP3    H130114   2.091   1.215  10.336  0.2059  0.1444  0.7229
 1973TIP3    H230115   2.227   1.152  10.359  0.4979  0.4031 -0.2552
 1974TIP3   OH230116   2.497   2.203  12.451  0.0113 -0.2309 -0.1548
 1974TIP3    H130117   2.563   2.243  12.395 -0.5251 -0.4455 -0.9476
 1974TIP3    H230118   2.421   2.261  12.444  0.2439  0.2705  1.1157
 1975TIP3   OH230119   0.192   3.072  10.770 -0.9880  0.0579 -0.4459
 1975TIP3    H130120   0.210   3.166  10.761  0.9700 -0.3192 -0.9591
 1975TIP3    H230121   0.220   3.035  10.686 -1.4352 -1.0244 -0.1272
 1976TIP3   OH230122   3.754   1.350  11.206  0.1676  0.3954  0.1130
 1976TIP3    H130123   3.714   1.370  11.290  0.5372 -0.7357  0.5839
 1976TIP3    H230124   3.765   1.435  11.163 -2.0318  0.8270  0.2645
 1977TIP3   OH230125   4.016   2.735  11.780 -0.4348 -0.0835  0.6192
 1977TIP3    H130126   3.979   2.699  11.700  1.2141 -0.2271 -0.1164
 1977TIP3    H230127   4.086   2.674  11.804 -0.7797  0.0522  2.0821
 1978TIP3   OH230128   6.916   4.493  10.872  0.0723 -0.1683 -0.3450
 1978TIP3    H130129   6.933   4.489  10.778 -0.7901 -0.7206 -0.4880
 1978TIP3    H230130   6.866   4.573  10.884  1.7814  0.9100 -0.0696
 1979TIP3   OH230131   4.135   1.074  10.056 -0.2849 -0.0846  0.0083
 1979TIP3    H130132   4.054   1.120  10.034  0.6170  2.8714  2.2159
 1979TIP3    H230133   4.179   1.062   9.972 -0.9403  2.5383 -0.8179
 1980TIP3   OH230134   5.040   0.598  11.027  0.5846  0.7467 -0.4542
 1980TIP3    H130135   5.110   0.551  10.983  1.6000 -0.0568  1.8670
 1980TIP3    H230136   5.082   0.638  11.103 -1.2137  1.3855  0.2559
 1981TIP3   OH230137   5.466   2.266  11.980  0.4679 -0.1820 -0.0812
 1981TIP3    H130138   5.463   2.327  12.053 -0.9902  0.6987 -0.8354
 1981TIP3    H230139   5.558   2.265  11.953  0.5781  1.4366  0.1510
 1982TIP3   OH230140   1.546   3.477  12.236  0.0685  0.4525  0.1263
 1982TIP3    H130141   1.514   3.390  12.212 -0.1963  0.9794 -1.6352
 1982TIP3    H230142   1.641   3.472  12.223  0.2017  0.1163  1.1529
 1983TIP3   OH230143   4.103   5.975  12.085 -0.0239 -0.6200 -0.3649
 1983TIP3    H130144   4.127   5.897  12.135 -2.3507  0.2883  2.5124
 1983TIP3    H230145   4.023   5.950  12.039 -0.0772 -0.3041 -0.4490
 1984TIP3   OH230146   5.624   3.739  10.771  0.1437 -0.0403  0.2415
 1984TIP3    H130147   5.686   3.804  10.738  0.1197  0.5440  1.3110
 1984TIP3    H230148   5.679   3.672  10.812  0.0762  0.9768  2.0890
 1985TIP3   OH230149   2.160   3.563  12.658  0.1091  0.9129  0.3277
 1985TIP3    H130150   2.175   3.577  12.751  0.4179  3.0448  0.0176
 1985TIP3    H230151   2.189   3.644  12.617 -1.0691  0.4660 -1.5138
 1986TIP3   OH230152   7.428   0.535   9.616  0.0437  0.1457 -0.7577
 1986TIP3    H130153   7.334   0.525   9.629  0.2056  0.3938  0.7399
 1986TIP3    H230154   7.466   0.454   9.650  0.5229  1.0374  0.9314
 1987TIP3   OH230155   5.782   0.747  12.234  0.1731  0.3707 -0.2053
 1987TIP3    H130156   5.858   0.713  12.187 -0.0630  1.2926 -1.3091
 1987TIP3    H230157   5.709   0.735  12.173 -0.4486  0.1106  0.5791
 1988TIP3   OH230158   7.426   1.741  10.787 -0.0580  0.5707 -0.4768
 1988TIP3    H130159   7.469   1.736  10.873  0.0329 -2.2034 -0.5858
 1988TIP3    H230160   7.333   1.733  10.806 -0.2153  1.9951 -0.5461
 1989TIP3   OH230161   0.349   3.707  10.727 -0.1504  1.2606  0.3107
 1989TIP3    H130162   0.269   3.755  10.703 -0.0798  0.8968 -0.6613
 1989TIP3    H230163   0.413   3.731  10.660 -0.2623 -0.5717 -0.4866
 1990TIP3   OH230164   3.615   5.378  11.299 -0.1996 -0.6331  0.5143
 1990TIP3    H130165   3.699   5.364  11.256 -0.2602 -2.3513  0.8987
 1990TIP3    H230166   3.555   5.400  11.228  0.9576  2.9446  0.4438
 1991TIP3   OH230167   3.983   0.632  10.634  0.2915  0.5152  0.6008
 1991TIP3    H130168   3.915   0.624  10.566  1.3197  1.3582 -0.5648
 1991TIP3    H230169   3.994   0.726  10.646  3.7710  0.5926 -1.9274
 1992TIP3   OH230170   1.586   5.696  10.930 -0.0819  0.0325  0.1829
 1992TIP3    H130171   1.621   5.619  10.885 -1.4996 -0.6805  0.2405
 1992TIP3    H230172   1.553   5.752  10.860  0.3371  0.2736  0.1777
 1993TIP3   OH230173   1.577   3.786  11.878  0.1655 -0.1552  0.4864
 1993TIP3    H130174   1.562   3.730  11.954 -0.8579  0.3534  0.6843
 1993TIP3    H230175   1.615   3.729  11.812 -0.9941 -1.1261  0.6323
 1994TIP3   OH230176   1.579   6.076  12.043  0.0082  0.1890 -0.3704
 1994TIP3    H130177   1.664   6.110  12.016  0.1856 -0.6374 -0.8606
 1994TIP3    H230178   1.578   5.985  12.014 -2.7942  1.2360 -4.5246
 1995TIP3   OH230179   7.357   6.872  10.984 -0.4371  0.0455  0.3613
 1995TIP3    H130180   7.382   6.841  11.071  2.3877  0.9461 -0.0067
 1995TIP3    H230181   7.380   6.965  10.984 -0.3729  0.0743 -1.3322
 1996TIP3   OH230182   4.994   4.323  11.014  0.3032 -0.2583 -0.1065
 1996TIP3    H130183   4.952   4.373  11.084 -1.2445 -1.7554  0.0885
 1996TIP3    H230184   4.945   4.346  10.935  1.3959  0.6438 -0.5545
 1997TIP3   OH230185   3.706   6.259  10.735  0.6929 -0.5132  0.0196
 1997TIP3    H130186   3.754   6.292  10.659 -0.6747 -2.0157 -1.5918
 1997TIP3    H230187   3.640   6.326  10.753  1.0849 -0.1082 -0.0266
 1998TIP3   OH230188   0.576   2.491  11.795 -0.1239 -0.0509  0.7238
 1998TIP3    H130189   0.546   2.425  11.858  0.8845 -0.2517  1.0193
 1998TIP3    H230190   0.660   2.457  11.764 -0.1513  0.5313 -0.0042
 1999TIP3   OH230191   6.123   5.675  11.472 -0.1361  0.2174 -0.5513
 1999TIP3    H130192   6.135   5.588  11.433  0.5433 -0.6854  1.5116
 1999TIP3    H230193   6.195   5.727  11.437  0.8584 -0.7551 -0.0124
 2000TIP3   OH230194   5.609   0.476  10.952 -0.4132 -0.0877 -0.4745
 2000TIP3    H130195   5.536   0.415  10.941  0.3542 -1.0200 -0.5311
 2000TIP3    H230196   5.595   0.542  10.884 -1.0872 -0.3637 -0.6151
 2001TIP3   OH230197   0.015   5.360  12.295  0.0439 -0.0517  0.0091
 2001TIP3    H130198  -0.015   5.304  12.224 -0.8711  0.6190 -0.1570
 2001TIP3    H230199  -0.016   5.448  12.271 -0.6516  0.1195  1.4252
 2002TIP3   OH230200   0.046   1.067  10.837  0.0507  0.6463  0.1112
 2002TIP3    H130201   0.125   1.082  10.786  0.4657  1.9906  1.1011
 2002TIP3    H230202   0.037   1.145  10.892 -1.7530  0.3612  0.3024
 2003TIP3   OH230203   0.431   1.686  11.433 -0.4161  0.0555 -0.3111
 2003TIP3    H130204   0.377   1.688  11.354  0.2654  1.4072 -0.7636
 2003TIP3    H230205   0.368   1.675  11.504 -1.1700  0.2412 -0.9290
 2004TIP3   OH230206   5.511   7.657  11.140 -0.3218  0.2180 -0.7420
 2004TIP3    H130207   5.540   7.573  11.176  1.4890  0.9584 -0.3946
 2004TIP3    H230208   5.563   7.669  11.061  0.4320  1.6096 -0.0711
 2005TIP3   OH230209   3.118   3.580  12.651 -0.0145 -0.1169 -0.2761
 2005TIP3    H130210   3.099   3.655  12.594 -0.1291  0.5545  0.6155
 2005TIP3    H230211   3.046   3.519  12.634  0.4806 -0.3766 -1.5688
 2006TIP3   OH230212   5.476   4.039  10.474  0.4230 -0.4065 -0.2238
 2006TIP3    H130213   5.407   4.102  10.496 -0.0393 -0.4423 -1.5099
 2006TIP3    H230214   5.459   3.964  10.532 -0.3849 -0.2597 -0.2614
 2007TIP3   OH230215   4.284   6.788  12.389  0.6429 -0.2585  0.0114
 2007TIP3    H130216   4.277   6.880  12.411 -2.6044 -0.1770 -0.7066
 2007TIP3    H230217   4.313   6.787  12.298 -1.5940  0.2972 -0.7905
 2008TIP3   OH230218   4.993   0.344  12.600  0.0538  0.6514 -0.1752
 2008TIP3    H130219   4.994   0.287  12.523 -0.9806 -0.0069  0.2798
 2008TIP3    H230220   5.034   0.292  12.669 -1.6986  0.0666  0.4777
 2009TIP3   OH230221   3.359   1.834  11.285 -0.3316  0.5228  0.0065
 2009TIP3    H130222   3.386   1.818  11.375  0.0427  0.9938 -0.0220
 2009TIP3    H230223   3.293   1.903  11.291  0.9443  1.8075 -0.2216
 2010TIP3   OH230224   5.953   0.188  10.665 -0.1426  0.8252  0.0547
 2010TIP3    H130225   6.011   0.208  10.739 -1.7722  0.9707  1.3365
 2010TIP3    H230226   5.966   0.262  10.605 -0.0710  1.5987  0.9895
 2011TIP3   OH230227   3.167   6.567  11.472 -0.2789 -0.6195 -0.3614
 2011TIP3    H130228   3.092   6.625  11.482  0.2029  0.3620 -2.0786
 2011TIP3    H230229   3.141   6.486  11.516 -1.2306  0.6226  1.5082
 2012TIP3   OH230230   0.125   7.225  11.785  0.3728  0.3363 -0.2142
 2012TIP3    H130231   0.217   7.201  11.798  0.7643  2.3433  1.3000
 2012TIP3    H230232   0.124   7.268  11.699  1.1445  1.3834  0.2715
 2013TIP3   OH230233   3.004   6.857  12.168  0.4117  0.3854 -0.0022
 2013TIP3    H130234   3.055   6.923  12.119 -1.2522  1.3930 -0.4544
 2013TIP3    H230235   2.957   6.908  12.233 -1.6031 -0.2082 -0.9322
 2014TIP3   OH230236   3.113   5.743  11.113 -0.2417 -0.0757  0.4537
 2014TIP3    H130237   3.164   5.663  11.126  0.3833  0.1611 -0.4081
 2014TIP3    H230238   3.157   5.787  11.041  0.8373  2.2215  2.4005
 2015TIP3   OH230239   3.990   6.066  11.178  0.5837 -0.0470  0.0384
 2015TIP3    H130240   4.036   6.147  11.202  1.1294 -0.0451 -0.9602
 2015TIP3    H230241   3.899   6.083  11.200  0.3974  1.5052 -1.6826
 2016TIP3   OH230242   2.926   1.748  11.246 -0.3800 -0.3667  0.0620
 2016TIP3    H130243   3.008   1.701  11.260 -0.7294 -0.5558  1.6628
 2016TIP3    H230244   2.911   1.794  11.328 -2.0973 -0.6806 -0.0533
 2017TIP3   OH230245   6.255   7.269  12.398 -0.3534  0.7542 -0.8721
 2017TIP3    H130246   6.175   7.239  12.356  0.1899 -1.4325 -0.4882
 2017TIP3    H230247   6.318   7.277  12.327  0.3849 -2.3183 -0.7186
 2018TIP3   OH230248   3.907   7.532  11.081 -0.2136  0.4958 -0.2319
 2018TIP3    H130249   3.837   7.567  11.135 -0.4272 -1.6790  1.0249
 2018TIP3    H230250   3.949   7.466  11.136 -0.5329 -1.9807 -2.7069
 2019TIP3   OH230251   5.761   6.870  10.209  0.2008 -0.1569 -0.1882
 2019TIP3    H130252   5.800   6.786  10.184 -0.2250 -0.8208  1.2710
 2019TIP3    H230253   5.836   6.925  10.231  0.4615 -0.2825 -0.7424
 2020TIP3   OH230254   5.420   5.523  11.819 -0.4791  0.1570  0.2545
 2020TIP3    H130255   5.478   5.513  11.895 -0.1165 -0.7653 -0.1233
 2020TIP3    H230256   5.390   5.434  11.801 -0.4985  0.3589 -0.7339
 2021TIP3   OH230257   6.631   6.691  10.740 -0.2202  0.0484  0.4510
 2021TIP3    H130258   6.713   6.740  10.756 -0.4240  0.9405 -1.1120
 2021TIP3    H230259   6.657   6.620  10.682 -0.2478 -0.7208  1.3631
 2022TIP3   OH230260   3.636   4.485  10.780 -0.3475 -0.2740  0.0954
 2022TIP3    H130261   3.639   4.406  10.835 -2.1864 -1.9005 -1.9176
 2022TIP3    H230262   3.723   4.491  10.741  0.3397 -0.2774  1.5818
 2023TIP3   OH230263   0.298   6.226  11.303 -0.6648 -0.5705 -0.1952
 2023TIP3    H130264   0.303   6.277  11.222 -1.3177 -1.0673 -0.5590
 2023TIP3    H230265   0.313   6.136  11.275  1.5076 -0.5019  0.5789
 2024TIP3   OH230266   4.852   2.201  11.088 -0.0571 -0.3665 -0.1694
 2024TIP3    H130267   4.802   2.175  11.011 -1.6070 -0.2604  0.7658
 2024TIP3    H230268   4.938   2.225  11.054 -0.8600  0.1546 -1.9250
 2025TIP3   OH230269   5.524   3.569  10.074 -0.5048 -0.2366  0.2580
 2025TIP3    H130270   5.584   3.494  10.081  1.6649  1.2497 -1.1175
 2025TIP3    H230271   5.452   3.537  10.019  0.8918 -1.0846 -1.1806
 2026TIP3   OH230272   2.223   3.546  12.043  0.3096 -0.2570  0.2276
 2026TIP3    H130273   2.155   3.597  12.087  1.2717 -0.2863  1.8561
 2026TIP3    H230274   2.304   3.592  12.064  0.8374 -0.3471 -1.4830
 2027TIP3   OH230275   5.282   7.306  10.049 -0.1796 -0.1740 -0.0881
 2027TIP3    H130276   5.254   7.216  10.034 -0.1625 -0.3848  1.0140
 2027TIP3    H230277   5.214   7.359  10.008 -0.2497 -0.6915 -0.6469
 2028TIP3   OH230278   6.135   3.559  11.200 -0.2474 -0.2837 -0.7135
 2028TIP3    H130279   6.143   3.654  11.196  1.4283 -0.4343 -1.8869
 2028TIP3    H230280   6.078   3.543  11.275 -0.7131  1.6402 -0.6061
 2029TIP3   OH230281   7.194   3.471  11.202 -0.4535  0.0730  0.3689
 2029TIP3    H130282   7.243   3.392  11.180 -0.1262  0.6394 -1.0259
 2029TIP3    H230283   7.237   3.505  11.281 -0.8875 -1.3688  1.2513
 2030TIP3   OH230284   6.975   1.020  12.117 -0.3334 -0.2367 -0.8698
 2030TIP3    H130285   6.888   0.983  12.131 -0.9358  1.0179 -1.1695
 2030TIP3    H230286   6.969   1.064  12.032  0.5514 -0.0311 -0.8343
 2031TIP3   OH230287   2.291   7.539  11.508 -0.2457 -0.5712 -0.3959
 2031TIP3    H130288   2.376   7.561  11.547 -0.9324 -1.3186  1.6650
 2031TIP3    H230289   2.230   7.601  11.550 -1.1758 -2.0812  0.5602
 2032TIP3   OH230290   0.250   0.486  10.670  0.7760  0.2290 -0.1238
 2032TIP3    H130291   0.313   0.558  10.668 -0.3096  1.2085 -1.0331
 2032TIP3    H230292   0.170   0.525  10.706  0.7559 -1.0741  1.3492
 2033TIP3   OH230293   6.626   7.135  11.763 -0.0664 -0.4620  0.3674
 2033TIP3    H130294   6.683   7.064  11.732  0.7757 -0.0038  0.8109
 2033TIP3    H230295   6.663   7.159  11.848  0.2801  1.1806 -0.2065
 2034TIP3   OH230296   2.903   5.167  11.399 -0.6181 -0.2784  0.5403
 2034TIP3    H130297   2.867   5.199  11.316  0.3242  1.8204  0.8779
 2034TIP3    H230298   2.992   5.140  11.378 -0.7291 -0.7438  0.6667
 2035TIP3   OH230299   5.258   3.392  11.065 -0.4280 -0.6691  0.3196
 2035TIP3    H130300   5.324   3.340  11.109  0.5642  0.3698  0.0992
 2035TIP3    H230301   5.307   3.454  11.011 -1.5911 -1.2214 -1.4561
 2036TIP3   OH230302   1.039   0.337  11.050  0.5061 -0.4189 -0.0728
 2036TIP3    H130303   0.985   0.395  11.103 -0.6710 -1.2283 -0.3540
 2036TIP3    H230304   1.091   0.288  11.114 -0.6358 -1.1322  0.3245
 2037TIP3   OH230305   4.107   5.786  11.154  0.3720  0.8508 -0.2145
 2037TIP3    H130306   4.039   5.850  11.171 -0.1239  0.4407 -0.6454
 2037TIP3    H230307   4.078   5.739  11.076  0.8103  0.2218 -0.0102
 2038TIP3   OH230308   3.877   5.364  10.967 -0.1034 -0.4554 -0.5608
 2038TIP3    H130309   3.933   5.301  11.012  0.4787  1.4461  1.5492
 2038TIP3    H230310   3.788   5.333  10.982  0.2056 -1.4594 -0.7159
 2039TIP3   OH230311   7.503   3.248  12.146 -0.4934  0.0449 -0.3773
 2039TIP3    H130312   7.528   3.166  12.189 -2.4794 -0.8258 -0.7790
 2039TIP3    H230313   7.497   3.226  12.053 -1.4429  0.5056 -0.4407
 2040TIP3   OH230314   4.815   0.271  11.779 -0.4220  0.4975 -0.0678
 2040TIP3    H130315   4.870   0.339  11.738 -0.8931  1.1404  0.3532
 2040TIP3    H230316   4.874   0.197  11.790 -0.1100  0.5380 -1.2993
 2041TIP3   OH230317   4.199   2.925  12.815 -0.3779  0.2193  0.2028
 2041TIP3    H130318   4.152   2.958  12.739  0.9966 -1.7705 -1.6073
 2041TIP3    H230319   4.190   2.830  12.810  2.2106 -0.1404  0.7948
 2042TIP3   OH230320   5.689   2.271   9.600  0.1538  0.1503  0.0217
 2042TIP3    H130321   5.749   2.246   9.670  1.4866  0.0181 -1.1290
 2042TIP3    H230322   5.648   2.352   9.631  1.3306  0.5431  0.5972
 2043TIP3   OH230323   6.807   4.746  12.198 -0.3173 -0.5602 -0.0057
 2043TIP3    H130324   6.836   4.801  12.271  0.3752 -0.8694 -0.0306
 2043TIP3    H230325   6.828   4.797  12.120  0.2450 -0.8120 -0.0257
 2044TIP3   OH230326   6.513   2.350  12.276  0.1268  0.3615 -0.4808
 2044TIP3    H130327   6.425   2.388  12.286  0.5550  0.8931  1.7731
 2044TIP3    H230328   6.570   2.425  12.258  0.2239  0.0680 -1.4897
 2045TIP3   OH230329   2.253   0.650  11.458  0.3527 -0.0943  0.2275
 2045TIP3    H130330   2.273   0.650  11.365 -0.1080  2.3758  0.0598
 2045TIP3    H230331   2.183   0.586  11.468  0.2810 -0.2469 -1.1361
 2046TIP3   OH230332   0.736   3.504  10.974 -0.0653  0.6205 -0.0121
 2046TIP3    H130333   0.744   3.557  11.053  1.0713  2.8333 -1.5016
 2046TIP3    H230334   0.684   3.557  10.914 -0.6286 -0.8604 -0.8820
 2047TIP3   OH230335   4.453   1.148  10.195 -0.0112 -0.0646 -0.2674
 2047TIP3    H130336   4.449   1.058  10.227  0.6853 -0.2430 -0.6538
 2047TIP3    H230337   4.381   1.193  10.239  0.7021 -0.3863  1.2976
 2048TIP3   OH230338   0.613   6.316  10.766 -0.6848 -0.2868 -0.3369
 2048TIP3    H130339   0.548   6.366  10.816 -0.6010  1.2382 -1.6498
 2048TIP3    H230340   0.686   6.377  10.755 -1.0041 -0.2741 -2.8939
 2049TIP3   OH230341   0.963   3.189  11.278 -0.2015  0.0642  0.0536
 2049TIP3    H130342   0.979   3.234  11.362 -0.6630 -0.7171  0.5712
 2049TIP3    H230343   0.993   3.251  11.212  1.8783  0.0026  0.8529
 2050TIP3   OH230344   5.210   1.369  11.042 -0.2028  0.0777  0.0863
 2050TIP3    H130345   5.125   1.338  11.071  0.0246  0.5285  1.2862
 2050TIP3    H230346   5.190   1.431  10.972 -0.9305  0.9120  1.0025
 2051TIP3   OH230347   3.495   4.870  12.008  0.0149  0.0872  0.4459
 2051TIP3    H130348   3.572   4.872  12.064  1.3595 -2.2287 -1.1804
 2051TIP3    H230349   3.529   4.888  11.920 -1.0317 -2.2229 -0.4974
 2052TIP3   OH230350   2.758   2.306  11.642 -0.2024  0.0836  0.4395
 2052TIP3    H130351   2.704   2.226  11.644 -0.7477  0.4505  0.8417
 2052TIP3    H230352   2.699   2.373  11.607 -0.0278  0.5045  0.9395
 2053TIP3   OH230353   0.267   4.825  11.881  0.5704 -0.5874 -0.3945
 2053TIP3    H130354   0.254   4.843  11.974 -0.1832 -2.5662 -0.0655
 2053TIP3    H230355   0.339   4.882  11.855 -0.1390  1.0412  1.0333
 2054TIP3   OH230356   0.284   7.174  12.453  0.9003 -0.5936 -0.4505
 2054TIP3    H130357   0.245   7.149  12.369  1.5589 -1.4266 -0.5245
 2054TIP3    H230358   0.316   7.091  12.490  1.0885 -0.1619  0.3745
 2055TIP3   OH230359   5.845   2.002  12.641  0.2402 -0.2154 -0.0519
 2055TIP3    H130360   5.796   1.920  12.635 -1.0659  0.6010 -0.9789
 2055TIP3    H230361   5.832   2.044  12.556  2.8769 -0.1114 -0.4978
 2056TIP3   OH230362   4.633   5.736  12.509 -0.4337  0.6413  0.3373
 2056TIP3    H130363   4.714   5.737  12.561  0.3314 -0.7144 -0.7623
 2056TIP3    H230364   4.581   5.665  12.547 -1.4275  1.8725  1.4141
 2057TIP3   OH230365   4.367   6.057  11.283  0.4847 -0.5357  0.4268
 2057TIP3    H130366   4.322   6.084  11.363 -2.0168 -0.9301 -0.7485
 2057TIP3    H230367   4.368   6.136  11.228 -0.4303 -0.9584 -0.2334
 2058TIP3   OH230368   0.761   4.968  12.242  0.3756 -0.4968 -0.6305
 2058TIP3    H130369   0.746   4.996  12.152  0.6794 -1.0721 -0.8660
 2058TIP3    H230370   0.781   5.049  12.290  1.6143 -0.3323 -1.3740
 2059TIP3   OH230371   0.632   6.259  11.139  0.4378  0.5152 -0.5319
 2059TIP3    H130372   0.548   6.233  11.178  1.0764  0.0858  0.6072
 2059TIP3    H230373   0.635   6.212  11.056  0.0427 -0.3586 -0.0717
 2060TIP3   OH230374   0.160   2.444  10.423 -0.2645 -0.0543  0.1684
 2060TIP3    H130375   0.065   2.452  10.428 -0.4459 -1.7384 -0.1154
 2060TIP3    H230376   0.188   2.518  10.369 -1.5451 -0.2399 -0.7862
 2061TIP3   OH230377   1.951   6.516  10.940 -0.4334 -0.2688 -0.1961
 2061TIP3    H130378   2.026   6.505  10.881  0.3369 -0.7658  0.8461
 2061TIP3    H230379   1.987   6.503  11.028 -1.8569 -1.1223  0.3051
 2062TIP3   OH230380   1.619   7.544  11.799  0.1438  0.4049 -0.3422
 2062TIP3    H130381   1.588   7.631  11.823  0.9537 -0.0115  2.7345
 2062TIP3    H230382   1.689   7.525  11.862 -0.9508 -2.9873  0.1009
 2063TIP3   OH230383   1.890   0.126  10.931  0.1748 -0.4443 -0.1926
 2063TIP3    H130384   1.842   0.160  10.855 -1.5205  0.7214  1.3143
 2063TIP3    H230385   1.973   0.173  10.929  0.2387 -0.5629 -1.3971
 2064TIP3   OH230386   0.795   1.247  12.518 -0.4547 -0.0121 -0.5828
 2064TIP3    H130387   0.868   1.200  12.558 -0.3444  1.6250  1.3264
 2064TIP3    H230388   0.827   1.337  12.508 -2.0290  0.6547 -0.0680
 2065TIP3   OH230389   0.700   5.944  12.525  0.0865 -0.3368  0.4332
 2065TIP3    H130390   0.639   5.979  12.590 -0.0173 -0.3442  0.3385
 2065TIP3    H230391   0.668   5.856  12.507 -0.5990  0.0903 -0.5386
 2066TIP3   OH230392   1.613   3.439  11.713  0.0763  0.0239  0.4722
 2066TIP3    H130393   1.606   3.533  11.695  2.6689  0.2874  0.5121
 2066TIP3    H230394   1.647   3.401  11.632 -1.4989 -1.0440  0.2503
 2067TIP3   OH230395   2.730   3.360  10.289 -0.1284  0.1432 -0.3424
 2067TIP3    H130396   2.823   3.337  10.290 -0.2453 -0.3298 -0.4167
 2067TIP3    H230397   2.703   3.347  10.198  0.3031  2.6022 -0.9074
 2068TIP3   OH230398   2.680   6.741  12.129 -0.6858 -0.1868  0.1913
 2068TIP3    H130399   2.639   6.827  12.138 -0.2039  0.0086  0.5352
 2068TIP3    H230400   2.623   6.682  12.179 -1.3679 -0.1952 -0.5605
 2069TIP3   OH230401   0.466   4.404  10.482  0.2159  0.3406 -0.0217
 2069TIP3    H130402   0.549   4.377  10.521 -0.4392  2.0214  2.8077
 2069TIP3    H230403   0.400   4.380  10.547 -1.1663  1.7782 -0.8301
 2070TIP3   OH230404   6.246   0.840  10.377  0.4728  0.6631 -0.3279
 2070TIP3    H130405   6.250   0.860  10.284  1.0599 -0.5434 -0.5736
 2070TIP3    H230406   6.334   0.858  10.409  0.5217  0.1719 -0.1920
 2071TIP3   OH230407   5.219   4.234  11.501  0.1613 -0.2482  0.0228
 2071TIP3    H130408   5.227   4.328  11.483 -0.1739 -0.2397 -0.0774
 2071TIP3    H230409   5.216   4.228  11.596  1.0175 -0.2235  0.0613
 2072TIP3   OH230410   0.625   5.416  12.512 -0.2977  0.1405  0.8610
 2072TIP3    H130411   0.688   5.385  12.577 -0.5045 -1.7916  0.1798
 2072TIP3    H230412   0.547   5.364  12.526 -0.1159 -0.8472 -1.3614
 2073TIP3   OH230413   1.920   2.902  12.460  0.0987 -0.2695  0.1124
 2073TIP3    H130414   1.849   2.844  12.487  0.9573 -1.3966  0.0071
 2073TIP3    H230415   1.942   2.952  12.539 -1.0480  0.3860  0.0474
 2074TIP3   OH230416   2.830   7.593  12.527  0.0508  0.3057  0.7593
 2074TIP3    H130417   2.812   7.686  12.536 -0.8222  0.0054  2.8322
 2074TIP3    H230418   2.778   7.552  12.597  0.7304 -1.6861  0.1677
 2075TIP3   OH230419   0.106   1.295  10.111  0.4952 -0.0797  0.3767
 2075TIP3    H130420   0.122   1.218  10.166  0.1503 -2.8759 -3.0746
 2075TIP3    H230421   0.012   1.292  10.094  0.8642 -0.4860 -1.8409
 2076TIP3   OH230422   6.235   0.578  10.435 -0.3224 -0.0045  0.0623
 2076TIP3    H130423   6.225   0.672  10.421  0.1324  0.1728  0.8428
 2076TIP3    H230424   6.202   0.564  10.524 -1.4308 -0.7709 -0.4501
 2077TIP3   OH230425   1.119   7.070  10.278  0.1668 -0.2223  0.0253
 2077TIP3    H130426   1.154   7.066  10.188  0.0497  0.9016 -0.0876
 2077TIP3    H230427   1.192   7.105  10.330 -0.3753  1.0397 -0.0104
 2078TIP3   OH230428   6.352   3.517  12.477 -0.4315  0.3954  0.1136
 2078TIP3    H130429   6.279   3.544  12.533 -0.8176 -2.0005  0.8982
 2078TIP3    H230430   6.311   3.490  12.395  0.1143  3.6547 -1.3961
 2079TIP3   OH230431   0.965   3.933  12.275 -0.3099  0.0385 -0.9994
 2079TIP3    H130432   1.052   3.901  12.253  0.3888  0.3302  1.1582
 2079TIP3    H230433   0.909   3.855  12.271  0.8720 -1.0255  1.6078
 2080TIP3   OH230434   4.129   6.695  11.767 -0.3313  0.1333 -0.2380
 2080TIP3    H130435   4.105   6.783  11.797 -1.6578 -0.1729 -0.3257
 2080TIP3    H230436   4.210   6.708  11.718 -1.2794  1.5845 -1.5419
 2081TIP3   OH230437   3.811   3.005  11.414 -0.3696 -0.2646  0.2564
 2081TIP3    H130438   3.799   3.061  11.491  0.2866 -0.5403  0.5699
 2081TIP3    H230439   3.730   3.014  11.365 -0.5273  0.4641  0.6276
 2082TIP3   OH230440   7.109   7.094  12.203  0.7666  0.1361  0.3893
 2082TIP3    H130441   7.168   7.160  12.239  2.0092 -0.6526 -0.1491
 2082TIP3    H230442   7.023   7.116  12.240  1.4375  1.1403  1.4121
 2083TIP3   OH230443   0.926   4.054  11.576 -0.1126  0.3284  0.3609
 2083TIP3    H130444   0.872   4.016  11.645 -1.0781  3.0044  1.1883
 2083TIP3    H230445   1.014   4.061  11.615 -0.1596 -0.1042  0.5480
 2084TIP3   OH230446   7.650   0.105   9.456 -0.5846  0.1810  0.3668
 2084TIP3    H130447   7.708   0.180   9.471 -0.7249  0.7922 -1.8399
 2084TIP3    H230448   7.597   0.131   9.381 -1.8010 -1.4918  0.6049
 2085TIP3   OH230449   4.812   1.281  12.375  0.3552 -0.0487  0.1305
 2085TIP3    H130450   4.720   1.279  12.401  0.0536  2.0877 -0.6316
 2085TIP3    H230451   4.857   1.325  12.447  0.3963  0.9040 -0.4588
 2086TIP3   OH230452   0.740   2.365  11.054  0.4034  0.2570  0.3453
 2086TIP3    H130453   0.677   2.368  11.125  0.6492 -0.6556  0.6199
 2086TIP3    H230454   0.823   2.341  11.096  1.1180  2.1496  0.0984
 2087TIP3   OH230455   5.014   6.580  12.546 -0.5686 -0.6385 -0.0766
 2087TIP3    H130456   5.077   6.576  12.475 -0.1246 -3.7187  0.3762
 2087TIP3    H230457   4.929   6.590  12.503 -0.1127  0.0893 -0.8467
 2088TIP3   OH230458   7.012   2.102  10.391  0.3110 -0.0478 -0.0173
 2088TIP3    H130459   7.063   2.181  10.372  1.6650 -0.8297  0.2420
 2088TIP3    H230460   7.033   2.042  10.320  0.0546 -0.5267  0.3037
 2089TIP3   OH230461   2.763   0.599  11.830 -0.5361  1.0061  0.2233
 2089TIP3    H130462   2.741   0.688  11.801  0.4237  0.6284 -1.8497
 2089TIP3    H230463   2.796   0.610  11.919  0.5308  2.8896 -0.3464
 2090TIP3   OH230464   0.465   3.895  11.220 -0.7396 -0.6605  0.3681
 2090TIP3    H130465   0.479   3.882  11.126 -1.0180 -1.9349  0.4923
 2090TIP3    H230466   0.444   3.988  11.228  1.0114 -0.1309 -0.6118
 2091TIP3   OH230467   1.863   2.382  11.905  0.3981 -0.3600  0.0590
 2091TIP3    H130468   1.928   2.368  11.836  0.1023  1.7904 -0.7332
 2091TIP3    H230469   1.910   2.432  11.972  0.1552 -0.7618  0.5337
 2092TIP3   OH230470   6.826   7.208  11.949  0.0978 -0.0225  0.4603
 2092TIP3    H130471   6.838   7.131  12.005  0.1855 -1.8274 -1.8628
 2092TIP3    H230472   6.914   7.246  11.942 -0.1667  1.1967  2.6882
 2093TIP3   OH230473   3.490   3.353  10.507 -0.0347 -0.7657 -0.6277
 2093TIP3    H130474   3.553   3.405  10.457  0.2586  0.1366  0.6260
 2093TIP3    H230475   3.469   3.279  10.450  0.7493 -0.1081 -1.8158
 2094TIP3   OH230476   4.382   4.694  11.017 -0.4570 -0.1243  0.2002
 2094TIP3    H130477   4.307   4.717  11.072 -1.8963  0.8569 -2.0266
 2094TIP3    H230478   4.344   4.678  10.930  1.7581 -1.1370 -0.6567
 2095TIP3   OH230479   6.695   2.131  12.386 -0.2837  0.0077  0.0427
 2095TIP3    H130480   6.754   2.107  12.315  0.0713  1.8287 -0.3407
 2095TIP3    H230481   6.620   2.171  12.341 -1.4283 -1.4672  0.5720
 2096TIP3   OH230482   4.596   6.492  11.081  0.1975  0.2152  0.1737
 2096TIP3    H130483   4.518   6.470  11.031  1.4274 -3.2447 -0.4925
 2096TIP3    H230484   4.562   6.529  11.163 -2.1769 -1.1376 -0.1016
 2097TIP3   OH230485   5.278   3.249  12.744  0.3622 -0.1350  0.4211
 2097TIP3    H130486   5.270   3.201  12.827 -0.1889 -1.8102 -0.5527
 2097TIP3    H230487   5.238   3.191  12.679  1.1264  0.9755 -1.0906
 2098TIP3   OH230488   5.618   2.288  12.758 -0.2447 -0.4984  0.1671
 2098TIP3    H130489   5.592   2.371  12.719  0.8432  0.2826  1.0086
 2098TIP3    H230490   5.595   2.222  12.693 -0.5396  0.5221 -0.7987
 2099TIP3   OH230491   0.178   0.855  12.066  0.1975 -0.0702  0.1838
 2099TIP3    H130492   0.186   0.950  12.075  2.5067 -0.1643 -0.2537
 2099TIP3    H230493   0.201   0.821  12.152 -0.4896 -0.2619  0.2989
 2100TIP3   OH230494   7.575   1.132  11.862  0.1824 -0.3463 -0.2424
 2100TIP3    H130495   7.568   1.042  11.893  0.2697 -1.1520 -2.3943
 2100TIP3    H230496   7.657   1.134  11.813  1.4779  1.6221  1.8271
 2101TIP3   OH230497   0.201   6.443  12.516  0.2286  0.3284  0.1430
 2101TIP3    H130498   0.252   6.433  12.436 -1.8301 -0.5104 -1.1497
 2101TIP3    H230499   0.232   6.372  12.573 -1.8767 -2.6684 -2.0719
 2102TIP3   OH230500   6.610   2.960  11.565  0.2403 -0.2306 -0.0934
 2102TIP3    H130501   6.637   3.020  11.634 -0.7535 -0.4810  0.5324
 2102TIP3    H230502   6.593   2.877  11.610 -0.8522 -0.2773 -0.5539
 2103TIP3   OH230503   1.009   0.138  11.915 -0.3779  0.1455  1.1679
 2103TIP3    H130504   1.044   0.225  11.894 -1.2111  0.4941  1.1669
 2103TIP3    H230505   1.086   0.085  11.935  0.3932  0.1117 -1.5524
 2104TIP3   OH230506   5.863   7.473  12.567 -0.2663 -0.2710  0.2918
 2104TIP3    H130507   5.800   7.455  12.496  1.6516 -0.6920 -1.4024
 2104TIP3    H230508   5.930   7.527  12.526  0.5018  0.1433  2.0346
 2105TIP3   OH230509   3.793   7.404  10.735 -0.2586  0.0854  0.0204
 2105TIP3    H130510   3.842   7.430  10.813 -0.2809  0.4802 -0.0959
 2105TIP3    H230511   3.860   7.375  10.673 -0.0289  1.8677 -0.6252
 2106TIP3   OH230512   6.761   3.636  10.319  0.1225  0.6236  0.3423
 2106TIP3    H130513   6.835   3.687  10.288  1.2303 -1.0415  0.1059
 2106TIP3    H230514   6.697   3.639  10.248  0.6933  0.6721 -0.1707
 2107TIP3   OH230515   1.883   5.056  11.922  0.8669 -0.1302  0.4608
 2107TIP3    H130516   1.823   5.091  11.855 -0.7404 -1.1390  1.3028
 2107TIP3    H230517   1.916   4.975  11.883  1.4871  0.2932  0.1000
 2108TIP3   OH230518   5.710   2.845  10.053 -0.0888  0.7599 -0.2944
 2108TIP3    H130519   5.630   2.869  10.101 -0.2591 -0.7644  0.2367
 2108TIP3    H230520   5.776   2.832  10.121 -0.3163 -1.3641 -0.4098
 2109TIP3   OH230521   6.478   7.655   9.720  0.1023  0.2144 -0.4632
 2109TIP3    H130522   6.512   7.742   9.740  1.6059 -0.6948  1.3752
 2109TIP3    H230523   6.387   7.657   9.751  0.3010  0.9679  0.1143
 2110TIP3   OH230524   6.489   2.886  12.237  0.0623  0.1241  0.2452
 2110TIP3    H130525   6.483   2.804  12.188  2.0506  0.0190  0.0736
 2110TIP3    H230526   6.557   2.869  12.302  0.0623  1.4362  0.6129
 2111TIP3   OH230527   6.641   6.633  12.273  0.4019  0.0653  0.5588
 2111TIP3    H130528   6.716   6.574  12.259 -0.3005 -0.5839 -0.6028
 2111TIP3    H230529   6.565   6.575  12.274 -0.2352  0.8798  0.2478
 2112TIP3   OH230530   2.069   6.744  12.294  0.3151 -0.0599  0.1157
 2112TIP3    H130531   2.032   6.656  12.302 -0.4328  0.0226 -1.8951
 2112TIP3    H230532   2.011   6.799  12.346  1.1816 -0.8011  1.9661
 2113TIP3   OH230533   6.438   2.641  12.099  0.0944 -0.4177  0.0542
 2113TIP3    H130534   6.436   2.575  12.168  0.0998  0.4749  0.9285
 2113TIP3    H230535   6.370   2.614  12.038  0.9095 -1.8941 -0.2481
 2114TIP3   OH230536   1.275   6.895  10.886  0.5673  0.2115  0.0630
 2114TIP3    H130537   1.315   6.966  10.836 -1.3831  1.8421  0.6691
 2114TIP3    H230538   1.349   6.841  10.915  2.3077  2.8030  0.8024
 2115TIP3   OH230539   1.623   5.577  12.710 -0.1822  0.6896 -0.4260
 2115TIP3    H130540   1.693   5.524  12.749  0.1269  1.9325  0.7906
 2115TIP3    H230541   1.564   5.513  12.670  1.0266 -0.4623 -0.4438
 2116TIP3   OH230542   3.698   4.803  12.177  0.4863  0.3283  0.1037
 2116TIP3    H130543   3.790   4.820  12.158  0.3028 -1.4690 -2.9735
 2116TIP3    H230544   3.691   4.708  12.179 -1.4520  0.4003 -0.7423
 2117TIP3   OH230545   2.410   5.868  11.901 -0.0868 -0.3577 -0.3477
 2117TIP3    H130546   2.467   5.792  11.914 -1.9055 -1.8233 -0.4557
 2117TIP3    H230547   2.382   5.862  11.810 -0.6658  0.1355 -0.2083
 2118TIP3   OH230548   4.033   5.260  12.058 -0.0141  0.3400  0.3845
 2118TIP3    H130549   4.028   5.213  11.974  0.8125  0.3751  0.3113
 2118TIP3    H230550   4.061   5.193  12.120 -0.8776  0.2525  0.6962
 2119TIP3   OH230551   6.124   0.069  11.258 -0.4708 -0.0854 -0.5107
 2119TIP3    H130552   6.189   0.133  11.227 -1.3591  0.1895 -1.9102
 2119TIP3    H230553   6.106   0.015  11.182 -1.7363 -0.2761 -0.0957
 2120TIP3   OH230554   4.509   3.426  12.704 -0.5574 -0.3141  0.6424
 2120TIP3    H130555   4.428   3.394  12.744 -0.8529 -0.2990  0.0657
 2120TIP3    H230556   4.528   3.507  12.750 -2.1792  0.9546 -0.8068
 2121TIP3   OH230557   5.720   4.410  12.187  0.7064 -0.2422  0.0486
 2121TIP3    H130558   5.678   4.494  12.209 -0.4468 -0.8968  0.4070
 2121TIP3    H230559   5.758   4.425  12.101 -0.8969  0.1740 -0.6364
 2122TIP3   OH230560   7.330   5.028  12.491 -0.7839  0.1484 -0.8114
 2122TIP3    H130561   7.328   5.036  12.587 -2.3914  3.7092 -0.9867
 2122TIP3    H230562   7.423   5.028  12.469 -0.4016  0.4781  0.6837
 2123TIP3   OH230563   2.129   1.637  12.298 -0.2244 -0.2641 -0.1414
 2123TIP3    H130564   2.060   1.693  12.334  0.0327 -1.6838  2.8934
 2123TIP3    H230565   2.081   1.572  12.246 -1.0252 -0.1991  0.4900
 2124TIP3   OH230566   4.227   4.634  12.456  0.1984  0.7508 -0.5263
 2124TIP3    H130567   4.150   4.607  12.505  0.7734  1.3276  0.7513
 2124TIP3    H230568   4.235   4.569  12.386 -0.6398 -0.1177  0.1502
 2125TIP3   OH230569   2.320   6.573  12.879 -0.0862  0.5663  0.5469
 2125TIP3    H130570   2.380   6.647  12.876 -0.3748  0.8240  1.0251
 2125TIP3    H230571   2.360   6.513  12.942  0.0460  0.4007  0.3076
 2126TIP3   OH230572   7.431   0.697  12.101  0.3538  0.5051  0.5791
 2126TIP3    H130573   7.487   0.764  12.063  0.4429  1.0594  1.6381
 2126TIP3    H230574   7.344   0.738  12.104 -0.8674 -1.2432 -3.5027
 2127TIP3   OH230575   2.388   0.887  11.401 -0.5779 -0.0320 -0.0885
 2127TIP3    H130576   2.360   0.931  11.321  0.0090 -0.3912 -0.5000
 2127TIP3    H230577   2.340   0.804  11.401  2.4628 -2.0257 -2.3188
 2128TIP3   OH230578   0.944   6.597  12.383  0.1254 -0.3456 -0.1170
 2128TIP3    H130579   0.924   6.508  12.411 -0.3700 -0.4281 -0.7213
 2128TIP3    H230580   0.988   6.587  12.299 -0.4654  0.0023 -0.4710
 2129TIP3   OH230581   3.248   6.228  12.618 -0.2121 -0.2356 -0.2126
 2129TIP3    H130582   3.308   6.289  12.661 -1.2347  0.8101 -0.2367
 2129TIP3    H230583   3.262   6.145  12.664 -0.7973  0.6938  1.7120
 2130TIP3   OH230584   5.937   0.463  10.605  0.3963 -0.3422 -0.2907
 2130TIP3    H130585   5.880   0.540  10.610  1.4399  0.5660 -1.5797
 2130TIP3    H230586   6.024   0.496  10.628  0.6910 -1.3595  0.1024
 2131TIP3   OH230587   2.531   0.098  12.630  0.1475 -0.3180 -0.1078
 2131TIP3    H130588   2.466   0.092  12.700 -0.1015 -0.5671 -0.3551
 2131TIP3    H230589   2.548   0.007  12.607 -0.2659 -0.2198 -0.8235
 2132TIP3   OH230590   2.326   0.519  10.916  0.3333  0.4602  0.5040
 2132TIP3    H130591   2.336   0.453  10.985 -0.4114 -0.0022  0.1778
 2132TIP3    H230592   2.403   0.576  10.926  0.7847 -0.2274  1.0306
 2133TIP3   OH230593   6.858   4.103  10.771 -0.5821  0.0771 -0.5215
 2133TIP3    H130594   6.941   4.114  10.723 -0.8514 -0.6875 -1.1933
 2133TIP3    H230595   6.795   4.154  10.720 -0.3581  1.4498  0.5221
 2134TIP3   OH230596   6.125   5.394  10.062 -0.5505 -0.3027  0.0438
 2134TIP3    H130597   6.058   5.433  10.006  0.3803  0.1255 -0.8110
 2134TIP3    H230598   6.188   5.355  10.001  0.2261 -0.2851  0.8024
 2135TIP3   OH230599   4.193   3.626  12.092 -0.9888  0.2311 -0.1228
 2135TIP3    H130600   4.226   3.657  12.177 -0.7359  0.1418 -0.1885
 2135TIP3    H230601   4.108   3.587  12.113 -1.8858  2.0250 -0.2032
 2136TIP3   OH230602   5.166   1.717  12.273 -0.4635  0.1524  0.1712
 2136TIP3    H130603   5.074   1.736  12.258 -0.1115  1.6767 -0.2464
 2136TIP3    H230604   5.178   1.727  12.367 -0.6802  0.2023  0.1930
 2137TIP3   OH230605   1.370   1.534  11.731 -0.1887 -0.5276 -0.0017
 2137TIP3    H130606   1.444   1.592  11.753 -0.1937 -0.7325  0.5542
 2137TIP3    H230607   1.369   1.533  11.635  0.6986 -0.7283 -0.0170
 2138TIP3   OH230608   1.318   5.524  11.022 -0.6581 -0.6072  0.2225
 2138TIP3    H130609   1.266   5.597  10.990  0.4489 -0.6808 -1.8994
 2138TIP3    H230610   1.326   5.464  10.948 -0.2981 -2.1871  1.4611
 2139TIP3   OH230611   6.600   1.408  10.785  0.6068  0.2551  0.0346
 2139TIP3    H130612   6.641   1.493  10.770  0.1101  0.0429 -3.0920
 2139TIP3    H230613   6.669   1.354  10.823  2.2768  0.8389 -2.0474
 2140TIP3   OH230614   4.115   5.704  12.166 -0.0767 -0.5664  0.0001
 2140TIP3    H130615   4.172   5.627  12.176 -0.2570 -0.8276 -0.9027
 2140TIP3    H230616   4.027   5.667  12.155 -0.2924 -0.1940  0.4807
 2141TIP3   OH230617   4.510   7.135  12.829 -0.4279  0.2372 -0.4966
 2141TIP3    H130618   4.530   7.184  12.908 -0.9002 -0.4723  0.0776
 2141TIP3    H230619   4.488   7.047  12.860 -0.4999 -0.0883 -1.4249
 2142TIP3   OH230620   3.790   3.668  10.189  0.0573  0.4757  0.2385
 2142TIP3    H130621   3.828   3.756  10.191 -0.5958  0.7646  0.0436
 2142TIP3    H230622   3.864   3.611  10.168  0.3309  1.0741 -0.4666
 2143TIP3   OH230623   1.389   0.977  11.457  0.1195 -0.5130 -0.5104
 2143TIP3    H130624   1.403   1.042  11.388 -2.0794 -0.4718 -0.9969
 2143TIP3    H230625   1.350   1.027  11.529  1.6938 -0.6950  0.5003
 2144TIP3   OH230626   7.098   2.048  11.560  0.3956 -0.0278 -0.1117
 2144TIP3    H130627   7.034   2.104  11.516 -0.4190 -2.1132 -1.7581
 2144TIP3    H230628   7.177   2.055  11.506  0.3614 -0.2656 -0.1954
 2145TIP3   OH230629   0.829   1.602  12.038  0.1514  0.6810  0.4486
 2145TIP3    H130630   0.873   1.686  12.032 -0.8427  1.1426 -0.7137
 2145TIP3    H230631   0.877   1.546  11.977 -0.0269  0.7838  0.2167
 2146TIP3   OH230632   7.299   6.286  11.469  0.0548  0.1954  0.1661
 2146TIP3    H130633   7.341   6.200  11.464 -1.9468 -0.8500  0.1888
 2146TIP3    H230634   7.265   6.291  11.558 -1.0696  0.3807 -0.2524
 2147TIP3   OH230635   5.857   7.179  11.660 -0.0544 -0.2762  0.0997
 2147TIP3    H130636   5.858   7.163  11.755  0.8628  0.9366  0.3093
 2147TIP3    H230637   5.772   7.219  11.643 -0.5971 -1.3106  0.2398
 2148TIP3   OH230638   1.940   0.594  12.054  0.3726 -0.7639 -0.2855
 2148TIP3    H130639   1.945   0.609  11.959 -3.2657  0.6744 -0.3851
 2148TIP3    H230640   1.859   0.544  12.066  0.3565 -0.2512  2.1291
 2149TIP3   OH230641   1.606   2.912  11.219 -0.1847 -0.5758 -0.6533
 2149TIP3    H130642   1.700   2.915  11.239  0.2675 -1.1582 -2.5195
 2149TIP3    H230643   1.601   2.866  11.135 -2.1129 -0.1090 -0.8299
 2150TIP3   OH230644   5.594   6.056  12.650 -0.2369 -0.1805  0.2301
 2150TIP3    H130645   5.502   6.075  12.667 -0.4908 -1.5830  0.5620
 2150TIP3    H230646   5.641   6.098  12.722 -0.5545  0.9320 -0.1885
 2151TIP3   OH230647   5.312   3.894  12.465  0.6042  0.3015 -0.5303
 2151TIP3    H130648   5.281   3.814  12.423 -0.8743  0.2231  0.6469
 2151TIP3    H230649   5.318   3.872  12.558 -0.0597  1.6177 -0.1614
 2152TIP3   OH230650   4.515   0.968  10.982 -0.3654  0.3612 -0.5059
 2152TIP3    H130651   4.471   0.995  10.901 -1.1067  1.5288  0.2595
 2152TIP3    H230652   4.577   1.039  11.000  1.5948 -1.0448 -1.3219
 2153TIP3   OH230653   2.933   4.375  11.502  0.1233 -0.2647  0.0619
 2153TIP3    H130654   2.907   4.404  11.414 -0.4204  0.3066  0.4063
 2153TIP3    H230655   3.028   4.366  11.497  0.0312 -1.0058 -0.8160
 2154TIP3   OH230656   5.522   2.578  10.474  0.7708 -0.0752  0.3763
 2154TIP3    H130657   5.449   2.639  10.479  1.0582  0.2585  0.5028
 2154TIP3    H230658   5.599   2.633  10.465  1.0976 -0.3860  1.1694
 2155TIP3   OH230659   5.377   6.333  10.485  0.4195  0.7297 -0.5566
 2155TIP3    H130660   5.302   6.311  10.429  0.8839 -1.0604 -0.5584
 2155TIP3    H230661   5.341   6.392  10.552 -1.3258 -1.0518  0.1891
 2156TIP3   OH230662   2.312   4.515  10.840 -0.0129  0.0981 -0.1252
 2156TIP3    H130663   2.318   4.599  10.795  0.8387 -0.0112 -0.2322
 2156TIP3    H230664   2.232   4.521  10.892 -0.8759  0.3160 -1.4541
 2157TIP3   OH230665   0.349   2.196  11.090 -0.5894  0.6317  0.1850
 2157TIP3    H130666   0.430   2.228  11.051 -0.7019  0.4926 -0.1737
 2157TIP3    H230667   0.348   2.233  11.178  1.1966 -1.4976  1.2033
 2158TIP3   OH230668   3.800   4.623  12.426 -0.4348  0.0892  0.1984
 2158TIP3    H130669   3.717   4.595  12.386 -0.1596  0.7892 -0.9144
 2158TIP3    H230670   3.866   4.605  12.360  0.3611 -0.6715  1.1658
 2159TIP3   OH230671   4.964   7.285  11.757 -0.3940 -0.1587  0.1702
 2159TIP3    H130672   4.952   7.376  11.732 -0.4532 -0.2683 -0.2021
 2159TIP3    H230673   4.906   7.236  11.699  0.7123 -0.5594 -0.6412
 2160TIP3   OH230674   3.118   6.773  12.774 -0.2942 -0.0777 -0.1166
 2160TIP3    H130675   3.196   6.724  12.801  0.7044  1.3191 -0.3706
 2160TIP3    H230676   3.152   6.843  12.718 -1.7338  0.5996 -0.1843
 2161TIP3   OH230677   5.919   3.659  11.700  0.2317 -0.0972  0.4347
 2161TIP3    H130678   5.975   3.712  11.644 -0.1539 -1.4029 -1.2799
 2161TIP3    H230679   5.975   3.588  11.730  0.1960  0.1006  0.9786
 2162TIP3   OH230680   6.717   0.134  10.041  0.9305  0.0908  0.2460
 2162TIP3    H130681   6.622   0.147  10.035  0.8708  0.0484  0.9898
 2162TIP3    H230682   6.746   0.129   9.950  0.6745  3.3641 -0.1187
 2163TIP3   OH230683   5.736   5.304  12.704  0.1116 -0.4058  0.0414
 2163TIP3    H130684   5.721   5.281  12.795  0.0704  0.6743  0.3262
 2163TIP3    H230685   5.729   5.400  12.702  1.9315 -0.2341 -0.7478
 2164TIP3   OH230686   4.565   5.573  11.052  0.0975 -0.1371 -0.8628
 2164TIP3    H130687   4.480   5.585  11.008 -0.6731  0.9069  0.8252
 2164TIP3    H230688   4.547   5.509  11.120  0.0535  1.7132  0.9484
 2165TIP3   OH230689   0.385   5.494  11.989  0.0750 -0.6632  0.0733
 2165TIP3    H130690   0.430   5.537  12.063 -0.7161 -2.1754  1.5109
 2165TIP3    H230691   0.316   5.555  11.965  1.2936  0.5540 -0.4861
 2166TIP3   OH230692   0.860   0.913  11.622  0.7240  0.0805  0.5395
 2166TIP3    H130693   0.898   0.969  11.689  0.3285  1.3691 -0.2823
 2166TIP3    H230694   0.766   0.925  11.632  0.6694  1.9632 -1.5585
 2167TIP3   OH230695   4.396   0.761  10.757 -0.2213 -0.1571 -0.3781
 2167TIP3    H130696   4.380   0.756  10.662 -1.4377  1.2179 -0.2909
 2167TIP3    H230697   4.433   0.676  10.780  1.4282 -0.0309 -2.3161
 2168TIP3   OH230698   1.357   5.907   9.754  0.4399 -0.2692  0.1502
 2168TIP3    H130699   1.390   5.976   9.695  1.5090 -0.8863  0.0073
 2168TIP3    H230700   1.262   5.905   9.737  0.4791  0.7537 -0.2773
 2169TIP3   OH230701   1.887   3.781  12.037 -0.1485 -0.2552 -0.2272
 2169TIP3    H130702   1.849   3.699  12.070 -1.3291 -0.0546 -1.0402
 2169TIP3    H230703   1.856   3.848  12.098  0.1068 -0.2866 -0.0598
 2170TIP3   OH230704   0.285   1.766  12.322 -0.0402 -0.4135 -0.2997
 2170TIP3    H130705   0.305   1.703  12.253  0.3675 -0.2193 -0.3617
 2170TIP3    H230706   0.212   1.817  12.288  0.0731 -0.4071 -0.5304
 2171TIP3   OH230707   2.358   4.963  11.773 -0.0625  0.3151 -0.1653
 2171TIP3    H130708   2.421   5.015  11.723 -0.4402 -0.2661 -1.3004
 2171TIP3    H230709   2.276   5.013  11.767 -1.4622 -1.9087 -4.4283
 2172TIP3   OH230710   2.347   4.439  11.278  0.9399  0.4785  0.4445
 2172TIP3    H130711   2.366   4.522  11.321  0.9462  0.9299 -0.4075
 2172TIP3    H230712   2.380   4.450  11.189  0.4492 -0.2474  0.1662
 2173TIP3   OH230713   1.228   5.245  11.904  0.3175 -0.0564 -0.1956
 2173TIP3    H130714   1.290   5.173  11.904  1.2839  0.7213 -1.6233
 2173TIP3    H230715   1.283   5.324  11.909 -0.5212  0.6513 -1.5728
 2174TIP3   OH230716   5.698   2.350  10.891 -0.2776 -0.2860 -0.1008
 2174TIP3    H130717   5.697   2.357  10.987 -0.6462 -0.7210 -0.0647
 2174TIP3    H230718   5.635   2.280  10.872 -0.7723  0.3134 -0.7087
 2175TIP3   OH230719   0.303   4.842  12.757 -0.2595  0.0958  0.2136
 2175TIP3    H130720   0.228   4.876  12.806  0.2612  0.3853  0.8246
 2175TIP3    H230721   0.378   4.857  12.815  0.2268 -0.4744 -0.2586
 2176TIP3   OH230722   7.575   3.243  11.882 -0.2231 -0.1443  0.2861
 2176TIP3    H130723   7.665   3.212  11.890  0.0538 -0.1282 -1.9570
 2176TIP3    H230724   7.523   3.163  11.868 -0.4854 -0.1012  0.9656
 2177TIP3   OH230725   6.564   0.639  10.676 -0.1482 -0.0072 -0.2421
 2177TIP3    H130726   6.597   0.572  10.736  0.0648  0.6489  0.3735
 2177TIP3    H230727   6.542   0.590  10.596  1.4829 -0.5919 -0.3766
 2178TIP3   OH230728   3.447   6.474  11.909 -0.6261 -0.1363 -0.2784
 2178TIP3    H130729   3.397   6.411  11.960 -0.4068  1.1464  1.6141
 2178TIP3    H230730   3.380   6.526  11.863 -0.8926 -0.3887 -0.1780
 2179TIP3   OH230731   4.966   5.470  10.113  0.6342 -0.2553 -0.0303
 2179TIP3    H130732   4.901   5.506  10.052  0.4171  1.1050  0.9654
 2179TIP3    H230733   5.034   5.434  10.056  0.2551  0.6284 -1.0973
 2180TIP3   OH230734   0.700   0.875  10.755 -0.3786  0.3001  0.2869
 2180TIP3    H130735   0.756   0.808  10.793  1.4774  1.3055 -0.5367
 2180TIP3    H230736   0.689   0.941  10.824 -0.5192  0.1149  0.4397
 2181TIP3   OH230737   2.857   0.301  11.947  1.0967 -0.3518 -0.5221
 2181TIP3    H130738   2.853   0.358  11.870 -0.1708 -0.4134 -0.5246
 2181TIP3    H230739   2.800   0.342  12.011 -0.7569 -2.1248 -0.9071
 2182TIP3   OH230740   4.031   3.397  11.433 -0.4655  0.2022  0.3676
 2182TIP3    H130741   4.102   3.341  11.463 -0.1879  0.4327  0.1411
 2182TIP3    H230742   4.069   3.449  11.362 -1.4806 -1.2956 -1.3591
 2183TIP3   OH230743   6.157   4.952  12.575 -0.1633  0.7132  0.1944
 2183TIP3    H130744   6.160   5.027  12.635  2.6804  0.4922  0.4740
 2183TIP3    H230745   6.159   4.876  12.633  3.2228  0.4924 -0.0282
 2184TIP3   OH230746   3.996   5.921  10.744 -0.3993 -0.1395  0.5994
 2184TIP3    H130747   3.903   5.942  10.730 -0.2018  0.7134  0.5057
 2184TIP3    H230748   4.037   6.006  10.759  0.0466 -0.6480  2.5434
 2185TIP3   OH230749   0.176   5.469  12.570 -0.5136 -0.6157 -0.1744
 2185TIP3    H130750   0.194   5.459  12.476 -1.0558 -0.9285 -0.2477
 2185TIP3    H230751   0.118   5.396  12.591  0.3473 -1.1038  0.6115
 2186TIP3   OH230752   6.378   4.613  12.701 -0.0259 -0.3049 -0.7842
 2186TIP3    H130753   6.420   4.607  12.786  1.6908  1.1115 -1.4542
 2186TIP3    H230754   6.335   4.529  12.688 -0.6338 -0.4180  1.6023
 2187TIP3   OH230755   7.008   5.661  11.452  0.3201  0.1205  0.3250
 2187TIP3    H130756   6.962   5.608  11.387 -0.5234  0.3493  0.7144
 2187TIP3    H230757   7.057   5.598  11.504  1.9594  0.0233 -1.2257
 2188TIP3   OH230758   0.518   1.746  12.443 -0.1944 -0.4198 -0.0888
 2188TIP3    H130759   0.425   1.728  12.430 -0.8252  0.4523  2.6296
 2188TIP3    H230760   0.538   1.814  12.379 -2.0130  0.9339  0.6866
 2189TIP3   OH230761   3.199   5.454  11.080  0.0447 -0.2277  0.1355
 2189TIP3    H130762   3.131   5.403  11.037 -0.0298  0.6259 -0.7956
 2189TIP3    H230763   3.159   5.484  11.162  0.2153 -1.9339  0.8764
 2190TIP3   OH230764   6.538   7.499  11.622  0.5777  0.4239 -0.0219
 2190TIP3    H130765   6.595   7.425  11.602 -0.5149  0.4558 -4.4058
 2190TIP3    H230766   6.589   7.576  11.597 -0.2297  0.6584 -1.0314
 2191TIP3   OH230767   5.547   4.194  11.721  0.0219  0.5201  0.4160
 2191TIP3    H130768   5.614   4.172  11.785  1.9030 -0.5829 -1.7731
 2191TIP3    H230769   5.563   4.286  11.700  1.8366 -0.0678 -1.0516
 2192TIP3   OH230770   0.202   1.082  10.282  0.9238 -0.4500  0.7334
 2192TIP3    H130771   0.195   1.043  10.369  0.1489 -0.9977  0.4344
 2192TIP3    H230772   0.296   1.089  10.266  1.1213  1.0325  2.2122
 2193TIP3   OH230773   0.092   1.079   9.913 -0.0453  0.1276 -0.8771
 2193TIP3    H130774   0.074   1.151   9.973  0.6857  2.2584 -3.0230
 2193TIP3    H230775   0.007   1.054   9.879 -0.3859 -0.6054  0.4797
 2194TIP3   OH230776   1.079   5.755  11.870 -1.2926 -0.1014  0.1257
 2194TIP3    H130777   1.015   5.697  11.828 -1.2108 -0.0787 -0.0322
 2194TIP3    H230778   1.142   5.774  11.801  0.2265 -2.0213  0.8605
 2195TIP3   OH230779   4.936   3.902  11.871  0.5056  0.5192 -0.2293
 2195TIP3    H130780   4.899   3.834  11.926 -0.7218  0.9748 -0.4572
 2195TIP3    H230781   4.944   3.862  11.784  1.0329  0.2664 -0.0679
 2196TIP3   OH230782   6.326   2.146  10.768 -0.1898  0.0110 -0.4314
 2196TIP3    H130783   6.405   2.154  10.715 -0.3682  0.8453 -0.5860
 2196TIP3    H230784   6.352   2.174  10.855  0.1736 -1.6328  0.0116
 2197TIP3   OH230785   6.407   7.242   9.803  0.3063  0.2766  0.0418
 2197TIP3    H130786   6.384   7.152   9.781 -1.4643  0.8918 -0.8547
 2197TIP3    H230787   6.472   7.234   9.873 -1.8232 -1.6956  1.9802
 2198TIP3   OH230788   4.891   3.668  10.383 -0.2824 -0.0732  0.4368
 2198TIP3    H130789   4.802   3.681  10.415 -0.6905  0.8342 -0.9977
 2198TIP3    H230790   4.900   3.730  10.311  1.0773 -1.0709 -0.2938
 2199TIP3   OH230791   0.612   3.100  11.430 -0.4478  0.2611 -0.1714
 2199TIP3    H130792   0.518   3.102  11.451 -0.7195 -0.8692 -1.1374
 2199TIP3    H230793   0.652   3.059  11.506 -0.9310 -0.4048 -0.2545
 2200TIP3   OH230794   2.424   4.969  12.758  0.2360  0.4910 -0.5216
 2200TIP3    H130795   2.405   5.013  12.675 -3.1638 -0.3124 -0.3517
 2200TIP3    H230796   2.417   5.039  12.824 -1.0601  0.4677 -0.6093
 2201TIP3   OH230797   1.459   7.054  12.143  0.0640  0.3248 -0.0497
 2201TIP3    H130798   1.393   7.087  12.203 -0.1128 -1.2007  0.6537
 2201TIP3    H230799   1.410   7.032  12.064 -0.2686 -0.6105  0.3986
 2202TIP3   OH230800   3.670   0.964  10.544 -0.1793 -0.2813  0.5600
 2202TIP3    H130801   3.764   0.946  10.536 -0.0396  0.7929 -0.5077
 2202TIP3    H230802   3.627   0.889  10.503  0.2796  0.0913 -0.6539
 2203TIP3   OH230803   6.471   1.280  12.429  0.2226  0.5561 -0.0457
 2203TIP3    H130804   6.493   1.361  12.476  0.2314  0.6607 -0.2249
 2203TIP3    H230805   6.514   1.291  12.344 -0.8541  0.9409 -0.5604
 2204TIP3   OH230806   5.672   3.275  10.893 -0.5299  0.2220 -0.0438
 2204TIP3    H130807   5.644   3.244  10.807  1.4197 -0.3633 -0.5160
 2204TIP3    H230808   5.602   3.247  10.952 -0.1764 -2.7484 -0.8838
 2205TIP3   OH230809   0.749   3.169  12.733  0.8075  0.1655 -0.1482
 2205TIP3    H130810   0.740   3.155  12.827 -2.2153 -0.1912 -0.3879
 2205TIP3    H230811   0.785   3.257  12.725 -1.3026  1.2714  1.4313
 2206TIP3   OH230812   6.447   7.283  12.204  0.1317 -0.4115 -0.2282
 2206TIP3    H130813   6.534   7.286  12.244  0.0149 -1.1591  0.0925
 2206TIP3    H230814   6.459   7.233  12.123  0.1067 -0.0447 -0.4592
 2207TIP3   OH230815   7.354   5.905  10.364  0.3407  0.2238  0.3795
 2207TIP3    H130816   7.338   5.815  10.335  1.6419  0.1689 -0.2575
 2207TIP3    H230817   7.424   5.897  10.429  0.8765  0.8221 -0.1085
 2208TIP3   OH230818   6.781   0.711  10.979  0.6929  0.2051  0.3190
 2208TIP3    H130819   6.844   0.641  10.968  2.5664  1.8403  0.0317
 2208TIP3    H230820   6.834   0.788  11.002 -1.1663  1.6826 -0.0587
 2209TIP3   OH230821   6.178   1.234  12.316 -0.0119 -0.1021  0.0399
 2209TIP3    H130822   6.147   1.284  12.240 -0.0248  1.0525  0.7739
 2209TIP3    H230823   6.253   1.284  12.349  1.2611 -1.6540 -0.3601
 2210TIP3   OH230824   6.164   3.000  12.715 -0.3977 -0.5038  0.1643
 2210TIP3    H130825   6.203   3.008  12.802  1.9330 -1.1373 -0.7149
 2210TIP3    H230826   6.170   2.907  12.695 -0.8023 -0.3531 -0.7021
 2211TIP3   OH230827   6.821   3.756  11.528  0.1998  0.3011 -0.5061
 2211TIP3    H130828   6.732   3.791  11.534 -0.3830 -0.8134 -1.9992
 2211TIP3    H230829   6.872   3.808  11.589 -1.7608  0.0616  1.4520
 2212TIP3   OH230830   4.838   7.139  13.026 -0.1787  0.0483 -0.2697
 2212TIP3    H130831   4.788   7.062  13.054  0.4526 -0.2590  0.0346
 2212TIP3    H230832   4.913   7.141  13.085 -0.9596  1.7816  0.7374
 2213TIP3   OH230833   6.485   4.941  10.620  0.3774  0.0440  0.3854
 2213TIP3    H130834   6.563   4.974  10.575  1.2663 -2.2602  0.0983
 2213TIP3    H230835   6.499   4.962  10.712 -0.0383  2.1255  0.0274
 2214TIP3   OH230836   1.634   4.073  12.058  0.0920 -0.1953  0.2202
 2214TIP3    H130837   1.663   3.992  12.016  2.2311 -0.7690  2.5883
 2214TIP3    H230838   1.706   4.134  12.045 -0.4470  0.5248  0.5970
 2215TIP3   OH230839   7.037   3.366  11.977 -0.0472 -0.1581  0.1406
 2215TIP3    H130840   7.060   3.445  11.928 -0.8446  0.3872  0.6080
 2215TIP3    H230841   7.102   3.301  11.951  1.0161  0.8435  0.2375
 2216TIP3   OH230842   5.059   1.278  11.278  0.1678  0.3135 -0.0809
 2216TIP3    H130843   5.117   1.238  11.343  0.1997 -0.1039 -0.3626
 2216TIP3    H230844   4.992   1.321  11.330  0.6529  0.6878  0.2503
 2217TIP3   OH230845   0.514   6.684  11.340  0.0737  0.3872  0.8397
 2217TIP3    H130846   0.467   6.741  11.279  0.0638  0.6568  1.0979
 2217TIP3    H230847   0.462   6.685  11.420  0.2370  0.2639  0.9483
 2218TIP3   OH230848   4.562   2.484  11.787  0.0657  0.0053 -0.1157
 2218TIP3    H130849   4.565   2.568  11.741 -2.3282  0.9883  1.3685
 2218TIP3    H230850   4.625   2.429  11.740  1.1693  2.3707 -1.5918
 2219TIP3   OH230851   2.328   5.214  11.009  0.1744  0.5866  0.3299
 2219TIP3    H130852   2.333   5.157  11.085  1.1086 -0.1673 -0.2730
 2219TIP3    H230853   2.301   5.157  10.937 -0.0283  1.1423 -0.0451
 2220TIP3   OH230854   5.060   1.817  12.814 -0.0479  0.2283 -0.1722
 2220TIP3    H130855   4.987   1.869  12.781  0.4295  0.3964 -0.9708
 2220TIP3    H230856   5.098   1.870  12.884 -0.3661  0.3653 -0.1009
 2221TIP3   OH230857   2.155   5.423  12.165 -0.2712 -0.1031  0.4490
 2221TIP3    H130858   2.166   5.498  12.106  0.5085  0.5813  1.4361
 2221TIP3    H230859   2.149   5.347  12.106 -0.9261  0.7029 -0.5586
 2222TIP3   OH230860   5.540   6.442  11.669  0.1967 -0.2796  0.2147
 2222TIP3    H130861   5.527   6.378  11.738 -3.3190  1.7527  1.7434
 2222TIP3    H230862   5.634   6.449  11.659  0.7568 -3.1473  2.3461
 2223TIP3   OH230863   3.001   1.754  12.070 -0.7194  0.4001 -0.2072
 2223TIP3    H130864   2.963   1.734  12.155  0.1396 -2.3830 -0.3686
 2223TIP3    H230865   3.073   1.814  12.089 -1.8243  1.4842  0.7243
 2224TIP3   OH230866   5.068   2.791  11.478 -0.2414 -0.3298 -0.2680
 2224TIP3    H130867   5.136   2.734  11.442  0.0981  0.1582 -0.4095
 2224TIP3    H230868   5.040   2.846  11.405  0.3357  0.5553  0.1520
 2225TIP3   OH230869   3.169   0.319  11.914 -1.1732  0.1467 -0.4502
 2225TIP3    H130870   3.104   0.262  11.955 -0.6791  1.3860  2.2656
 2225TIP3    H230871   3.252   0.275  11.928 -1.0529  0.3295 -0.5861
 2226TIP3   OH230872   5.317   1.365   9.828 -0.2414 -0.2918  0.2607
 2226TIP3    H130873   5.240   1.402   9.786  0.0655  0.2295  0.1467
 2226TIP3    H230874   5.298   1.271   9.836 -0.4214 -0.3593 -0.7913
 2227TIP3   OH230875   3.864   3.602  11.256 -0.4005 -0.1773  0.0543
 2227TIP3    H130876   3.784   3.624  11.304  0.0268  0.0643  0.6634
 2227TIP3    H230877   3.883   3.680  11.204 -0.4851 -0.1882  0.0059
 2228TIP3   OH230878   0.749   0.588  12.511  0.1948 -0.0605 -0.0982
 2228TIP3    H130879   0.697   0.525  12.462  0.8085  0.7965 -1.9347
 2228TIP3    H230880   0.806   0.535  12.567 -0.7796 -1.0477 -0.0161
 2229TIP3   OH230881   1.980   0.878  12.098 -0.0556  0.3153 -0.7142
 2229TIP3    H130882   1.902   0.891  12.043  1.7554  0.0877 -3.5021
 2229TIP3    H230883   1.990   0.783  12.104 -0.3805  0.3299  0.3027
 2230TIP3   OH230884   5.668   0.675  12.814 -0.1011  0.3196 -0.3876
 2230TIP3    H130885   5.725   0.675  12.891 -0.6620 -0.1492  0.0367
 2230TIP3    H230886   5.686   0.592  12.771  0.1787  0.5615 -0.7518
 2231TIP3   OH230887   5.942   6.676  11.037 -0.3755 -0.6662  0.1601
 2231TIP3    H130888   5.990   6.716  11.109 -0.2701 -0.5766  0.0408
 2231TIP3    H230889   5.853   6.664  11.070 -0.2357 -0.9608  0.4304
 2232TIP3   OH230890   3.822   0.463  11.822  0.7024  0.3320 -0.6158
 2232TIP3    H130891   3.737   0.456  11.779  1.0380  2.3159 -1.7659
 2232TIP3    H230892   3.807   0.519  11.898  0.4485 -1.8027  1.0014
 2233TIP3   OH230893   0.625   2.281  12.795 -0.1091 -0.3952 -0.1806
 2233TIP3    H130894   0.716   2.290  12.767 -0.0964  0.9391  0.2465
 2233TIP3    H230895   0.630   2.234  12.878  0.4275  1.8002  1.1091
 2234TIP3   OH230896   6.728   4.473  12.157 -0.2817 -0.0025  0.0810
 2234TIP3    H130897   6.640   4.511  12.159  0.1685  1.0808  0.0010
 2234TIP3    H230898   6.786   4.545  12.183  0.4271 -1.1736  1.9488
 2235TIP3   OH230899   0.562   6.717  11.726 -0.3387  0.0826  0.0461
 2235TIP3    H130900   0.634   6.709  11.664  0.0773 -0.1237  0.5461
 2235TIP3    H230901   0.485   6.736  11.672  0.1308  0.5289 -0.4698
 2236TIP3   OH230902   2.732   0.431  12.140 -0.4000  0.1720  0.5244
 2236TIP3    H130903   2.780   0.385  12.210  0.1310  0.9635  0.6934
 2236TIP3    H230904   2.740   0.524  12.163 -0.4363  0.4221 -0.4593
 2237TIP3   OH230905   2.729   3.408  10.956 -0.3177  0.1329  0.1424
 2237TIP3    H130906   2.781   3.353  10.898 -2.3243  0.6703 -2.3042
 2237TIP3    H230907   2.711   3.487  10.905 -3.9234 -0.2426  0.5979
 2238TIP3   OH230908   7.153   2.701  10.521 -0.1347 -0.3615 -0.0770
 2238TIP3    H130909   7.230   2.689  10.466  0.3157 -2.9460  0.9382
 2238TIP3    H230910   7.084   2.729  10.461  0.7650 -1.3558 -1.6588
 2239TIP3   OH230911   6.473   1.946  12.203  0.2302 -0.3033 -0.1408
 2239TIP3    H130912   6.520   1.865  12.223 -1.0798 -1.4546 -1.4901
 2239TIP3    H230913   6.407   1.920  12.138  0.0625  1.9395 -0.9447
 2240TIP3   OH230914   6.912   7.249   9.791 -0.4217 -0.2999  0.5157
 2240TIP3    H130915   6.975   7.284   9.728 -2.0516 -0.0799 -1.0783
 2240TIP3    H230916   6.937   7.157   9.800 -0.0616 -0.3001 -0.3534
 2241TIP3   OH230917   6.420   7.370  11.209 -0.2961 -0.1848 -0.3519
 2241TIP3    H130918   6.380   7.411  11.286  0.0430 -1.2990  0.4335
 2241TIP3    H230919   6.347   7.328  11.164 -0.4889  0.4397 -0.6444
 2242TIP3   OH230920   4.948   7.394  12.612 -0.1916 -0.9605  0.2562
 2242TIP3    H130921   4.887   7.376  12.683  1.4111 -2.8774  1.2445
 2242TIP3    H230922   4.925   7.332  12.543 -1.0733  0.1941 -0.5315
 2243TIP3   OH230923   4.584   2.873  12.282  0.2372  0.2092 -0.2797
 2243TIP3    H130924   4.598   2.955  12.234  0.7780  0.7534  0.7858
 2243TIP3    H230925   4.656   2.817  12.255 -1.0669 -0.6009 -2.3504
 2244TIP3   OH230926   5.155   5.615  12.370  0.2840  0.2962 -0.1575
 2244TIP3    H130927   5.167   5.546  12.436 -0.3360  0.7240  0.4176
 2244TIP3    H230928   5.242   5.653  12.359  0.3843  0.2655  0.4736
 2245TIP3   OH230929   4.536   4.670  11.524 -0.5250 -0.0876 -0.2745
 2245TIP3    H130930   4.622   4.628  11.518 -0.3557  0.1408  0.4253
 2245TIP3    H230931   4.494   4.651  11.440  0.2268 -0.1558 -0.6434
 2246TIP3   OH230932   5.809   6.943   9.586  0.1565 -0.9382  0.5456
 2246TIP3    H130933   5.747   6.936   9.658  1.6320 -0.0349  1.9698
 2246TIP3    H230934   5.852   7.028   9.598  0.4221 -0.7250 -1.4389
 2247TIP3   OH230935   4.200   5.810  10.335 -0.0032  0.0340 -0.2646
 2247TIP3    H130936   4.129   5.753  10.307  1.3843 -1.3265 -1.1750
 2247TIP3    H230937   4.188   5.890  10.284 -1.0219 -0.0480 -0.1812
 2248TIP3   OH230938   3.126   2.490  10.440  0.2034 -0.4699  0.4664
 2248TIP3    H130939   3.121   2.399  10.411 -0.2109 -0.1189 -0.6122
 2248TIP3    H230940   3.168   2.536  10.368 -2.6963  0.8011 -0.5783
 2249TIP3   OH230941   3.782   3.568  12.317  0.2432  0.0472 -0.1192
 2249TIP3    H130942   3.870   3.590  12.287 -1.1972  2.2366 -3.5135
 2249TIP3    H230943   3.756   3.643  12.371  0.1552 -0.1951  0.1788
 2250TIP3   OH230944   7.430   4.225  11.015  0.1847  0.1159  0.5526
 2250TIP3    H130945   7.400   4.167  11.085 -0.0644  0.7818  1.0080
 2250TIP3    H230946   7.352   4.273  10.989  0.4133  0.3334  0.2619
 2251TIP3   OH230947   2.366   7.012  10.640 -0.1106 -0.6201  0.3201
 2251TIP3    H130948   2.383   7.106  10.647  0.5485 -0.6011 -1.1316
 2251TIP3    H230949   2.366   6.981  10.730  0.4661  0.6337  0.7833
 2252TIP3   OH230950   0.713   4.966  11.314 -0.0692 -0.1927  0.1824
 2252TIP3    H130951   0.622   4.988  11.295 -0.0596 -0.2521  0.0686
 2252TIP3    H230952   0.741   4.913  11.240  0.8147  1.8766 -1.0533
 2253TIP3   OH230953   0.732   5.568   9.762  0.6412 -0.1587  0.8252
 2253TIP3    H130954   0.728   5.655   9.723 -1.1756 -0.2377  0.7782
 2253TIP3    H230955   0.801   5.575   9.828  1.3116  0.9723  0.0376
 2254TIP3   OH230956   4.507   0.523  11.201  0.4398  0.1573  0.3002
 2254TIP3    H130957   4.498   0.614  11.173  0.2905  0.7462  2.1405
 2254TIP3    H230958   4.599   0.514  11.226  0.4855 -0.2350  0.0010
 2255TIP3   OH230959   4.119   0.035  11.022 -0.8292 -0.1965  0.3824
 2255TIP3    H130960   4.065   0.037  11.101 -1.3849 -0.1041  0.0076
 2255TIP3    H230961   4.153  -0.054  11.018 -2.2441 -0.7437 -0.2118
 2256TIP3   OH230962   2.120   6.111  11.679  0.5189  0.3925 -0.2383
 2256TIP3    H130963   2.060   6.178  11.711 -0.9745 -0.2038 -1.5868
 2256TIP3    H230964   2.195   6.115  11.738 -0.6512  1.4847  1.2737
 2257TIP3   OH230965   6.292   1.668  11.748 -0.0273 -0.2117 -0.2446
 2257TIP3    H130966   6.202   1.664  11.715 -0.1011 -3.2912  0.0546
 2257TIP3    H230967   6.326   1.751  11.715 -2.3468  0.1371 -2.0060
 2258TIP3   OH230968   0.691   4.340  10.940  0.2973 -0.1861 -0.5067
 2258TIP3    H130969   0.718   4.298  11.022  1.1984 -2.4098 -1.8545
 2258TIP3    H230970   0.668   4.430  10.965  0.9929 -0.6582  2.0792
 2259TIP3   OH230971   6.189   5.461  10.402  0.3214 -0.2218 -0.2194
 2259TIP3    H130972   6.153   5.509  10.476  2.7955  0.0741  0.8908
 2259TIP3    H230973   6.246   5.395  10.441  0.0976 -1.4459 -1.8313
 2260TIP3   OH230974   2.615   2.940  11.145  0.7638 -0.1068  0.1981
 2260TIP3    H130975   2.536   2.887  11.136  0.6147 -0.0330  0.9905
 2260TIP3    H230976   2.608   3.007  11.078  0.2171 -0.1884  0.1763
 2261TIP3   OH230977   5.671   3.346  10.052  0.3680 -0.1501 -0.1252
 2261TIP3    H130978   5.751   3.329  10.102 -1.0192 -0.6644  2.0981
 2261TIP3    H230979   5.671   3.280   9.983  1.1920 -1.1052  0.7463
 2262TIP3   OH230980   2.299   6.273  12.276 -0.0708  0.5879 -0.0674
 2262TIP3    H130981   2.321   6.352  12.226  1.1451  0.4019  0.1371
 2262TIP3    H230982   2.229   6.301  12.335 -0.3665  1.2383 -0.7086
 2263TIP3   OH230983   4.290   1.767  11.651  0.0468  0.3562  0.2839
 2263TIP3    H130984   4.246   1.717  11.582 -1.6778  1.6847  0.3623
 2263TIP3    H230985   4.246   1.740  11.732  0.3413  0.6505  0.5448
 2264TIP3   OH230986   5.538   7.521  12.686  0.3884 -0.2796  0.5546
 2264TIP3    H130987   5.608   7.492  12.627 -1.3289 -1.2761 -1.1331
 2264TIP3    H230988   5.551   7.615  12.695  1.0133 -0.1855 -1.0692
 2265TIP3   OH230989   7.567   2.044  11.314 -0.6282 -0.5105 -0.3728
 2265TIP3    H130990   7.573   2.139  11.320 -1.0895 -0.5195  0.5019
 2265TIP3    H230991   7.640   2.012  11.366 -1.6853 -0.6103  1.1339
 2266TIP3   OH230992   5.540   1.755  11.914  0.2988  0.5359 -0.0392
 2266TIP3    H130993   5.530   1.782  12.006 -0.5909 -0.2493  0.1082
 2266TIP3    H230994   5.488   1.675  11.907  0.7367  0.3340 -1.1228
 2267TIP3   OH230995   1.077   6.937  11.541 -0.1276 -0.2181 -0.5580
 2267TIP3    H130996   1.164   6.915  11.574 -0.0982 -0.6147 -0.9006
 2267TIP3    H230997   1.085   7.027  11.511 -0.3687  0.4676  1.2943
 2268TIP3   OH230998   3.158   6.515  11.004 -0.9446  0.4484 -0.5693
 2268TIP3    H130999   3.198   6.539  10.920 -1.9708  0.7078 -0.9958
 2268TIP3    H231000   3.227   6.468  11.051  0.0716  1.4478 -1.0229
 2269TIP3   OH231001   2.220   6.830  11.154  0.0159  0.3449  0.2379
 2269TIP3    H131002   2.253   6.841  11.065 -1.9385 -0.0178 -0.5650
 2269TIP3    H231003   2.128   6.808  11.144 -0.3367  0.6008  2.3694
 2270TIP3   OH231004   3.878   6.710  11.192 -0.5963 -0.0250  0.1660
 2270TIP3    H131005   3.905   6.679  11.106 -1.4347 -1.2932  0.3377
 2270TIP3    H231006   3.863   6.804  11.180 -0.6405 -0.1710 -1.0521
 2271TIP3   OH231007   7.429   2.806  12.156  0.1331  0.4135 -0.0946
 2271TIP3    H131008   7.379   2.735  12.115 -0.2327  0.8685 -0.4521
 2271TIP3    H231009   7.388   2.817  12.242 -0.5797  0.9686 -0.4928
 2272TIP3   OH231010   0.271   3.059  12.252  0.0453 -0.0367 -0.2910
 2272TIP3    H131011   0.361   3.064  12.285 -0.5425  1.3809  1.2827
 2272TIP3    H231012   0.269   3.121  12.180  0.1123  0.6914  0.3143
 2273TIP3   OH231013   2.424   2.224  11.953 -0.2501 -0.2787 -0.5344
 2273TIP3    H131014   2.414   2.150  11.893  0.6939 -0.3376 -0.6314
 2273TIP3    H231015   2.472   2.189  12.027 -1.1819 -0.1405  0.1635
 2274TIP3   OH231016   4.626   0.695  10.491  0.5013 -0.2421 -0.0408
 2274TIP3    H131017   4.709   0.670  10.532 -0.0690 -2.2533 -0.0234
 2274TIP3    H231018   4.572   0.617  10.497 -0.3960  0.0686 -2.6491
 2275TIP3   OH231019   1.171   0.197  10.866  0.4406 -0.1689 -0.1105
 2275TIP3    H131020   1.220   0.140  10.924 -1.5823 -1.4450  0.4488
 2275TIP3    H231021   1.126   0.258  10.925 -0.1460 -0.2543 -0.4599
 2276TIP3   OH231022   3.027   4.708  10.513 -0.8484 -0.5474  0.4212
 2276TIP3    H131023   3.024   4.617  10.483  0.4588 -0.6617  0.5622
 2276TIP3    H231024   2.969   4.755  10.454  0.1379 -1.1129 -1.0706
 2277TIP3   OH231025   4.794   5.163  12.009 -0.2114 -0.2179 -1.2317
 2277TIP3    H131026   4.877   5.120  12.027 -0.8996 -0.3151  2.4754
 2277TIP3    H231027   4.819   5.243  11.963  2.0315 -0.0216  0.1437
 2278TIP3   OH231028   1.294   6.348  12.063  0.0880  0.2393 -0.0590
 2278TIP3    H131029   1.367   6.358  12.124  0.0385  1.0201 -0.1200
 2278TIP3    H231030   1.245   6.273  12.096 -0.6152  1.3696  1.5710
 2279TIP3   OH231031   5.936   0.907  11.951  0.6278 -0.0671  0.5576
 2279TIP3    H131032   6.001   0.965  11.912 -0.6830  1.4050  0.4787
 2279TIP3    H231033   5.914   0.948  12.034 -1.3008  0.3498 -0.0957
 2280TIP3   OH231034   2.689   6.305  10.207 -0.1716  0.1973  0.3991
 2280TIP3    H131035   2.663   6.344  10.290 -0.9534 -1.2031  0.8420
 2280TIP3    H231036   2.607   6.278  10.166  0.2555  0.2455 -0.5230
 2281TIP3   OH231037   4.619   6.566  12.939  0.3467  0.3591 -0.4171
 2281TIP3    H131038   4.628   6.626  12.864 -0.0864  0.3192 -0.5037
 2281TIP3    H231039   4.566   6.494  12.905  0.8999 -0.0995 -0.3245
 2282TIP3   OH231040   0.650   4.790  10.563 -0.0666 -0.0435  0.0409
 2282TIP3    H131041   0.654   4.885  10.576 -0.2573 -0.2671  2.0233
 2282TIP3    H231042   0.718   4.772  10.498 -0.1505  1.4552 -0.5159
 2283TIP3   OH231043   6.945   5.408  12.202 -0.3358  0.2196 -0.8101
 2283TIP3    H131044   6.962   5.358  12.281 -1.7327  1.7480  0.5273
 2283TIP3    H231045   6.858   5.380  12.174 -0.1522  0.2180 -1.3972
 2284TIP3   OH231046   4.295   2.638  11.494 -1.0225  0.2924  0.4121
 2284TIP3    H131047   4.291   2.697  11.570 -0.8243  1.5461 -0.5189
 2284TIP3    H231048   4.378   2.660  11.452  0.1573 -2.2258  1.2374
 2285TIP3   OH231049   3.862   1.724  10.862  0.0920  0.0634  0.6512
 2285TIP3    H131050   3.898   1.812  10.866 -0.0548  0.1345  0.4161
 2285TIP3    H231051   3.899   1.686  10.783 -0.1212  0.0375  0.5631
 2286TIP3   OH231052   1.411   4.250  11.251  0.1891  0.0975  0.1119
 2286TIP3    H131053   1.472   4.178  11.236  0.0365 -0.3019  1.3423
 2286TIP3    H231054   1.340   4.211  11.302 -2.0140  0.1131 -2.6904
 2287TIP3   OH231055   7.101   6.766  12.720 -0.2791 -0.6741  0.3411
 2287TIP3    H131056   7.023   6.792  12.769 -0.5239  2.0798 -1.2956
 2287TIP3    H231057   7.080   6.679  12.685 -1.9004 -0.7083  1.3302
 2288TIP3   OH231058   2.436   5.854  11.177  0.0419  0.7211  0.0870
 2288TIP3    H131059   2.482   5.774  11.203  0.6217  0.6339 -1.1311
 2288TIP3    H231060   2.422   5.902  11.259 -0.7167 -0.8193  0.8925
 2289TIP3   OH231061   1.462   6.116  12.580 -0.3088  0.1694  0.4816
 2289TIP3    H131062   1.506   6.100  12.496  1.4532  0.0199  1.3986
 2289TIP3    H231063   1.513   6.067  12.644 -0.9163  1.2384  1.8377
 2290TIP3   OH231064   0.236   4.729  10.682 -0.0084  1.3200  0.4502
 2290TIP3    H131065   0.165   4.696  10.736  0.2326  0.0273  0.0380
 2290TIP3    H231066   0.215   4.821  10.666 -2.0920  0.7467 -0.4404
 2291TIP3   OH231067   5.867   6.341  11.319  0.4670  0.0702  0.0253
 2291TIP3    H131068   5.949   6.358  11.272  0.5842  0.5787  0.4113
 2291TIP3    H231069   5.804   6.322  11.250  0.6778  0.6560 -0.3327
 2292TIP3   OH231070   0.444   4.100  11.896 -0.4870  0.2699 -0.4910
 2292TIP3    H131071   0.421   4.016  11.854  0.8871 -0.7373  0.6765
 2292TIP3    H231072   0.515   4.135  11.843  1.3369 -1.0651  0.9195
 2293TIP3   OH231073   4.263   5.285  11.634  0.5553  0.0031  0.8087
 2293TIP3    H131074   4.304   5.368  11.658  0.4743 -0.0080  0.9872
 2293TIP3    H231075   4.173   5.308  11.613  0.2475 -0.1870  1.8696
 2294TIP3   OH231076   1.430   5.002  12.084 -0.0823 -0.4911  0.0170
 2294TIP3    H131077   1.409   4.988  11.992 -1.3283  1.9475 -0.1384
 2294TIP3    H231078   1.526   4.993  12.087  0.1814  0.8466 -1.8622
 2295TIP3   OH231079   3.929   3.497  11.897  0.1580  0.1228 -0.1942
 2295TIP3    H131080   3.853   3.552  11.882 -0.0070  0.2178  0.9652
 2295TIP3    H231081   3.893   3.413  11.925  0.4783  0.1725  0.3700
 2296TIP3   OH231082   6.721   7.451  12.030 -0.1483  0.1483  0.1490
 2296TIP3    H131083   6.750   7.391  12.099 -0.3653  0.1347  0.2309
 2296TIP3    H231084   6.773   7.427  11.953 -0.4356 -0.3391  0.1011
 2297TIP3   OH231085   6.899   4.547  12.526 -0.2258  0.1788 -0.4747
 2297TIP3    H131086   6.886   4.534  12.620  0.1693 -0.0132 -0.4472
 2297TIP3    H231087   6.829   4.609  12.501  0.3748  1.1491  0.1743
 2298TIP3   OH231088   1.527   4.631  11.522  0.4293  0.9400 -0.2902
 2298TIP3    H131089   1.616   4.633  11.486  0.1641  0.5128 -0.9874
 2298TIP3    H231090   1.481   4.568  11.468  0.0658  0.1073  0.9381
 2299TIP3   OH231091   0.199   0.797  12.366 -0.1490 -0.0452  0.0415
 2299TIP3    H131092   0.173   0.717  12.411  0.9860 -1.0431 -0.9960
 2299TIP3    H231093   0.137   0.863  12.397  0.0489 -0.8497  2.3991
 2300TIP3   OH231094   4.362   0.179  10.821 -0.3945  0.5097 -0.2679
 2300TIP3    H131095   4.347   0.245  10.887 -0.0668  0.6100 -0.2931
 2300TIP3    H231096   4.358   0.226  10.738 -1.6825  0.2370 -0.3795
 2301TIP3   OH231097   6.109   2.037  10.343 -0.8402  0.0296  0.0172
 2301TIP3    H131098   6.170   1.977  10.300  1.2981  3.0307 -1.3958
 2301TIP3    H231099   6.041   2.053  10.278 -0.4747  0.4580 -0.2628
 2302TIP3   OH231100   2.604   3.523  10.525  0.0859  0.0326  0.6506
 2302TIP3    H131101   2.513   3.547  10.510 -1.4180 -4.1190  1.7090
 2302TIP3    H231102   2.648   3.545  10.444 -2.2650  0.4750 -0.5972
 2303TIP3   OH231103   0.544   5.863  10.344  0.2277 -0.0439 -0.3860
 2303TIP3    H131104   0.487   5.790  10.323  0.6656 -0.9804  1.4155
 2303TIP3    H231105   0.497   5.913  10.411  0.8053  0.1103 -0.0795
 2304TIP3   OH231106   0.762   7.513  11.387  0.5313 -0.8684 -0.3833
 2304TIP3    H131107   0.766   7.509  11.483 -0.1287  0.7324 -0.2513
 2304TIP3    H231108   0.705   7.441  11.362  0.0721 -0.8318  0.5038
 2305TIP3   OH231109   3.291   4.530  11.004 -0.2924 -0.5858 -0.2353
 2305TIP3    H131110   3.305   4.509  10.912  0.0995  1.2306 -0.6174
 2305TIP3    H231111   3.242   4.455  11.039  0.9158 -2.0337 -1.5159
 2306TIP3   OH231112   3.416   6.984  12.755  0.1179 -0.0222 -0.3752
 2306TIP3    H131113   3.466   6.906  12.781  0.3793 -0.1621 -1.2599
 2306TIP3    H231114   3.341   6.948  12.706  0.3277  0.2779 -0.9280
 2307TIP3   OH231115   4.748   1.441  11.069  0.1530  0.1905  0.6207
 2307TIP3    H131116   4.670   1.386  11.066 -0.5123  1.0899  1.1172
 2307TIP3    H231117   4.715   1.531  11.065  1.1831  0.5807  0.5063
 2308TIP3   OH231118   1.257   3.985  11.644  1.1429 -0.3690 -0.3702
 2308TIP3    H131119   1.312   3.993  11.721 -0.7541 -0.3534  1.0689
 2308TIP3    H231120   1.247   3.891  11.631  0.4073 -0.3919  0.2534
 2309TIP3   OH231121   0.862   4.117  12.477  0.5301 -0.6063  0.0285
 2309TIP3    H131122   0.902   4.060  12.411 -0.1571  0.4773 -1.3603
 2309TIP3    H231123   0.897   4.204  12.458  0.4785 -0.3022  1.2436
 2310TIP3   OH231124   0.920   3.565  10.537  0.1966 -1.4810  0.1660
 2310TIP3    H131125   0.864   3.642  10.526  3.7834  1.4456  0.2274
 2310TIP3    H231126   0.895   3.506  10.466 -1.3222  0.7111 -1.2389
 2311TIP3   OH231127   5.770   2.259  10.273  0.1330  0.3424 -0.2309
 2311TIP3    H131128   5.700   2.323  10.256 -0.2878  0.3877  1.4698
 2311TIP3    H231129   5.728   2.174  10.262 -0.0134  0.3716  0.0770
 2312TIP3   OH231130   1.993   5.821  10.142 -0.3078  0.0680 -0.1096
 2312TIP3    H131131   2.067   5.828  10.202  0.3927  1.3152 -1.0484
 2312TIP3    H231132   2.033   5.806  10.056 -1.2613 -1.3160 -0.3373
 2313TIP3   OH231133   4.062   3.306  10.495 -0.0582 -0.2624 -0.4218
 2313TIP3    H131134   4.018   3.389  10.478 -2.1498 -1.2230  0.0088
 2313TIP3    H231135   4.106   3.285  10.412  2.0664  2.0880 -0.0011
 2314TIP3   OH231136   3.097   6.474  12.312  0.1224 -0.1329  0.0318
 2314TIP3    H131137   3.086   6.380  12.328 -1.2606  0.2050  1.2625
 2314TIP3    H231138   3.115   6.512  12.398 -0.8258  0.9200 -0.2117
 2315TIP3   OH231139   6.259   4.401  11.256  0.2417  0.3902 -0.5102
 2315TIP3    H131140   6.303   4.344  11.193  1.3105 -0.3668  0.8517
 2315TIP3    H231141   6.330   4.451  11.297 -0.5751  1.8995 -0.8896
 2316TIP3   OH231142   0.088   1.502  11.794 -0.1245 -0.6180  0.1812
 2316TIP3    H131143  -0.007   1.494  11.781 -0.5087 -0.9532  2.6436
 2316TIP3    H231144   0.097   1.572  11.858  1.4420  0.4854 -1.1850
 2317TIP3   OH231145   7.322   5.515  11.121  0.3616  0.4875  0.5447
 2317TIP3    H131146   7.230   5.489  11.123  0.6538 -0.5558  1.9313
 2317TIP3    H231147   7.338   5.555  11.206  1.8280 -1.8895  1.5095
 2318TIP3   OH231148   3.292   0.880  12.639 -0.5497  0.0889 -0.3429
 2318TIP3    H131149   3.224   0.878  12.572 -0.5598  2.9766 -0.5761
 2318TIP3    H231150   3.268   0.811  12.701 -4.7394  2.0109  0.4991
 2319TIP3   OH231151   6.878   4.130  12.271 -0.4529 -0.0793  0.0502
 2319TIP3    H131152   6.876   4.209  12.325  0.5605  0.4340 -0.6297
 2319TIP3    H231153   6.921   4.065  12.325  0.9267  0.5447 -0.2565
 2320TIP3   OH231154   7.480   5.498  10.380  0.9582 -0.4286  0.6660
 2320TIP3    H131155   7.412   5.565  10.386  1.9016  0.5073  1.3725
 2320TIP3    H231156   7.509   5.501  10.289  1.2783  0.4239  0.7915
 2321TIP3   OH231157   0.387   4.425  11.282  0.1460 -0.0727  0.4314
 2321TIP3    H131158   0.444   4.500  11.293  0.8067 -0.4869 -0.0935
 2321TIP3    H231159   0.443   4.357  11.244 -0.7091 -0.4495 -0.1992
 2322TIP3   OH231160   6.866   6.816  10.833 -0.4373 -0.2967 -0.4217
 2322TIP3    H131161   6.944   6.871  10.835 -0.2997 -0.5030  0.9273
 2322TIP3    H231162   6.880   6.751  10.902 -1.1087 -1.3178 -1.2129
 2323TIP3   OH231163   2.877   3.364  12.272 -0.2409  0.4497  0.2116
 2323TIP3    H131164   2.785   3.389  12.285 -0.9782 -0.8898 -1.7842
 2323TIP3    H231165   2.875   3.268  12.271  1.1102  0.4167 -0.2649
 2324TIP3   OH231166   7.169   3.436  11.500  0.8462 -0.4568 -0.1107
 2324TIP3    H131167   7.176   3.372  11.571  0.7702  0.0844  0.3812
 2324TIP3    H231168   7.108   3.395  11.438 -0.7974 -0.0027  1.1400
 2325TIP3   OH231169   4.234   5.016  10.432 -0.0470  0.0493  0.0608
 2325TIP3    H131170   4.294   4.942  10.422  1.0242  1.0250 -1.2653
 2325TIP3    H231171   4.152   4.978  10.463  0.3588 -1.7477 -0.9496
 2326TIP3   OH231172   6.787   3.185  11.700 -0.5514  0.2144 -0.1967
 2326TIP3    H131173   6.744   3.227  11.625 -1.2425  0.5824  0.3892
 2326TIP3    H231174   6.756   3.236  11.775  0.7974  0.3872  0.2574
 2327TIP3   OH231175   2.847   0.869  11.693 -0.6989  0.0692  0.3750
 2327TIP3    H131176   2.788   0.942  11.712 -1.4945 -1.1825  3.1370
 2327TIP3    H231177   2.801   0.818  11.627 -1.4093  0.5808  0.4667
 2328TIP3   OH231178   1.429   3.456  11.450 -0.1012 -0.0997 -0.3398
 2328TIP3    H131179   1.334   3.449  11.453 -0.2526  1.5637 -0.6966
 2328TIP3    H231180   1.448   3.490  11.363  0.7787  0.1892 -0.0398
 2329TIP3   OH231181   7.269   1.188  11.967  0.1429  0.1815  0.3503
 2329TIP3    H131182   7.293   1.239  11.889 -0.8017 -0.0896 -0.1246
 2329TIP3    H231183   7.236   1.105  11.933  2.6649 -1.2639  1.1430
 2330TIP3   OH231184   0.760   5.784  12.227 -0.0709  0.1741 -0.4999
 2330TIP3    H131185   0.796   5.733  12.300 -0.0265 -1.3787 -1.5638
 2330TIP3    H231186   0.835   5.830  12.190  0.7119 -2.1410 -1.9851
 2331TIP3   OH231187   2.334   3.965  11.623  0.1367  0.0672 -0.0169
 2331TIP3    H131188   2.351   4.017  11.701 -3.4366  0.7322  0.5110
 2331TIP3    H231189   2.420   3.949  11.585  1.7100  3.0032  1.9387
 2332TIP3   OH231190   1.025   1.052  11.031  0.0345  0.4093  0.1629
 2332TIP3    H131191   0.937   1.050  11.067 -0.7564  1.4925 -1.5739
 2332TIP3    H231192   1.052   1.143  11.035  0.8226  0.1937  0.0880
 2333TIP3   OH231193   1.062   7.200  11.421  0.2913  0.5467 -0.6366
 2333TIP3    H131194   0.981   7.190  11.371  0.4972 -0.0177 -0.8636
 2333TIP3    H231195   1.041   7.267  11.487 -1.0069 -0.9810  0.5909
 2334TIP3   OH231196   4.152   5.038  12.219 -0.0878  0.2714 -0.0540
 2334TIP3    H131197   4.195   4.999  12.295 -1.1929  1.4454  1.2176
 2334TIP3    H231198   4.194   4.996  12.144  0.1594 -1.8592  1.1902
 2335TIP3   OH231199   6.553   4.535  12.909  0.7990 -0.0160  0.7170
 2335TIP3    H131200   6.636   4.577  12.887 -0.2594  1.3907 -0.7798
 2335TIP3    H231201   6.573   4.442  12.914  2.2684  0.1928 -0.6866
 2336TIP3   OH231202   1.225   1.963  11.846 -0.1295 -0.0527 -0.6944
 2336TIP3    H131203   1.259   2.039  11.894 -0.4551  0.0550 -0.6258
 2336TIP3    H231204   1.298   1.933  11.793  0.5668 -0.8060  0.6365
 2337TIP3   OH231205   6.798   4.716  12.861 -0.5048  0.0649  0.2396
 2337TIP3    H131206   6.744   4.790  12.834 -0.1642 -0.5698 -2.3796
 2337TIP3    H231207   6.882   4.756  12.885 -0.7430  0.6406  0.1315
 2338TIP3   OH231208   2.044   1.532  11.100  0.0580  0.1224  0.0203
 2338TIP3    H131209   2.123   1.484  11.126 -0.4293 -0.3632  0.6402
 2338TIP3    H231210   1.975   1.499  11.158 -0.5895  0.5963 -0.4572
 2339TIP3   OH231211   6.080   7.137  12.239  0.9215 -0.2456  0.1608
 2339TIP3    H131212   6.057   7.062  12.293 -0.5393  0.1816  0.1785
 2339TIP3    H231213   6.121   7.100  12.160 -2.3976 -1.3424 -1.2091
 2340TIP3   OH231214   7.252   1.259   9.456  0.4793  0.1481  0.4417
 2340TIP3    H131215   7.325   1.227   9.509 -0.7867 -0.9240  1.6204
 2340TIP3    H231216   7.228   1.342   9.497 -0.0198 -0.3196  1.1256
 2341TIP3   OH231217   0.605   7.643  10.817 -0.0463  0.8302  0.2706
 2341TIP3    H131218   0.529   7.588  10.836 -0.1473  0.3513 -1.3650
 2341TIP3    H231219   0.672   7.583  10.784 -0.0989  1.6001 -1.3763
 2342TIP3   OH231220   2.602   4.696   9.878  0.0883  0.4333  0.1101
 2342TIP3    H131221   2.612   4.602   9.895  0.3195  0.7054  1.6189
 2342TIP3    H231222   2.515   4.718   9.911 -0.0399  0.7219 -0.4059
 2343TIP3   OH231223   4.546   1.298  11.766 -1.1628  0.4125 -0.3440
 2343TIP3    H131224   4.480   1.232  11.744  0.4645 -0.9840 -1.3491
 2343TIP3    H231225   4.624   1.246  11.787 -0.3862  1.9979  0.8978
 2344TIP3   OH231226   6.346   6.781  11.506 -0.2396  0.9856  0.1460
 2344TIP3    H131227   6.400   6.772  11.585  0.5981  0.1777 -0.5021
 2344TIP3    H231228   6.278   6.842  11.531  0.5591  1.4698  1.2176
 2345TIP3   OH231229   6.801   4.316  10.578 -0.3163 -0.3778 -0.1129
 2345TIP3    H131230   6.747   4.331  10.500  0.9679  2.2429 -0.6088
 2345TIP3    H231231   6.883   4.363  10.561  0.6664 -1.0878  2.1538
 2346TIP3   OH231232   0.527   6.162  12.438 -0.5093  0.0327 -0.7760
 2346TIP3    H131233   0.590   6.091  12.421 -0.2863  0.1462 -0.4369
 2346TIP3    H231234   0.581   6.240  12.448 -0.5780 -0.0790  0.7850
 2347TIP3   OH231235   3.607   1.824  11.173  0.3876  1.2419 -0.1540
 2347TIP3    H131236   3.524   1.867  11.196 -0.0491  1.9369 -2.7296
 2347TIP3    H231237   3.670   1.860  11.235 -1.3838 -0.1941  2.6630
 2348TIP3   OH231238   7.562   1.714  11.512  0.5197  0.3059  0.3235
 2348TIP3    H131239   7.563   1.756  11.598  2.4240  2.6973 -0.7615
 2348TIP3    H231240   7.480   1.742  11.472 -0.4574 -0.9535  1.3439
 2349TIP3   OH231241   2.100   4.182  10.937 -0.4298 -0.0377  0.1076
 2349TIP3    H131242   2.108   4.210  11.028  3.8658  0.4648 -0.1900
 2349TIP3    H231243   2.188   4.193  10.901 -2.0393  0.4646 -4.3638
 2350TIP3   OH231244   4.424   6.720  10.731 -0.3543  0.0415 -0.2467
 2350TIP3    H131245   4.331   6.706  10.713 -0.1004 -0.8747 -0.9494
 2350TIP3    H231246   4.434   6.815  10.733 -1.4167  0.1513  0.4984
 2351TIP3   OH231247   3.190   7.034  12.047 -0.0145  0.7411  0.2527
 2351TIP3    H131248   3.259   7.020  11.983 -0.9431  0.6777 -0.7761
 2351TIP3    H231249   3.145   7.113  12.016 -0.8197  0.3886  0.4932
 2352TIP3   OH231250   5.559   1.638  12.357  0.1795 -0.0545  0.3164
 2352TIP3    H131251   5.579   1.663  12.266  0.3544 -1.2398  0.0184
 2352TIP3    H231252   5.520   1.717  12.395 -0.0914  0.3940 -0.8521
 2353TIP3   OH231253   0.621   0.314  12.453  0.2730 -0.2334 -0.7951
 2353TIP3    H131254   0.547   0.253  12.465  0.6281 -0.5523 -0.1125
 2353TIP3    H231255   0.612   0.345  12.363 -1.8329  1.2524 -0.1598
 2354TIP3   OH231256   6.920   0.478  10.999  0.6502  0.0489 -0.6294
 2354TIP3    H131257   7.005   0.436  11.006 -0.2342 -1.8706 -0.8883
 2354TIP3    H231258   6.899   0.506  11.088  1.3061  0.0646 -0.4759
 2355TIP3   OH231259   3.961   7.191  12.570  0.2450  0.4718 -0.2551
 2355TIP3    H131260   3.926   7.126  12.509  0.7478  0.8594 -0.9762
 2355TIP3    H231261   3.936   7.275  12.531 -0.0161  0.7230  0.4367
 2356TIP3   OH231262   7.372   2.281  11.610 -0.0045  0.3488 -0.1265
 2356TIP3    H131263   7.358   2.237  11.694 -2.2115 -0.4032 -0.8075
 2356TIP3    H231264   7.337   2.219  11.545  1.9365  0.7669 -1.6590
 2357TIP3   OH231265   1.536   0.442  10.702  0.6026 -0.0331 -0.5574
 2357TIP3    H131266   1.584   0.479  10.629  1.3611 -0.6475 -0.3894
 2357TIP3    H231267   1.604   0.407  10.760 -0.0172 -0.2977  0.0259
 2358TIP3   OH231268   4.970   2.999  12.427 -0.2505 -0.4916 -0.1073
 2358TIP3    H131269   4.893   3.039  12.469 -0.2505  0.5859 -1.0816
 2358TIP3    H231270   4.953   2.905  12.429 -1.0783 -0.3342  0.6819
 2359TIP3   OH231271   5.928   4.433  12.622 -0.5137  0.5745  0.4307
 2359TIP3    H131272   5.941   4.380  12.544 -1.5274 -0.0902  0.6956
 2359TIP3    H231273   5.852   4.395  12.665 -1.2470  2.2011  0.6607
 2360TIP3   OH231274   3.145   3.326  12.232  0.0610  0.1568  0.0636
 2360TIP3    H131275   3.054   3.357  12.230  0.6986  2.1999  0.2196
 2360TIP3    H231276   3.169   3.325  12.324  0.2671 -0.1554  0.0084
 2361TIP3   OH231277   4.939   1.877  10.871  0.3050 -0.0179 -0.1345
 2361TIP3    H131278   4.938   1.784  10.893  0.7467 -0.2022 -0.8576
 2361TIP3    H231279   5.024   1.892  10.830 -0.4001  0.3122 -1.5836
 2362TIP3   OH231280   6.323   3.676  11.481 -0.1533 -0.4498  0.0736
 2362TIP3    H131281   6.314   3.702  11.389 -0.6683  0.6621  0.4265
 2362TIP3    H231282   6.411   3.638  11.487 -0.6522 -1.8925 -1.1872
 2363TIP3   OH231283   3.778   4.078  11.824  0.1145  0.2524 -0.0312
 2363TIP3    H131284   3.808   4.021  11.753  2.0757  1.6670 -0.4646
 2363TIP3    H231285   3.683   4.072  11.822  0.2161 -1.8429 -0.9827
 2364TIP3   OH231286   7.143   4.554  12.022 -0.2207  0.0365  0.0976
 2364TIP3    H131287   7.187   4.635  12.047 -0.7133  0.3314  0.0353
 2364TIP3    H231288   7.132   4.505  12.104  0.8628 -0.3729  0.0110
 2365TIP3   OH231289   0.727   1.381  11.772 -0.1079 -0.1560 -0.2325
 2365TIP3    H131290   0.666   1.321  11.816  1.5862 -0.4684  1.8081
 2365TIP3    H231291   0.695   1.468  11.796 -0.5241 -0.2907 -0.2822
 2366TIP3   OH231292   2.384   3.770  10.055  0.6256  0.1929  0.6060
 2366TIP3    H131293   2.451   3.702  10.043  1.4617  0.6470  2.3762
 2366TIP3    H231294   2.432   3.852  10.050 -0.3660  0.7136 -1.4295
 2367TIP3   OH231295   0.525   2.205  10.492 -0.0280 -0.4450  0.2298
 2367TIP3    H131296   0.452   2.234  10.547 -0.7263 -0.3660 -0.7009
 2367TIP3    H231297   0.491   2.127  10.447  0.8014 -0.9705  0.5054
 2368TIP3   OH231298   6.265   0.012   9.547 -0.2732  0.2513 -0.0866
 2368TIP3    H131299   6.354   0.028   9.578  0.8040 -2.3593 -1.5144
 2368TIP3    H231300   6.240  -0.071   9.586 -0.6386 -0.8284 -2.4404
 2369TIP3   OH231301   7.377   4.216  12.420 -0.1316 -0.2770  0.3261
 2369TIP3    H131302   7.301   4.189  12.368  0.5196 -0.5223 -0.5130
 2369TIP3    H231303   7.386   4.147  12.486 -1.4961  0.4829  1.3551
 2370TIP3   OH231304   3.176   1.263  12.220  0.2787 -0.4836  0.4437
 2370TIP3    H131305   3.170   1.285  12.127  1.1756 -1.2513  0.1879
 2370TIP3    H231306   3.227   1.182  12.222  0.8744 -0.1008  1.6397
 2371TIP3   OH231307   5.862   0.783  10.066  0.0240  0.7201  0.4264
 2371TIP3    H131308   5.817   0.714  10.114 -1.6884  1.0113 -0.6641
 2371TIP3    H231309   5.954   0.756  10.065 -0.5587 -1.4546  0.1996
 2372TIP3   OH231310   0.810   1.316   9.883  0.0867 -0.4470 -0.1133
 2372TIP3    H131311   0.815   1.401   9.838 -0.0344 -0.2560  0.2333
 2372TIP3    H231312   0.901   1.288   9.893  0.2444  0.5132  1.4209
 2373TIP3   OH231313   0.054   2.826  11.274 -0.1015  0.2419  0.2489
 2373TIP3    H131314   0.148   2.837  11.257  0.3037  1.1361  2.6763
 2373TIP3    H231315   0.021   2.915  11.286 -0.3307 -0.1802  3.4821
 2374TIP3   OH231316   0.368   7.129  11.780 -0.3002 -0.5488 -0.4984
 2374TIP3    H131317   0.438   7.156  11.720 -1.2211  0.6473 -1.0801
 2374TIP3    H231318   0.413   7.110  11.862  0.6497  1.0690 -0.5948
 2375TIP3   OH231319   4.781   6.053  11.407  1.0128 -0.4840 -0.4549
 2375TIP3    H131320   4.719   6.048  11.479  0.6800 -0.6801 -0.7550
 2375TIP3    H231321   4.851   6.110  11.440  0.4041  0.2048 -0.3154
 2376TIP3   OH231322   3.276   1.022  12.196 -0.2912  0.2043  0.1506
 2376TIP3    H131323   3.264   0.992  12.286 -0.8534  1.2459  0.4446
 2376TIP3    H231324   3.269   0.943  12.143 -0.3523 -0.3685  0.9906
 2377TIP3   OH231325   2.671   0.374  11.061 -0.0116  0.4249 -0.2061
 2377TIP3    H131326   2.635   0.458  11.091  0.1516  1.0648 -1.6878
 2377TIP3    H231327   2.700   0.331  11.141 -1.3293  1.1812  0.7368
 2378TIP3   OH231328   2.274   6.587  11.419  0.2453  0.0173  0.1361
 2378TIP3    H131329   2.301   6.661  11.363 -1.2584  0.5339  0.0394
 2378TIP3    H231330   2.216   6.627  11.484  0.0564 -0.9591  0.5750
 2379TIP3   OH231331   6.185   1.318  12.692 -0.1404  0.3046 -0.0039
 2379TIP3    H131332   6.170   1.346  12.783  0.2797 -0.3628  0.2779
 2379TIP3    H231333   6.251   1.379  12.659  2.2128 -1.3843  1.2081
 2380TIP3   OH231334   2.208   6.500  11.926 -0.0633  0.3550 -0.4360
 2380TIP3    H131335   2.206   6.582  11.878 -1.9366 -1.2365 -3.4092
 2380TIP3    H231336   2.241   6.436  11.863 -0.6079 -1.5295  1.0916
 2381TIP3   OH231337   7.278   4.528  11.699  0.1509  0.1234  0.2931
 2381TIP3    H131338   7.342   4.545  11.768  0.0330 -0.6414  0.6064
 2381TIP3    H231339   7.245   4.440  11.719 -0.3519  0.1562 -0.3711
 2382TIP3   OH231340   6.105   5.179  13.048  0.3500 -0.1435  0.4284
 2382TIP3    H131341   6.087   5.086  13.064 -1.7784  0.3297  1.0719
 2382TIP3    H231342   6.167   5.204  13.116 -1.4824 -0.3860  2.2679
 2383TIP3   OH231343   1.300   5.529  11.736  0.7706 -0.4564  0.1261
 2383TIP3    H131344   1.278   5.607  11.686 -1.5762 -1.0312  0.1585
 2383TIP3    H231345   1.304   5.559  11.827 -3.0157 -0.7632  0.5295
 2384TIP3   OH231346   7.124   6.053  11.251 -0.3032 -0.0879 -0.3997
 2384TIP3    H131347   7.207   6.093  11.276  0.7994 -0.6920 -2.7834
 2384TIP3    H231348   7.074   6.124  11.211  0.0537 -0.2259 -1.1024
 2385TIP3   OH231349   6.194   4.735  11.460  0.2189 -0.1031 -0.2145
 2385TIP3    H131350   6.188   4.641  11.472  2.5922 -0.2050  0.7139
 2385TIP3    H231351   6.228   4.747  11.372 -2.1424  0.0499 -1.1923
 2386TIP3   OH231352   2.002   3.386  11.816  0.2561 -0.1629  0.1344
 2386TIP3    H131353   1.970   3.415  11.902 -2.5656 -1.3661 -0.3845
 2386TIP3    H231354   2.035   3.298  11.830  1.2031  0.2021  0.2384
 2387TIP3   OH231355   3.638   6.360  12.998  0.4359 -0.6306  0.0759
 2387TIP3    H131356   3.576   6.345  13.069  0.2555  0.0564  0.0675
 2387TIP3    H231357   3.724   6.341  13.037  0.3081 -0.5692  0.3908
 2388TIP3   OH231358   3.557   7.035  10.604 -0.6660 -0.2485 -0.3097
 2388TIP3    H131359   3.602   6.989  10.533  1.4759 -0.1742  0.9089
 2388TIP3    H231360   3.627   7.057  10.666 -2.2163  1.1605  1.0265
 2389TIP3   OH231361   3.674   6.195  10.070 -0.9270 -0.7419  0.3971
 2389TIP3    H131362   3.586   6.168  10.043 -0.9538  1.1186 -1.5753
 2389TIP3    H231363   3.733   6.140  10.019 -0.9976  1.2486 -2.0153
 2390TIP3   OH231364   6.096   7.523  11.081  0.3059  0.2107 -0.4169
 2390TIP3    H131365   6.144   7.441  11.076  1.1656  0.7911 -2.5618
 2390TIP3    H231366   6.009   7.503  11.046 -0.2197 -0.2242  1.0404
 2391TIP3   OH231367   3.450   4.011  12.420 -0.1038 -0.9759  0.3106
 2391TIP3    H131368   3.375   3.969  12.463 -1.2485 -0.0462 -0.7264
 2391TIP3    H231369   3.443   4.103  12.443 -1.0657 -0.3398 -2.2168
 2392TIP3   OH231370   5.000   2.800  11.018  0.0270  0.2328 -0.4500
 2392TIP3    H131371   5.005   2.831  11.108  0.8036 -2.3537  0.4754
 2392TIP3    H231372   5.074   2.739  11.009 -0.5156 -0.1947 -2.5736
 2393TIP3   OH231373   1.929   4.236  12.440  0.1518  0.5621  0.0901
 2393TIP3    H131374   1.848   4.260  12.394 -0.3648  0.8415  1.0990
 2393TIP3    H231375   1.996   4.234  12.372 -0.8315 -0.3391 -0.8917
 2394TIP3   OH231376   5.935   6.450  10.895 -0.3002  0.1578 -0.1832
 2394TIP3    H131377   5.960   6.536  10.929 -0.5638  0.4397 -0.6910
 2394TIP3    H231378   6.006   6.425  10.836  0.5710 -0.7078  1.1769
 2395TIP3   OH231379   2.148   7.012  10.390  0.2007  0.1515 -0.2866
 2395TIP3    H131380   2.072   7.027  10.333  1.6864  1.2265 -2.1121
 2395TIP3    H231381   2.157   6.917  10.394 -0.1189  0.0459 -1.6439
 2396TIP3   OH231382   6.395   3.656  11.000  0.0499 -0.5912  0.1933
 2396TIP3    H131383   6.382   3.731  10.942  1.3780 -0.4742  0.0034
 2396TIP3    H231384   6.341   3.675  11.076  2.5932  2.1360  1.5409
 2397TIP3   OH231385   4.202   0.814  12.335  0.1962  0.1056  0.0029
 2397TIP3    H131386   4.242   0.784  12.416 -1.1636  1.9157  1.4519
 2397TIP3    H231387   4.226   0.749  12.269  1.5392 -1.2909  1.8017
 2398TIP3   OH231388   4.798   7.473  11.978 -0.3733 -0.2758  0.2526
 2398TIP3    H131389   4.886   7.499  11.952 -1.0300  0.5025 -1.3013
 2398TIP3    H231390   4.793   7.379  11.958  0.5815 -0.7211  1.8548
 2399TIP3   OH231391   3.880   2.017  10.231  0.0253 -1.2766 -0.3235
 2399TIP3    H131392   3.801   2.031  10.179 -0.2465 -0.5316  0.2747
 2399TIP3    H231393   3.920   2.104  10.237  0.6037 -1.5486 -0.1534
 2400TIP3   OH231394   1.258   2.097  11.341 -0.0879 -0.4053  0.3292
 2400TIP3    H131395   1.172   2.058  11.328 -0.8726  1.4563 -0.5139
 2400TIP3    H231396   1.245   2.158  11.413  0.7632 -0.7483  0.7770
 2401TIP3   OH231397   0.058   0.769  10.259  0.4317 -0.3196  0.1636
 2401TIP3    H131398   0.097   0.752  10.345  0.4749 -0.1329  0.1824
 2401TIP3    H231399   0.099   0.704  10.201  1.6925  0.6386 -0.0665
 2402TIP3   OH231400   4.573   5.939  10.858  0.0353  0.2690 -0.2799
 2402TIP3    H131401   4.617   5.881  10.920 -0.0600 -0.2433 -0.6743
 2402TIP3    H231402   4.607   6.026  10.878  1.6928 -0.1711 -0.9451
 2403TIP3   OH231403   2.145   7.093  12.272 -0.0485  0.3355  0.3399
 2403TIP3    H131404   2.053   7.113  12.254  0.2944  0.7005 -1.1255
 2403TIP3    H231405   2.194   7.157  12.221  1.0307  0.0494  0.9835
 2404TIP3   OH231406   4.597   7.363  10.352 -0.1285  0.4197 -0.3506
 2404TIP3    H131407   4.541   7.408  10.288 -1.5791 -0.5997  0.1344
 2404TIP3    H231408   4.626   7.284  10.306  1.0370  0.9990 -0.6366
 2405TIP3   OH231409   4.369   2.832  11.702 -0.1621  0.0538  0.1552
 2405TIP3    H131410   4.454   2.831  11.746 -0.8340  1.7671  1.6187
 2405TIP3    H231411   4.361   2.921  11.668  0.0496 -1.0069 -3.0716
 2406TIP3   OH231412   7.423   0.315  12.645 -0.2111  0.0504 -0.3140
 2406TIP3    H131413   7.510   0.294  12.612 -0.1340 -0.4441  0.1893
 2406TIP3    H231414   7.406   0.249  12.713 -1.2982 -0.3260 -0.9320
 2407TIP3   OH231415   1.662   3.059  12.198 -0.0954 -0.2568 -0.0179
 2407TIP3    H131416   1.622   3.092  12.279 -0.8390 -0.4059 -0.3110
 2407TIP3    H231417   1.590   3.061  12.134  0.9230  1.6547 -1.2034
 2408TIP3   OH231418   5.168   0.984  10.986 -0.0463  0.2106 -0.2881
 2408TIP3    H131419   5.160   0.937  10.903  1.9783  2.3546 -1.8375
 2408TIP3    H231420   5.263   0.997  10.997  0.0727 -2.1379  3.7266
 2409TIP3   OH231421   0.894   2.362  11.945  0.2254 -0.0422 -0.4005
 2409TIP3    H131422   0.908   2.432  12.009 -1.0674  0.8084 -1.0123
 2409TIP3    H231423   0.886   2.283  11.999  1.0681  0.3515  0.3444
 2410TIP3   OH231424   2.909   6.437  11.348 -0.1405 -0.2488 -0.8203
 2410TIP3    H131425   2.878   6.527  11.337 -3.9102 -1.2783 -0.1448
 2410TIP3    H231426   2.862   6.404  11.424 -0.0328 -3.2229 -1.8769
 2411TIP3   OH231427   3.001   0.369  12.720 -0.2400  0.0009  0.3888
 2411TIP3    H131428   3.084   0.359  12.673 -0.3301 -1.3254  0.4745
 2411TIP3    H231429   3.017   0.441  12.781  1.0471 -0.6052  0.8161
 2412TIP3   OH231430   3.194   7.502  10.788 -0.2582 -0.8743  0.5003
 2412TIP3    H131431   3.100   7.482  10.793 -1.0576  1.9745 -0.5933
 2412TIP3    H231432   3.215   7.540  10.873 -0.7319  0.4888  0.0495
 2413TIP3   OH231433   6.959   5.218  11.545 -0.0006 -0.4457  0.2825
 2413TIP3    H131434   6.990   5.271  11.619 -0.7330  1.2260 -0.5632
 2413TIP3    H231435   6.990   5.264  11.467  2.0774 -2.9758 -0.5303
 2414TIP3   OH231436   1.774   1.634  10.431  0.0637 -0.1175 -0.5010
 2414TIP3    H131437   1.831   1.653  10.356 -1.0824  1.9440 -0.9310
 2414TIP3    H231438   1.724   1.557  10.405  0.3908 -0.0272 -1.4502
 2415TIP3   OH231439   5.761   6.316  11.065 -0.0337 -0.0438  0.3146
 2415TIP3    H131440   5.826   6.359  11.010  0.8839 -0.8255  0.7422
 2415TIP3    H231441   5.680   6.318  11.014  0.4303  0.5805 -0.4112
 2416TIP3   OH231442   7.539   1.174  10.052  0.4108 -0.0857 -0.3193
 2416TIP3    H131443   7.453   1.217  10.053  0.2340 -0.4121 -0.7829
 2416TIP3    H231444   7.527   1.096  10.107  1.0586  1.0394  1.4764
 2417TIP3   OH231445   0.158   5.391  10.939  0.0812  0.3516  0.0285
 2417TIP3    H131446   0.129   5.401  11.029  1.8161  0.9470  0.5629
 2417TIP3    H231447   0.174   5.297  10.929 -0.1908  0.2741  0.3188
 2418TIP3   OH231448   6.381   1.286  11.021 -0.6239 -0.2066  0.1673
 2418TIP3    H131449   6.428   1.203  11.008 -0.6000 -0.1028 -0.4157
 2418TIP3    H231450   6.361   1.316  10.933  0.1482  0.8625  0.3446
 2419TIP3   OH231451   1.366   1.283  12.057  0.1009 -0.2645  0.0894
 2419TIP3    H131452   1.440   1.221  12.053 -0.3165 -0.7675  0.0494
 2419TIP3    H231453   1.294   1.236  12.016 -0.1465  0.3721 -0.2085
 2420TIP3   OH231454   6.445   3.222  11.088 -0.1518  0.4615 -1.0107
 2420TIP3    H131455   6.350   3.229  11.097  0.0425  3.2157 -0.3234
 2420TIP3    H231456   6.473   3.180  11.170 -0.6345  1.2092 -0.4512
 2421TIP3   OH231457   6.594   5.294  12.453 -0.4225 -0.4704  0.2846
 2421TIP3    H131458   6.594   5.259  12.364  0.3314 -0.0882  0.1257
 2421TIP3    H231459   6.660   5.243  12.499  0.0642  0.1495  0.2873
 2422TIP3   OH231460   7.242   1.383  10.840 -0.2592  0.1985  0.1089
 2422TIP3    H131461   7.171   1.439  10.806  0.5420  1.3935  0.3392
 2422TIP3    H231462   7.308   1.383  10.770  0.1337  0.2749  0.4750
 2423TIP3   OH231463   6.065   3.934  10.949  0.5407 -0.2951  0.6866
 2423TIP3    H131464   5.996   3.868  10.958  1.1347 -1.1346 -0.6213
 2423TIP3    H231465   6.135   3.904  11.007  0.4947 -0.3735  0.7013
 2424TIP3   OH231466   1.001   7.196  10.843  0.5136  0.1191 -0.3899
 2424TIP3    H131467   1.088   7.205  10.804  0.7257  0.7062  0.2109
 2424TIP3    H231468   0.981   7.283  10.878 -0.2400 -0.0573 -0.3661
 2425TIP3   OH231469   6.235   2.828  11.705 -0.2238 -0.0372  0.0360
 2425TIP3    H131470   6.245   2.886  11.781 -0.3615 -0.9783  0.7910
 2425TIP3    H231471   6.157   2.777  11.724  0.2509 -0.9138 -0.3146
 2426TIP3   OH231472   2.896   3.744  11.729 -0.2229 -0.9188 -0.3182
 2426TIP3    H131473   2.883   3.699  11.646  1.2334  1.5721 -2.0296
 2426TIP3    H231474   2.823   3.805  11.735  1.9872  2.2425 -2.3049
 2427TIP3   OH231475   7.566   2.600  11.768 -0.1647  0.2400 -0.0332
 2427TIP3    H131476   7.616   2.613  11.688  0.8692  0.6768  0.6624
 2427TIP3    H231477   7.500   2.670  11.766  0.3225  0.7009 -0.1505
 2428TIP3   OH231478   1.887   3.757  12.561 -0.3064 -0.0845 -0.1046
 2428TIP3    H131479   1.952   3.818  12.524 -1.5578  2.1328  1.1161
 2428TIP3    H231480   1.909   3.752  12.654 -1.4763  0.2080  0.2050
 2429TIP3   OH231481   4.131   1.695  10.662  0.2256  0.1442 -0.4094
 2429TIP3    H131482   4.212   1.645  10.676  0.9039  1.6244  1.5269
 2429TIP3    H231483   4.137   1.726  10.572  1.1700 -0.8635 -0.7202
 2430TIP3   OH231484   0.574   1.123  12.379  0.6536 -0.1475  0.0693
 2430TIP3    H131485   0.647   1.130  12.441 -0.0608  0.5819  0.8634
 2430TIP3    H231486   0.498   1.102  12.434 -0.0607  0.8401 -0.5028
 2431TIP3   OH231487   2.094   1.232  10.672  0.6413  0.1176  0.2843
 2431TIP3    H131488   2.161   1.265  10.612 -1.7108  1.6879 -1.6884
 2431TIP3    H231489   2.062   1.152  10.630 -0.6211  0.9168 -0.3504
 2432TIP3   OH231490   6.457   4.068  12.624  0.6206  0.6676 -0.1537
 2432TIP3    H131491   6.473   3.986  12.670 -1.4556  0.0083 -0.5092
 2432TIP3    H231492   6.487   4.052  12.535  0.8392  0.5180 -0.0529
 2433TIP3   OH231493   6.001   4.045  11.256  0.6750 -0.1773  0.0458
 2433TIP3    H131494   6.063   3.973  11.244  2.1720  1.2573 -1.1611
 2433TIP3    H231495   6.002   4.092  11.173 -0.3768  1.1895  0.7685
 2434TIP3   OH231496   6.513   4.598  10.208  0.0822 -0.2036  0.0923
 2434TIP3    H131497   6.452   4.670  10.228 -0.9289 -0.7799 -0.7900
 2434TIP3    H231498   6.461   4.519  10.223  0.2245 -0.6915 -1.7775
 2435TIP3   OH231499   3.016   6.050  12.126 -0.1131  0.1463  0.0673
 2435TIP3    H131500   3.069   6.116  12.081  0.4851 -1.1560 -1.2016
 2435TIP3    H231501   2.930   6.057  12.087  0.3141 -0.7425 -1.0758
 2436TIP3   OH231502   1.143   3.365  10.542  0.3895  0.4150 -0.8060
 2436TIP3    H131503   1.091   3.286  10.560  0.4622  0.5679  0.1542
 2436TIP3    H231504   1.078   3.429  10.514 -0.1476  0.9314  1.4427
 2437TIP3   OH231505   5.499   5.099  10.317  0.0142  0.2186  0.8650
 2437TIP3    H131506   5.504   5.011  10.356 -1.5857 -0.5079 -0.4701
 2437TIP3    H231507   5.559   5.096  10.243 -1.7152 -0.5463 -0.5622
 2438TIP3   OH231508   2.096   3.203  10.638  0.4664  0.3480  0.1261
 2438TIP3    H131509   2.075   3.160  10.556  1.8164 -0.2571  0.0710
 2438TIP3    H231510   2.055   3.149  10.706  2.5966 -1.4424  0.1045
 2439TIP3   OH231511   6.206   7.322  12.706 -0.6470 -0.1045  0.0593
 2439TIP3    H131512   6.172   7.294  12.622  0.2607 -0.6226 -0.1496
 2439TIP3    H231513   6.270   7.255  12.730  1.0213  1.3516 -0.0919
 2440TIP3   OH231514   5.168   0.555  12.161  0.0019 -0.1244 -0.6505
 2440TIP3    H131515   5.200   0.534  12.249 -1.0777 -2.2548 -0.6901
 2440TIP3    H231516   5.127   0.641  12.169  1.3677  0.4545  0.5119
 2441TIP3   OH231517   6.361   0.855  11.802 -0.2570  0.3386 -0.8100
 2441TIP3    H131518   6.313   0.805  11.735 -0.8740 -1.1817  0.7084
 2441TIP3    H231519   6.302   0.858  11.877  0.7853  1.2216  0.0103
 2442TIP3   OH231520   5.290   7.642  12.124  0.3051 -0.1669  0.2793
 2442TIP3    H131521   5.287   7.550  12.150  0.8824 -0.7951 -1.6834
 2442TIP3    H231522   5.349   7.644  12.048 -0.5340  1.6435 -0.3905
 2443TIP3   OH231523   1.697   6.976  11.812 -0.4502 -0.1151  0.0185
 2443TIP3    H131524   1.697   7.064  11.774 -1.2128 -0.2647 -0.3694
 2443TIP3    H231525   1.776   6.972  11.865  0.0715  0.4918 -0.6873
 2444TIP3   OH231526   2.190   6.992  12.511 -0.0487  0.2817  0.1846
 2444TIP3    H131527   2.185   7.031  12.424 -1.2942  0.0971  0.1455
 2444TIP3    H231528   2.102   6.957  12.526  0.5737 -1.0454  0.8932
 2445TIP3   OH231529   7.238   0.575  10.773 -0.2687 -0.2050 -0.6886
 2445TIP3    H131530   7.228   0.551  10.865  0.1062 -1.6860 -1.0126
 2445TIP3    H231531   7.148   0.579  10.740 -0.5088  1.8048  0.0570
 2446TIP3   OH231532   3.543   6.137  11.670  0.0392 -0.0184  0.1083
 2446TIP3    H131533   3.506   6.084  11.740 -0.5113 -1.2683 -1.0763
 2446TIP3    H231534   3.616   6.085  11.636  0.9135  1.0106  0.3638
 2447TIP3   OH231535   6.850   7.406  10.511  0.0715 -0.2844  0.0880
 2447TIP3    H131536   6.821   7.391  10.601  0.5819 -2.3854 -0.0450
 2447TIP3    H231537   6.853   7.318  10.472  1.2024  0.4430 -1.5634
 2448TIP3   OH231538   1.455   3.841  11.100 -0.1278  0.2051 -0.6480
 2448TIP3    H131539   1.393   3.851  11.172  2.2919  0.7843  1.5023
 2448TIP3    H231540   1.451   3.748  11.078  0.2876 -0.3514  1.4376
 2449TIP3   OH231541   6.043   6.749  12.765 -0.2715  0.4202  0.2081
 2449TIP3    H131542   5.963   6.797  12.743  0.1992  0.2937 -1.9373
 2449TIP3    H231543   6.071   6.710  12.683  1.2583 -0.6942  1.2120
 2450TIP3   OH231544   2.393   0.684  11.784  0.3246  0.2201  0.9049
 2450TIP3    H131545   2.378   0.601  11.739 -0.1523  0.8287 -0.0878
 2450TIP3    H231546   2.485   0.680  11.811  0.8871  0.1647 -0.8750
 2451TIP3   OH231547   7.324   6.550  12.183  0.2579 -0.4758  0.2670
 2451TIP3    H131548   7.345   6.517  12.096  0.1151 -1.4029  0.5729
 2451TIP3    H231549   7.386   6.621  12.197 -0.2650  0.2476 -0.9241
 2452TIP3   OH231550   4.636   3.603  12.024 -0.5226 -0.1847  0.2297
 2452TIP3    H131551   4.625   3.675  12.086 -0.8313  1.3062 -1.4814
 2452TIP3    H231552   4.725   3.572  12.038 -1.3041 -1.4819  2.9878
 2453TIP3   OH231553   2.654   1.423  12.184 -0.5440  0.0792  0.0659
 2453TIP3    H131554   2.648   1.460  12.272 -0.4728  0.5309 -0.1176
 2453TIP3    H231555   2.747   1.428  12.162 -0.7476  1.3878 -0.6304
 2454TIP3   OH231556   5.050   2.322  10.309  0.2502 -0.6407  0.6416
 2454TIP3    H131557   5.060   2.287  10.221 -1.0851 -2.0215  1.0044
 2454TIP3    H231558   4.965   2.365  10.308  0.3820 -0.3580  1.1704
 2455TIP3   OH231559   6.283   5.287  12.547  0.4170 -0.0293  0.3235
 2455TIP3    H131560   6.331   5.360  12.586 -1.0513  0.7125  0.8179
 2455TIP3    H231561   6.195   5.293  12.585  0.0317 -1.5754 -0.2467
 2456TIP3   OH231562   0.605   1.527   9.803  0.1152  0.7546 -0.6265
 2456TIP3    H131563   0.531   1.581   9.775 -1.4954 -1.3674 -0.7602
 2456TIP3    H231564   0.579   1.493   9.888  1.5297  0.9709 -0.0817
 2457TIP3   OH231565   1.235   5.102  10.793 -0.4557 -0.0223 -0.0354
 2457TIP3    H131566   1.220   5.008  10.788  0.3353 -0.1312 -0.5808
 2457TIP3    H231567   1.162   5.141  10.746 -0.1346 -0.4280 -0.8814
 2458TIP3   OH231568   3.899   2.584  12.562 -0.2674  0.4504  0.4968
 2458TIP3    H131569   3.854   2.500  12.574  0.7574 -0.5286 -1.6900
 2458TIP3    H231570   3.832   2.643  12.529 -0.5018 -0.2815 -0.3913
 2459TIP3   OH231571   4.721   5.529   9.981  0.7535 -0.0091  0.2848
 2459TIP3    H131572   4.783   5.536   9.908  0.1377  1.1536 -0.1423
 2459TIP3    H231573   4.643   5.576   9.951  0.2209 -0.1570  1.4103
 2460TIP3   OH231574   1.406   2.549  12.763 -0.4723  0.0613 -0.2480
 2460TIP3    H131575   1.497   2.520  12.770 -0.6786 -0.9545 -1.4398
 2460TIP3    H231576   1.406   2.613  12.693 -0.3951  1.4494  0.9671
 2461TIP3   OH231577   4.692   2.991  10.738  0.1521  0.1393  0.1884
 2461TIP3    H131578   4.662   3.024  10.823 -0.2505  0.4708 -0.0802
 2461TIP3    H231579   4.765   3.048  10.714 -1.5082  1.9311 -1.0123
 2462TIP3   OH231580   0.419   7.068  11.179  0.0454  0.1913 -0.5477
 2462TIP3    H131581   0.383   6.980  11.187 -0.3554  0.2332 -1.7412
 2462TIP3    H231582   0.342   7.125  11.185  0.1595  0.3964 -1.0322
 2463TIP3   OH231583   0.219   1.370  12.308  0.3149  0.3352 -0.0703
 2463TIP3    H131584   0.206   1.408  12.395  2.5077  0.7967  0.1248
 2463TIP3    H231585   0.156   1.299  12.303 -0.3219  0.7303  1.6366
 2464TIP3   OH231586   2.349   0.971  12.058  0.1288  0.2106  0.2886
 2464TIP3    H131587   2.397   0.901  12.103 -0.4644 -0.9537 -0.8181
 2464TIP3    H231588   2.417   1.032  12.030  0.6660  0.0723  1.2655
 2465TIP3   OH231589   5.672   0.346  11.760  0.2055  0.0352 -0.3275
 2465TIP3    H131590   5.695   0.392  11.680  2.1341  0.3887  0.3747
 2465TIP3    H231591   5.608   0.403  11.803  1.3036  1.2916 -0.2753
 2466TIP3   OH231592   1.570   4.541  11.822 -0.0998  0.1737 -0.0912
 2466TIP3    H131593   1.523   4.593  11.888  0.4688 -1.8148  1.9624
 2466TIP3    H231594   1.557   4.590  11.740 -0.9464  2.6554  1.4280
 2467TIP3   OH231595   1.758   2.094  10.071  0.1359 -0.0365  0.0981
 2467TIP3    H131596   1.755   2.022  10.007  0.4392  0.0666 -0.0346
 2467TIP3    H231597   1.675   2.140  10.058  0.7323  0.7505 -1.1345
 2468TIP3   OH231598   0.531   7.559  12.156 -0.2923  0.2711 -0.7309
 2468TIP3    H131599   0.457   7.581  12.214  0.2451  0.5939 -0.1557
 2468TIP3    H231600   0.516   7.468  12.132 -0.8906  0.3373 -0.6363
 2469TIP3   OH231601   2.881   2.765   9.961 -0.2138  0.5562  0.4658
 2469TIP3    H131602   2.948   2.801   9.904  0.8735 -0.8146  0.8109
 2469TIP3    H231603   2.819   2.722   9.902  0.8039 -0.6926  0.2515
 2470TIP3   OH231604   4.639   1.447  10.475  0.6874 -0.2067  0.4534
 2470TIP3    H131605   4.561   1.503  10.472 -1.0369 -2.5331 -1.0736
 2470TIP3    H231606   4.613   1.373  10.530  1.6119 -1.2990 -0.5316
 2471TIP3   OH231607   5.209   7.252  11.600  0.1553  0.5367  0.2111
 2471TIP3    H131608   5.204   7.312  11.525  1.9106  1.0974  0.4750
 2471TIP3    H231609   5.120   7.248  11.634 -0.6963  0.2036 -1.9389
 2472TIP3   OH231610   0.857   4.444  12.256  0.2949  0.2694 -0.4493
 2472TIP3    H131611   0.933   4.498  12.234 -0.2290  1.5452  0.7334
 2472TIP3    H231612   0.880   4.402  12.339 -0.3480  0.7888 -0.0014
 2473TIP3   OH231613   7.385   6.521  10.758  0.0864  0.3604  0.0071
 2473TIP3    H131614   7.319   6.553  10.819  0.3331  0.4821  0.2129
 2473TIP3    H231615   7.348   6.536  10.671  0.2582  1.3354  0.0937
 2474TIP3   OH231616   7.322   3.086  12.669 -0.4807 -0.0409 -0.4114
 2474TIP3    H131617   7.411   3.098  12.636 -0.0227  1.7264  1.3013
 2474TIP3    H231618   7.326   3.008  12.724 -0.3233 -0.6901 -1.3176
 2475TIP3   OH231619   0.613   0.080  11.681  0.0368  0.1323 -0.6221
 2475TIP3    H131620   0.649   0.022  11.747 -0.1104  0.7078 -0.0201
 2475TIP3    H231621   0.564   0.146  11.731  0.8418  1.2261 -1.2203
 2476TIP3   OH231622   2.642   2.406  12.766  0.5434 -0.1087  0.0097
 2476TIP3    H131623   2.624   2.313  12.759  0.8503 -0.2804  1.2912
 2476TIP3    H231624   2.558   2.446  12.790  0.0198  0.1904 -2.1140
 2477TIP3   OH231625   2.161   5.889  11.043 -0.4376  0.4305 -0.1650
 2477TIP3    H131626   2.193   5.800  11.034  0.4340  0.6300  0.7580
 2477TIP3    H231627   2.179   5.930  10.959 -1.0510 -0.3179 -0.6684
 2478TIP3   OH231628   1.120   1.105  11.515 -0.2670  0.2848  0.4525
 2478TIP3    H131629   1.079   1.109  11.602 -0.8731  0.3589  0.1664
 2478TIP3    H231630   1.060   1.053  11.462  1.0676 -1.5047  0.5939
 2479TIP3   OH231631   0.299   5.513   9.962 -0.1839 -0.4585 -0.1856
 2479TIP3    H131632   0.241   5.587   9.942  2.0065  1.1610 -0.8788
 2479TIP3    H231633   0.385   5.553   9.977  0.9383 -2.8220  0.0674
 2480TIP3   OH231634   2.980   2.335  11.494 -0.4774 -0.8262 -0.0379
 2480TIP3    H131635   2.960   2.349  11.401  0.3141  1.3465  0.0580
 2480TIP3    H231636   2.896   2.312  11.534 -1.4083  0.9055 -0.8685
 2481TIP3   OH231637   4.655   0.787  11.797 -0.4906  0.4463 -0.0183
 2481TIP3    H131638   4.583   0.788  11.860  0.0709 -0.5211  0.6583
 2481TIP3    H231639   4.633   0.715  11.737 -0.2030  0.2792  0.0718
 2482TIP3   OH231640   5.317   6.500  11.233 -0.1711  0.3914  0.1414
 2482TIP3    H131641   5.242   6.546  11.270 -0.0540  0.6337  0.0833
 2482TIP3    H231642   5.378   6.490  11.306  0.5277  1.8389 -0.2117
 2483TIP3   OH231643   4.791   6.145  12.152  0.1462  0.1022 -0.4950
 2483TIP3    H131644   4.801   6.060  12.109  0.1346  0.5001 -1.3029
 2483TIP3    H231645   4.696   6.155  12.164  0.2395 -0.7576  1.1880
 2484TIP3   OH231646   4.762   6.960  11.964  0.2929  0.0907 -0.0449
 2484TIP3    H131647   4.770   6.882  11.909  1.5788  1.4675 -1.9353
 2484TIP3    H231648   4.727   6.927  12.047  2.4172 -2.7776 -0.1270
 2485TIP3   OH231649   0.824   6.781  12.184 -0.2348  0.4372  0.2889
 2485TIP3    H131650   0.891   6.755  12.248 -0.5046 -0.3982  0.2493
 2485TIP3    H231651   0.866   6.771  12.099 -0.4228 -0.1714  0.2593
 2486TIP3   OH231652   3.127   3.082  10.876 -0.3223 -0.4377  0.2795
 2486TIP3    H131653   3.217   3.085  10.843 -0.8855 -0.9167 -1.3801
 2486TIP3    H231654   3.119   2.994  10.913  0.4395  0.2411  2.2164
 2487TIP3   OH231655   7.526   0.957  10.219 -0.5797  0.0099  0.0561
 2487TIP3    H131656   7.452   0.898  10.210 -0.8303  0.3631 -0.2296
 2487TIP3    H231657   7.603   0.900  10.216 -0.7667 -0.2152 -1.3032
 2488TIP3   OH231658   3.232   7.602  11.045  0.2788  0.1991  0.0574
 2488TIP3    H131659   3.324   7.619  11.067  0.6941 -0.6074 -0.9882
 2488TIP3    H231660   3.184   7.673  11.088  1.4020  0.7376  0.4718
 2489TIP3   OH231661   0.034   7.676  11.460  0.3966 -0.1696 -0.0923
 2489TIP3    H131662   0.099   7.674  11.390 -0.4067  2.2010 -0.9780
 2489TIP3    H231663  -0.046   7.640  11.420  0.3509 -0.2754  0.0917
 2490TIP3   OH231664   0.524   4.235  10.145 -0.0301  0.0983  0.1029
 2490TIP3    H131665   0.576   4.242  10.064  1.0627 -1.1212  0.6549
 2490TIP3    H231666   0.545   4.315  10.194  1.8759 -0.6256  0.5802
 2491TIP3   OH231667   6.735   2.065  11.747  0.1823  0.0080 -0.0903
 2491TIP3    H131668   6.719   2.153  11.715 -1.3165 -0.8779 -2.0017
 2491TIP3    H231669   6.665   2.012  11.708  1.3204 -2.1237  0.5784
 2492TIP3   OH231670   6.350   1.870  11.278  0.4702 -0.0368  0.3991
 2492TIP3    H131671   6.444   1.884  11.293  0.3740  0.1295  0.8439
 2492TIP3    H231672   6.343   1.857  11.183  0.9820 -0.3462  0.3981
 2493TIP3   OH231673   5.405   7.472  11.698 -0.2414  0.0027  0.0060
 2493TIP3    H131674   5.324   7.437  11.662 -0.6505  0.4039  0.5185
 2493TIP3    H231675   5.451   7.509  11.622 -1.6669  1.9729  0.0350
 2494TIP3   OH231676   5.385   0.201  11.782 -0.2171  0.2485 -0.2269
 2494TIP3    H131677   5.384   0.270  11.715 -0.4574 -0.7320 -1.2613
 2494TIP3    H231678   5.354   0.245  11.861 -0.3775  1.3358 -0.8634
 2495TIP3   OH231679   3.948   2.985  12.141 -0.0273 -0.1098  0.2110
 2495TIP3    H131680   4.031   2.941  12.159  1.1148  1.8062 -0.1042
 2495TIP3    H231681   3.889   2.915  12.113  2.0812 -1.2717 -1.6419
 2496TIP3   OH231682   2.968   5.064  10.387  0.0906 -0.3932  0.1916
 2496TIP3    H131683   2.980   4.974  10.357 -1.9900 -0.6979  0.0979
 2496TIP3    H231684   3.042   5.112  10.351  0.6160 -1.8437 -0.7336
 2497TIP3   OH231685   1.707   5.746  11.485  0.2819  0.1269  0.4663
 2497TIP3    H131686   1.689   5.670  11.540  2.4679 -1.3831 -0.7358
 2497TIP3    H231687   1.762   5.803  11.539  1.0562 -0.5747  0.4471
 2498TIP3   OH231688   3.231   2.721  12.513 -0.0901 -0.1271 -0.3114
 2498TIP3    H131689   3.304   2.739  12.572 -0.4682  0.4936 -0.0161
 2498TIP3    H231690   3.183   2.650  12.556  0.6743 -0.9717 -0.8197
 2499TIP3   OH231691   0.663   0.662  11.082 -0.2572  0.2564 -0.1789
 2499TIP3    H131692   0.641   0.618  11.164 -1.9143 -0.8061 -1.1386
 2499TIP3    H231693   0.580   0.694  11.048  0.1913 -0.3522 -1.9907
 2500TIP3   OH231694   7.653   4.821  12.004 -0.5670 -0.7847 -0.4091
 2500TIP3    H131695   7.673   4.745  12.058  0.4923 -0.8636 -0.8954
 2500TIP3    H231696   7.675   4.794  11.915 -0.3619  0.0189 -0.6103
 2501TIP3   OH231697   7.259   6.178  11.006  0.1036 -0.5929 -0.8555
 2501TIP3    H131698   7.321   6.249  11.020 -0.9705  0.2496 -0.2095
 2501TIP3    H231699   7.186   6.198  11.064 -0.3321 -2.1117 -0.8364
 2502TIP3   OH231700   2.628   2.316  11.216 -0.2992  0.0060  0.2064
 2502TIP3    H131701   2.685   2.382  11.254  1.6620 -1.2476 -0.4020
 2502TIP3    H231702   2.586   2.361  11.142 -0.0800  0.9544  0.6432
 2503TIP3   OH231703   3.244   2.118  10.496 -0.1865 -0.0536 -0.2876
 2503TIP3    H131704   3.155   2.146  10.476 -0.9260 -1.7060  0.5315
 2503TIP3    H231705   3.300   2.182  10.452 -1.7465  2.2180  0.8295
 2504TIP3   OH231706   2.638   0.750  11.560  0.3268  0.2594 -0.1875
 2504TIP3    H131707   2.641   0.664  11.518 -0.9298  0.5931 -1.0078
 2504TIP3    H231708   2.549   0.781  11.546 -0.1571  0.4448  2.6828
 2505TIP3   OH231709   1.526   3.845  12.521 -0.3916  0.4730 -0.8192
 2505TIP3    H131710   1.594   3.911  12.506 -0.6634  0.3229 -3.0372
 2505TIP3    H231711   1.445   3.894  12.529 -0.2064  0.5773  0.7696
 2506TIP3   OH231712   3.838   2.066  12.685 -0.2348  0.8613  0.1860
 2506TIP3    H131713   3.913   2.044  12.629 -0.9098  0.5315 -0.5924
 2506TIP3    H231714   3.877   2.116  12.757  0.7671  0.5298 -0.1027
 2507TIP3   OH231715   2.612   4.983  12.100 -0.2136 -0.2459 -0.0642
 2507TIP3    H131716   2.635   4.891  12.086  0.9920 -0.1267  1.0002
 2507TIP3    H231717   2.527   4.980  12.145  0.7896 -0.9380  1.8842
 2508TIP3   OH231718   3.101   6.359  10.289 -0.4905 -0.3577 -0.3689
 2508TIP3    H131719   3.069   6.309  10.363  0.7483 -0.5004  0.0816
 2508TIP3    H231720   3.040   6.338  10.218 -2.0863  0.2836  0.7425
 2509TIP3   OH231721   0.906   1.882  12.074  0.1364  0.3239 -1.2145
 2509TIP3    H131722   0.819   1.858  12.108  0.7711 -0.5151 -0.0996
 2509TIP3    H231723   0.921   1.970  12.109  0.5349 -0.2990  0.2747
 2510TIP3   OH231724   3.892   5.577  12.085  0.0517  0.1621 -0.2601
 2510TIP3    H131725   3.926   5.511  12.025 -0.0067 -1.1195  1.0594
 2510TIP3    H231726   3.840   5.527  12.148 -3.0382  1.8105 -1.2366
 2511TIP3   OH231727   5.040   7.027  12.510 -0.1579 -0.0921 -0.5151
 2511TIP3    H131728   5.013   7.096  12.449 -0.6310 -1.2015 -1.5847
 2511TIP3    H231729   5.134   7.016  12.493  0.2073  1.0991  0.5232
 2512TIP3   OH231730   6.466   0.095  10.879  0.1880 -0.1076 -0.6069
 2512TIP3    H131731   6.480   0.161  10.947 -0.2465 -0.4202 -0.2086
 2512TIP3    H231732   6.553   0.058  10.862 -0.0770 -2.0960  1.8909
 2513TIP3   OH231733   4.121   2.923  12.524 -0.0295  0.0057 -0.2428
 2513TIP3    H131734   4.034   2.949  12.495  0.3290  2.0127  0.3509
 2513TIP3    H231735   4.140   2.843  12.475 -3.3264 -2.1649  1.6555
 2514TIP3   OH231736   7.149   5.090  11.135 -0.2838 -0.1543 -0.2774
 2514TIP3    H131737   7.082   5.042  11.087 -1.2905  0.9449 -0.0198
 2514TIP3    H231738   7.176   5.030  11.205  0.8052 -1.5559 -1.8241
 2515TIP3   OH231739   6.840   3.012  11.438 -0.2630 -0.1944 -0.3127
 2515TIP3    H131740   6.754   2.994  11.477 -0.6822 -2.9976 -2.2375
 2515TIP3    H231741   6.902   2.971  11.498 -0.2216  1.6236  0.9559
 2516TIP3   OH231742   6.123   4.958  11.972 -0.4148 -0.2061 -0.5174
 2516TIP3    H131743   6.112   5.011  12.051 -0.0866  0.6540 -1.0271
 2516TIP3    H231744   6.205   4.989  11.934 -0.5650 -0.6115 -1.1831
 2517TIP3   OH231745   3.551   5.700  10.237 -0.1114  1.0048 -0.0079
 2517TIP3    H131746   3.599   5.764  10.184  0.7039  2.4604  2.3138
 2517TIP3    H231747   3.461   5.732  10.237  0.0576  1.4906  0.1729
 2518TIP3   OH231748   2.447   5.750  12.556  0.2872  0.3174 -0.8203
 2518TIP3    H131749   2.481   5.802  12.483  1.0873  0.6306 -0.2389
 2518TIP3    H231750   2.521   5.741  12.616 -0.3663  0.1069 -0.0229
 2519TIP3   OH231751   7.120   0.279  10.732 -0.0047 -0.3768  0.1708
 2519TIP3    H131752   7.206   0.304  10.696 -0.6406 -2.2174 -3.0267
 2519TIP3    H231753   7.068   0.359  10.728  1.0570  0.3488  0.4975
 2520TIP3   OH231754   1.429   3.559  11.155 -0.6720  0.1271 -0.2488
 2520TIP3    H131755   1.394   3.474  11.131 -0.3301 -0.0300 -0.2074
 2520TIP3    H231756   1.355   3.607  11.192 -0.7031 -0.4162  0.3999
 2521TIP3   OH231757   4.354   5.538  10.900 -0.2953 -0.1908  0.2499
 2521TIP3    H131758   4.317   5.624  10.884 -1.0130  0.0886  2.8570
 2521TIP3    H231759   4.314   5.481  10.834 -1.1677  1.1347 -0.3905
 2522TIP3   OH231760   7.046   2.407  12.180 -0.0872  0.0484 -0.1939
 2522TIP3    H131761   6.955   2.411  12.149  0.7220 -0.5519 -2.9605
 2522TIP3    H231762   7.049   2.327  12.232 -0.8474 -0.8052 -1.3866
 2523TIP3   OH231763   1.225   7.638  11.869 -0.2908 -0.4409  0.0888
 2523TIP3    H131764   1.303   7.678  11.831 -0.0562 -0.0338  0.9588
 2523TIP3    H231765   1.197   7.573  11.805 -0.0860  0.4120 -0.8896
 2524TIP3   OH231766   6.038   4.816  12.304  0.0507  0.3363  0.2887
 2524TIP3    H131767   6.094   4.744  12.275 -0.5120  0.3174 -0.8181
 2524TIP3    H231768   6.076   4.845  12.387  1.9945  0.6339 -0.6477
 2525TIP3   OH231769   0.395   5.665  10.996  0.7860  0.1223  0.1102
 2525TIP3    H131770   0.319   5.704  10.954  1.6439  0.4559 -1.2106
 2525TIP3    H231771   0.366   5.644  11.085 -1.0009 -0.2734 -0.5184
 2526TIP3   OH231772   5.914   4.725  11.942 -0.4476 -0.2100 -0.4529
 2526TIP3    H131773   5.992   4.696  11.990 -0.2415  1.1662  0.0874
 2526TIP3    H231774   5.925   4.819  11.933 -2.0087 -0.0035 -0.4504
 2527TIP3   OH231775   7.239   6.605  10.548  0.6325  0.0428 -0.3293
 2527TIP3    H131776   7.268   6.693  10.526 -1.0111  0.2827 -1.6431
 2527TIP3    H231777   7.236   6.558  10.464  1.3746 -1.2528  0.3267
 2528TIP3   OH231778   2.574   4.908  10.798  0.0959 -0.3707  0.4179
 2528TIP3    H131779   2.545   4.957  10.875  1.3159  0.5768  0.2961
 2528TIP3    H231780   2.666   4.931  10.788  0.5395 -2.2063 -0.0396
 2529TIP3   OH231781   2.124   5.202  11.973  0.0362 -0.1251 -0.1340
 2529TIP3    H131782   2.046   5.146  11.970 -0.4923  0.6497 -1.0457
 2529TIP3    H231783   2.191   5.146  12.012 -0.7770 -1.0338  0.0047
 2530TIP3   OH231784   0.611   3.800  12.111 -0.2184 -0.2261 -0.0105
 2530TIP3    H131785   0.601   3.887  12.148 -1.8794 -0.4552  0.1174
 2530TIP3    H231786   0.598   3.812  12.017  1.0263 -0.1281 -0.1938
 2531TIP3   OH231787   1.273   4.070  12.566  0.4498  0.3351 -0.0180
 2531TIP3    H131788   1.248   3.997  12.510 -0.4502  0.3583  0.3443
 2531TIP3    H231789   1.231   4.053  12.650  0.2241  1.2642  0.0711
 2532TIP3   OH231790   3.607   3.100  11.270  0.2176  0.5223  0.3688
 2532TIP3    H131791   3.543   3.103  11.199  1.8685  0.3791 -1.2247
 2532TIP3    H231792   3.667   3.172  11.251  0.4082  0.7994  1.9325
 2533TIP3   OH231793   5.555   7.373  10.829 -0.3446  0.8782 -0.2240
 2533TIP3    H131794   5.552   7.301  10.765  2.7402  0.4400 -0.0277
 2533TIP3    H231795   5.552   7.330  10.914 -0.7409  1.1886 -0.0753
 2534TIP3   OH231796   4.899   7.304  10.458 -0.6908 -0.5533 -0.1175
 2534TIP3    H131797   4.822   7.344  10.418 -1.3206 -1.6702 -0.0475
 2534TIP3    H231798   4.967   7.371  10.450 -1.8510  0.7609  0.4933
 2535TIP3   OH231799   6.582   3.997  10.863  0.2069  0.5846 -0.0688
 2535TIP3    H131800   6.643   3.975  10.792 -0.0990  0.1731 -0.2089
 2535TIP3    H231801   6.631   4.058  10.918  1.4729 -1.1723  0.8678
 2536TIP3   OH231802   1.193   0.195  10.600 -0.6235 -0.0636  0.4749
 2536TIP3    H131803   1.111   0.229  10.565 -0.0705  0.1620 -0.6596
 2536TIP3    H231804   1.194   0.222  10.691 -0.6960  2.0488 -0.1052
 2537TIP3   OH231805   4.365   5.036  11.591  0.0383 -0.7478 -0.8709
 2537TIP3    H131806   4.312   5.111  11.563 -0.3167 -0.8491 -0.4703
 2537TIP3    H231807   4.442   5.040  11.535 -0.0626 -0.1841 -0.9797
 2538TIP3   OH231808   4.230   2.119  11.207  0.4538  0.0683 -0.6974
 2538TIP3    H131809   4.271   2.032  11.206  0.8982  0.2785 -0.7448
 2538TIP3    H231810   4.270   2.165  11.133  2.0726  1.1777  0.8085
 2539TIP3   OH231811   2.882   5.349  10.873  0.5222 -0.5470 -0.2718
 2539TIP3    H131812   2.790   5.364  10.849  0.3584 -0.6735  0.2497
 2539TIP3    H231813   2.923   5.435  10.864 -0.5327  0.5191  3.2216
 2540TIP3   OH231814   2.401   6.063  10.993  0.2982 -0.1712 -0.0490
 2540TIP3    H131815   2.389   5.990  11.054 -1.1561  1.4168  1.6708
 2540TIP3    H231816   2.385   6.024  10.907 -1.2567 -1.7560  0.8733
 2541TIP3   OH231817   1.422   0.474  11.475  0.1231  0.0514  0.1027
 2541TIP3    H131818   1.460   0.554  11.438  1.4507 -0.7919 -0.4311
 2541TIP3    H231819   1.455   0.471  11.565  0.0088  0.1548  0.1477
 2542TIP3   OH231820   5.812   6.849  10.674 -0.2933  0.1237 -0.1528
 2542TIP3    H131821   5.794   6.853  10.581  0.1803  0.1960 -0.2428
 2542TIP3    H231822   5.908   6.843  10.680 -0.3387 -0.1646  0.3160
 2543TIP3   OH231823   7.104   0.639  11.882 -0.3008 -0.6621  0.0165
 2543TIP3    H131824   7.076   0.720  11.840  0.6825 -0.7767 -0.9162
 2543TIP3    H231825   7.043   0.573  11.849 -2.1786 -0.0613  2.0989
 2544TIP3   OH231826   6.533   5.559  12.537  0.2762  0.2621  0.3294
 2544TIP3    H131827   6.568   5.485  12.486  0.9276  0.6652  0.1747
 2544TIP3    H231828   6.516   5.522  12.623 -1.4150 -0.5766 -0.3300
 2545TIP3   OH231829   6.118   4.569  12.942 -0.0117 -0.0385 -0.5060
 2545TIP3    H131830   6.032   4.549  12.980  0.2700  0.2995  0.3349
 2545TIP3    H231831   6.098   4.626  12.867 -0.4701  0.9561  0.3433
 2546TIP3   OH231832   1.430   5.301  10.812  0.2172  0.3645 -0.4556
 2546TIP3    H131833   1.354   5.246  10.829  0.1297  0.1498 -1.5033
 2546TIP3    H231834   1.505   5.247  10.835  0.2527 -1.0480 -3.4771
 2547TIP3   OH231835   5.191   2.801  11.984  0.5503  0.4096  0.4971
 2547TIP3    H131836   5.183   2.715  12.024  1.7722 -0.0035 -0.1039
 2547TIP3    H231837   5.178   2.785  11.890 -2.2086  1.3475  0.6151
 2548TIP3   OH231838   1.748   1.914  11.930  0.4520  0.0991 -0.4741
 2548TIP3    H131839   1.712   1.947  11.848  2.2902  0.1558 -1.2994
 2548TIP3    H231840   1.674   1.916  11.991 -1.5880 -2.1389 -2.6847
 2549TIP3   OH231841   5.167   6.694  13.037 -0.0927  0.1990  0.8109
 2549TIP3    H131842   5.217   6.755  13.092 -1.1161  0.0145  1.9818
 2549TIP3    H231843   5.076   6.721  13.047 -0.5166 -1.1788  0.9249
 2550TIP3   OH231844   1.991   5.139  10.994 -0.4736  0.0605 -0.4533
 2550TIP3    H131845   2.052   5.168  11.061  0.0272  1.1776 -1.3543
 2550TIP3    H231846   1.912   5.191  11.008 -1.4807 -1.7436  1.0337
 2551TIP3   OH231847   5.569   6.038  11.197 -0.1610  0.1199  0.3089
 2551TIP3    H131848   5.510   6.102  11.158  2.5586  3.3262  0.9915
 2551TIP3    H231849   5.562   6.053  11.292 -1.3900 -2.5618  0.7412
 2552TIP3   OH231850   7.546   5.128  11.209  0.0882 -0.0299 -0.2367
 2552TIP3    H131851   7.627   5.119  11.158 -0.1956  1.4218 -0.9912
 2552TIP3    H231852   7.484   5.168  11.148 -0.8586 -0.0853  0.6737
 2553TIP3   OH231853   0.556   3.811  11.850 -0.9418 -0.0626  0.1294
 2553TIP3    H131854   0.518   3.724  11.843  0.8428 -1.0141  1.3893
 2553TIP3    H231855   0.626   3.812  11.785 -1.5977  0.8440 -0.5975
 2554TIP3   OH231856   3.957   1.365  11.989 -0.3689 -0.1581  0.2812
 2554TIP3    H131857   3.909   1.436  12.031 -0.9304 -0.3481 -0.0143
 2554TIP3    H231858   3.921   1.285  12.028  0.5322 -0.2761  0.8958
 2555TIP3   OH231859   0.373   6.482  12.770  0.4219  0.0456 -0.0833
 2555TIP3    H131860   0.343   6.559  12.722  0.3006 -0.7130 -1.2516
 2555TIP3    H231861   0.301   6.462  12.830  0.5102  0.9136  0.3238
 2556TIP3   OH231862   0.517   2.598  11.145  0.1769 -0.5252 -0.2159
 2556TIP3    H131863   0.435   2.577  11.100  0.0773  0.0200 -0.2851
 2556TIP3    H231864   0.499   2.579  11.238 -0.1046 -0.1773 -0.1980
 2557TIP3   OH231865   2.236   6.439  10.866 -0.2918  0.2096 -0.3147
 2557TIP3    H131866   2.283   6.364  10.901  0.0787  0.4099 -0.3806
 2557TIP3    H231867   2.289   6.469  10.793 -0.8806  0.0158 -0.8302
 2558TIP3   OH231868   6.724   5.827  10.411  0.2059 -0.1492  0.0173
 2558TIP3    H131869   6.632   5.805  10.414  0.3040 -0.9753 -1.6990
 2558TIP3    H231870   6.726   5.920  10.388 -0.2402 -0.6142 -2.0696
 2559TIP3   OH231871   6.734   2.566  11.255 -0.4817  0.1803 -0.5877
 2559TIP3    H131872   6.687   2.570  11.338 -0.3361 -1.1717 -0.4236
 2559TIP3    H231873   6.737   2.657  11.225  0.4756  0.8825  1.4441
 2560TIP3   OH231874   3.754   0.146  11.280 -0.1718 -0.2993 -0.3171
 2560TIP3    H131875   3.742   0.185  11.367  1.7400  1.0648 -0.5905
 2560TIP3    H231876   3.683   0.183  11.227 -1.6862 -1.5693  0.7473
 2561TIP3   OH231877   6.732   0.882  12.125 -0.0071 -0.3813 -0.1347
 2561TIP3    H131878   6.669   0.936  12.173  0.6256 -0.2392  0.5554
 2561TIP3    H231879   6.705   0.792  12.143 -0.5287 -0.3157 -0.5584
 2562TIP3   OH231880   6.327   6.587  12.504  0.5525  0.5916 -0.0899
 2562TIP3    H131881   6.350   6.499  12.532 -0.0202  0.4776  0.0366
 2562TIP3    H231882   6.231   6.589  12.506  0.5645  1.3277  0.2681
 2563TIP3   OH231883   4.832   2.054  10.324 -0.0644  0.1261 -0.2491
 2563TIP3    H131884   4.864   2.000  10.396  1.1371  1.4510  0.2670
 2563TIP3    H231885   4.773   2.117  10.366 -0.5630 -0.0517 -0.6704
 2564TIP3   OH231886   4.996   3.725  10.981 -0.5966  0.2663 -0.8640
 2564TIP3    H131887   5.071   3.762  11.027 -0.4650  0.0427 -0.8932
 2564TIP3    H231888   4.920   3.764  11.023 -0.6218 -1.9991  1.4665
 2565TIP3   OH231889   3.222   4.992  12.276  0.0839 -0.1281  0.8600
 2565TIP3    H131890   3.243   4.984  12.183 -1.6700 -1.7648  0.5268
 2565TIP3    H231891   3.213   4.901  12.306  0.2721  0.3739  2.5645
 2566TIP3   OH231892   4.770   2.246  11.347  0.3222  0.4290 -0.9322
 2566TIP3    H131893   4.800   2.250  11.256 -0.5808 -0.5572 -1.2983
 2566TIP3    H231894   4.674   2.247  11.340  0.2406 -0.4773 -0.0401
 2567TIP3   OH231895   3.410   2.560  12.011  0.3639 -0.3421 -0.7375
 2567TIP3    H131896   3.434   2.652  12.020 -1.5770  0.2129 -0.7660
 2567TIP3    H231897   3.354   2.558  11.933 -1.5216 -1.0994  0.5555
 2568TIP3   OH231898   2.032   3.978  12.458  0.3629  0.3577  0.2839
 2568TIP3    H131899   2.119   3.980  12.418 -0.4178  1.0153 -1.5049
 2568TIP3    H231900   2.022   4.065  12.497  0.4543  0.3327  0.3632
 2569TIP3   OH231901   2.056   3.474  11.240  0.6663  0.1114  0.0134
 2569TIP3    H131902   2.127   3.431  11.288 -0.2828 -0.8191  0.6411
 2569TIP3    H231903   2.030   3.547  11.297 -0.9425 -1.4188  1.3564
 2570TIP3   OH231904   0.243   6.162  12.381  0.0217 -0.4654  0.1013
 2570TIP3    H131905   0.247   6.202  12.295  0.5538 -0.3626  0.1676
 2570TIP3    H231906   0.332   6.170  12.415  0.0961 -1.5150  0.2024
 2571TIP3   OH231907   1.058   3.145  12.813 -0.1003  0.5385 -0.6665
 2571TIP3    H131908   0.976   3.165  12.767 -0.1008 -0.0266 -0.9254
 2571TIP3    H231909   1.089   3.229  12.846 -1.2381  0.6478  0.1900
 2572TIP3   OH231910   2.483   1.149  11.530  0.5100  0.1021 -0.3563
 2572TIP3    H131911   2.411   1.089  11.510 -0.2002  0.9660 -0.4262
 2572TIP3    H231912   2.532   1.105  11.600  0.9463 -1.2998 -1.5135
 2573TIP3   OH231913   0.281   3.229  11.977  0.0279 -0.7329  0.5379
 2573TIP3    H131914   0.276   3.323  11.997  0.0069 -0.8102  0.9038
 2573TIP3    H231915   0.259   3.223  11.884  0.8574 -0.2890  0.2997
 2574TIP3   OH231916   5.982   6.755  10.419  0.1643 -0.1366 -0.3532
 2574TIP3    H131917   5.899   6.712  10.398  0.3120 -0.0076 -1.2593
 2574TIP3    H231918   5.995   6.817  10.347  0.4462  0.7146  0.4236
 2575TIP3   OH231919   7.006   3.323  10.715 -0.0078 -0.5796 -0.9119
 2575TIP3    H131920   6.982   3.383  10.785  0.6441  0.3147 -1.4328
 2575TIP3    H231921   6.924   3.278  10.693 -0.2765 -0.6544  0.2113
 2576TIP3   OH231922   2.714   7.428  11.114 -0.6733 -0.0363 -0.0388
 2576TIP3    H131923   2.709   7.524  11.105  0.3687  0.0205 -0.1595
 2576TIP3    H231924   2.623   7.400  11.123 -0.9654  1.0032  0.3647
 2577TIP3   OH231925   1.356   0.383   9.891 -0.6249 -0.0904  0.0468
 2577TIP3    H131926   1.346   0.478   9.895 -0.4660 -0.0625 -0.2338
 2577TIP3    H231927   1.395   0.360   9.976 -0.6890  0.0899  0.1260
 2578TIP3   OH231928   0.158   2.297  10.147  0.0375 -0.1740 -0.5058
 2578TIP3    H131929   0.105   2.376  10.136  0.6945  0.2115 -0.9592
 2578TIP3    H231930   0.178   2.269  10.058 -0.2627 -0.9109 -0.3492
 2579TIP3   OH231931   6.150   5.235  11.120 -0.6551 -0.4817  0.1146
 2579TIP3    H131932   6.150   5.158  11.063 -0.1554 -0.2914 -0.1510
 2579TIP3    H231933   6.185   5.203  11.203 -0.9308 -0.6546  0.1635
 2580TIP3   OH231934   6.185   1.934  10.777 -0.6716  0.2031 -0.1666
 2580TIP3    H131935   6.107   1.965  10.823 -0.0390  0.8952  0.4653
 2580TIP3    H231936   6.254   1.995  10.802  0.0460 -0.3046 -0.8410
 2581TIP3   OH231937   7.016   2.664  10.995  0.1666  0.2225  0.5816
 2581TIP3    H131938   7.022   2.748  11.041 -1.6119 -0.2515  1.7791
 2581TIP3    H231939   7.060   2.679  10.911 -0.7699  2.6047  0.4387
 2582TIP3   OH231940   0.051   5.354  10.041  0.2715  0.2015  0.1056
 2582TIP3    H131941   0.121   5.420  10.041  0.8818 -0.4132  1.3664
 2582TIP3    H231942  -0.029   5.405  10.049  0.7775  0.8187  1.8749
 2583TIP3   OH231943   3.512   7.243  10.168  0.1324  0.0895  0.2077
 2583TIP3    H131944   3.519   7.148  10.182  0.8176  0.2249  0.9145
 2583TIP3    H231945   3.573   7.280  10.232 -1.3059  1.0809  1.0508
 2584TIP3   OH231946   5.762   6.607  10.274 -0.1042  0.0985  0.2650
 2584TIP3    H131947   5.716   6.578  10.195 -0.0794  1.5485 -0.3231
 2584TIP3    H231948   5.767   6.529  10.329  0.9694 -1.2883 -1.6625
 2585TIP3   OH231949   6.568   0.632  11.325  0.2810 -0.0430 -0.3290
 2585TIP3    H131950   6.618   0.639  11.406 -0.7418  1.1241  0.2280
 2585TIP3    H231951   6.480   0.662  11.348 -0.2889 -0.6328 -1.6380
 2586TIP3   OH231952   2.734   2.941  11.946 -0.1146 -0.4473 -0.8673
 2586TIP3    H131953   2.707   3.023  11.986 -1.1605 -1.0645 -0.2595
 2586TIP3    H231954   2.822   2.958  11.914  0.5875  0.2388  1.2640
 2587TIP3   OH231955   6.894   5.770  11.119  0.5970 -0.2713  0.3965
 2587TIP3    H131956   6.844   5.694  11.148  0.2527 -2.0762 -4.1531
 2587TIP3    H231957   6.985   5.749  11.138  0.3149 -0.6922  1.3150
 2588TIP3   OH231958   2.595   7.489  11.455  0.0235 -0.2539  0.1373
 2588TIP3    H131959   2.547   7.444  11.386  1.6873  0.4387 -1.5826
 2588TIP3    H231960   2.684   7.453  11.449  0.4251  0.4972  1.2883
 2589TIP3   OH231961   4.122   5.942  11.704  0.3769 -0.4192  0.2360
 2589TIP3    H131962   4.091   6.011  11.763  0.5754 -0.8308  0.8393
 2589TIP3    H231963   4.187   5.894  11.756 -0.5675 -1.7626  0.2435
 2590TIP3   OH231964   3.115   2.814  10.958 -0.0931 -0.0699  0.0082
 2590TIP3    H131965   3.158   2.752  10.899 -1.6998 -0.2253 -1.0540
 2590TIP3    H231966   3.130   2.777  11.045 -0.2006 -1.4586 -0.5244
 2591TIP3   OH231967   6.769   1.196  12.662  0.3022  0.3375  0.0939
 2591TIP3    H131968   6.836   1.136  12.630  0.5798  0.1607  0.9622
 2591TIP3    H231969   6.716   1.144  12.722 -0.3490  0.5907 -0.2576
 2592TIP3   OH231970   7.544   7.217  12.151 -0.2858 -0.3530 -0.1343
 2592TIP3    H131971   7.538   7.142  12.092  1.2481  1.1893 -2.4335
 2592TIP3    H231972   7.617   7.195  12.210  0.1821 -0.6726 -0.8180
 2593TIP3   OH231973   1.018   6.927  10.022  0.0878 -0.4637  0.1391
 2593TIP3    H131974   1.103   6.970  10.014  0.7314 -1.6975  0.1299
 2593TIP3    H231975   1.039   6.839  10.052 -1.2182 -0.6838  0.4377
 2594TIP3   OH231976   0.763   0.181  12.147 -0.7070 -0.1387  0.4174
 2594TIP3    H131977   0.674   0.212  12.165  0.2022  0.9837  3.6565
 2594TIP3    H231978   0.813   0.260  12.128 -0.2081 -0.6904 -0.7038
 2595TIP3   OH231979   5.119   0.565  11.479 -0.1237  0.3188  0.4856
 2595TIP3    H131980   5.068   0.618  11.541 -1.4321 -2.0517  1.5538
 2595TIP3    H231981   5.053   0.512  11.434  1.2648 -3.7508  2.7487
 2596TIP3   OH231982   7.667   6.040  10.293 -0.5589  0.4251  0.1294
 2596TIP3    H131983   7.760   6.038  10.269 -1.1091 -0.3546 -2.1948
 2596TIP3    H231984   7.655   5.964  10.350  0.6207  1.8037  2.3504
 2597TIP3   OH231985   1.700   3.436  10.816 -0.3031 -1.0087 -0.5191
 2597TIP3    H131986   1.686   3.344  10.835 -0.8711 -0.8389 -0.1208
 2597TIP3    H231987   1.790   3.440  10.782 -0.6244 -1.8490 -1.5088
 2598TIP3   OH231988   7.049   5.353  11.096 -0.0969  0.6480  0.1156
 2598TIP3    H131989   7.053   5.342  11.001 -1.1394  3.1922 -0.2930
 2598TIP3    H231990   7.058   5.264  11.131  1.7648 -0.2110 -2.2791
 2599TIP3   OH231991   6.091   6.918  12.394  0.1826 -0.3333 -0.3411
 2599TIP3    H131992   6.033   6.845  12.415 -0.8537  0.5730  0.0813
 2599TIP3    H231993   6.115   6.954  12.480 -0.6744  0.8227 -0.5568
 2600TIP3   OH231994   7.650   0.416  10.007  0.0333 -0.1567  0.3721
 2600TIP3    H131995   7.642   0.337   9.954 -0.5138  1.2468 -1.7268
 2600TIP3    H231996   7.560   0.439  10.030  0.1260  0.3086  0.2746
 2601TIP3   OH231997   3.705   4.167  10.130  0.8294  0.2446 -0.0622
 2601TIP3    H131998   3.795   4.199  10.126  1.0559 -0.4079 -0.3589
 2601TIP3    H231999   3.690   4.126  10.045 -0.0502  1.1220 -0.3413
 2602TIP3   OH232000   2.112   5.188  11.244  0.2469  0.2577 -0.2759
 2602TIP3    H132001   2.040   5.200  11.306  0.4066  0.1499 -0.0727
 2602TIP3    H232002   2.179   5.140  11.293  0.3194  0.0564 -0.5667
 2603TIP3   OH232003   1.038   5.497  11.606 -0.3907 -0.2718  0.3179
 2603TIP3    H132004   1.124   5.484  11.647 -0.7383  1.8069  1.8416
 2603TIP3    H232005   0.981   5.433  11.647 -0.3030  0.5643  1.7943
 2604TIP3   OH232006   5.824   4.469  11.940  0.0451 -0.5527  0.2445
 2604TIP3    H132007   5.835   4.564  11.936  2.5227 -0.7241  0.9136
 2604TIP3    H232008   5.818   4.441  11.849 -1.7445  0.2833  0.0619
 2605TIP3   OH232009   7.351   3.763  10.346 -0.4634 -0.0744 -0.2863
 2605TIP3    H132010   7.298   3.807  10.280 -1.1820  0.7152  0.7905
 2605TIP3    H232011   7.440   3.767  10.311 -0.8488  0.1799 -1.2784
 2606TIP3   OH232012   4.617   7.564  11.794 -0.1259 -0.1441 -0.4392
 2606TIP3    H132013   4.543   7.511  11.823 -0.7211  0.1695 -1.3691
 2606TIP3    H232014   4.688   7.541  11.855 -0.6026 -1.4152 -0.3356
 2607TIP3   OH232015   3.444   0.106  12.301 -0.5314 -0.4720 -0.5207
 2607TIP3    H132016   3.539   0.119  12.302 -0.7312  1.2329  0.8327
 2607TIP3    H232017   3.432   0.011  12.302  1.1520 -0.6997 -0.3812
 2608TIP3   OH232018   1.892   4.678  10.555  0.3108  0.4078 -0.1375
 2608TIP3    H132019   1.977   4.681  10.511  0.4286 -0.4684  0.0098
 2608TIP3    H232020   1.858   4.590  10.537 -0.9483  1.0240 -0.8935
 2609TIP3   OH232021   4.900   3.594  11.796  0.0440 -0.4456  0.0629
 2609TIP3    H132022   4.991   3.602  11.825 -0.1378  1.0498  0.2793
 2609TIP3    H232023   4.907   3.573  11.703  0.6191 -0.4939  0.1137
 2610TIP3   OH232024   2.440   2.472  10.612 -0.0590  0.1885 -0.1127
 2610TIP3    H132025   2.373   2.540  10.605 -0.1681  0.3655  2.0419
 2610TIP3    H232026   2.397   2.400  10.659  0.9550 -0.1092  0.3950
 2611TIP3   OH232027   4.553   5.504  12.610  0.1053 -0.2227  1.0652
 2611TIP3    H132028   4.598   5.450  12.676 -0.9212  0.9203  2.7526
 2611TIP3    H232029   4.506   5.440  12.556  1.2105 -1.2088  1.2183
 2612TIP3   OH232030   7.219   1.666  12.387 -0.3790  0.3373  0.0141
 2612TIP3    H132031   7.136   1.628  12.359 -0.2777  0.4198 -0.4068
 2612TIP3    H232032   7.246   1.721  12.313 -0.0533  0.4723  0.2335
 2613TIP3   OH232033   7.323   2.408  12.163  0.4011 -0.1804 -0.5534
 2613TIP3    H132034   7.228   2.406  12.169  0.0331 -1.5594 -4.1423
 2613TIP3    H232035   7.351   2.326  12.203 -0.0811 -0.4694 -0.7956
 2614TIP3   OH232036   3.491   3.908  12.712  0.3102  0.1689 -0.3637
 2614TIP3    H132037   3.492   4.003  12.723  0.2962  0.1929 -0.5654
 2614TIP3    H232038   3.412   3.879  12.758 -0.3879  0.3899 -1.3819
 2615TIP3   OH232039   2.095   1.762  11.710 -0.2647 -0.0504  0.4067
 2615TIP3    H132040   2.029   1.725  11.768 -0.2974  0.4638  0.7085
 2615TIP3    H232041   2.121   1.843  11.753 -1.0483  0.8828 -0.7991
 2616TIP3   OH232042   1.541   1.689  11.895 -0.3437 -0.4867  0.5667
 2616TIP3    H132043   1.614   1.627  11.893  0.3099  0.2774 -0.3334
 2616TIP3    H232044   1.550   1.735  11.978 -0.9822 -1.7323  1.3617
 2617TIP3   OH232045   5.736   0.660  10.628  0.6040 -0.3697 -0.1783
 2617TIP3    H132046   5.712   0.726  10.693 -1.7509 -1.8463  0.5417
 2617TIP3    H232047   5.766   0.711  10.553  2.4099  1.4120  1.6146
 2618TIP3   OH232048   1.272   5.789  11.660  0.2247  0.0010  0.4363
 2618TIP3    H132049   1.256   5.798  11.566 -0.0594  1.5257  0.6032
 2618TIP3    H232050   1.324   5.866  11.683  1.7544 -1.2134  1.2426
 2619TIP3   OH232051   7.546   0.284   9.716  0.3506  0.5882  0.8628
 2619TIP3    H132052   7.553   0.245   9.804 -0.5130 -2.4986 -0.2970
 2619TIP3    H232053   7.603   0.230   9.662 -3.1660 -1.1781 -1.4502
 2620TIP3   OH232054   2.992   0.965  11.484  0.0386 -0.2147 -0.0692
 2620TIP3    H132055   3.046   0.896  11.445  1.4001  0.3063  0.8386
 2620TIP3    H232056   2.945   0.923  11.555 -1.7605 -0.9564 -1.6007
 2621TIP3   OH232057   4.481   0.074  10.526  0.3446  0.7609 -0.0913
 2621TIP3    H132058   4.529   0.015  10.584 -0.0971  1.9449  1.5274
 2621TIP3    H232059   4.389   0.046  10.533  0.4668 -0.1188 -1.5177
 2622TIP3   OH232060   0.768   2.160  11.377 -0.5487  0.0614  0.0402
 2622TIP3    H132061   0.795   2.224  11.443 -2.9904 -0.1199  1.3076
 2622TIP3    H232062   0.751   2.080  11.427  0.2030 -0.9219 -1.2155
 2623TIP3   OH232063   2.111   6.685  11.603 -0.1447  0.0400 -0.0269
 2623TIP3    H132064   2.137   6.776  11.595  0.4430 -0.1447 -0.3043
 2623TIP3    H232065   2.079   6.676  11.693 -1.5872  0.8532 -0.4257
 2624TIP3   OH232066   4.611   7.673  12.590 -1.0771 -0.4642 -1.0129
 2624TIP3    H132067   4.610   7.580  12.608 -0.2492 -0.7150 -2.1506
 2624TIP3    H232068   4.669   7.683  12.515 -2.4106  0.7788 -1.9496
 2625TIP3   OH232069   1.495   4.989  12.384  0.2161  0.1769 -0.3546
 2625TIP3    H132070   1.407   4.952  12.375  0.0941  0.9052 -2.7227
 2625TIP3    H232071   1.533   4.982  12.297  1.2130  3.0313 -0.2621
 2626TIP3   OH232072   6.636   0.205  10.614  0.1511 -0.2055  0.5517
 2626TIP3    H132073   6.695   0.133  10.591  0.2474  0.0786 -0.1094
 2626TIP3    H232074   6.671   0.240  10.696 -0.7402 -1.8453  1.7065
 2627TIP3   OH232075   2.375   1.944  11.060  0.0976 -0.1895  0.0336
 2627TIP3    H132076   2.325   1.867  11.085  1.9732 -1.9028 -1.2192
 2627TIP3    H232077   2.467   1.917  11.065  0.8739  2.2554  0.4378
 2628TIP3   OH232078   4.647   4.612  12.192 -0.7112 -0.5799 -0.1212
 2628TIP3    H132079   4.606   4.685  12.238 -4.3725 -1.8545 -1.0098
 2628TIP3    H232080   4.708   4.575  12.254 -1.3349  1.1477  1.6099
 2629TIP3   OH232081   7.597   2.304  11.438 -0.3232 -0.0017  0.1440
 2629TIP3    H132082   7.517   2.316  11.489  0.8871  1.8876  1.7855
 2629TIP3    H232083   7.603   2.384  11.385  1.3851  0.8824  1.5308
 2630TIP3   OH232084   6.307   6.238  12.828  0.5635 -0.8483  0.0673
 2630TIP3    H132085   6.353   6.251  12.911  0.6956 -1.6452  0.1296
 2630TIP3    H232086   6.330   6.314  12.775 -1.1734  0.7610  1.4757
 2631TIP3   OH232087   4.827   2.031  12.126 -0.3249  0.0969  0.4069
 2631TIP3    H132088   4.792   2.118  12.145  0.7384  0.7729 -0.6308
 2631TIP3    H232089   4.851   1.996  12.212 -1.3359  0.5514  0.8956
 2632TIP3   OH232090   6.757   6.109  12.337  0.3459  0.6166 -0.0442
 2632TIP3    H132091   6.737   6.099  12.430 -1.1039  0.0134 -0.3908
 2632TIP3    H232092   6.775   6.202  12.326 -1.8816  1.1715  0.4402
 2633TIP3   OH232093   5.548   0.840  11.099  0.1850  0.0978 -0.4024
 2633TIP3    H132094   5.477   0.786  11.062 -1.1705  1.2137  0.4542
 2633TIP3    H232095   5.582   0.888  11.024 -0.6709  0.3000 -0.6763
 2634TIP3   OH232096   1.118   0.184  11.269  0.2603  0.2185  0.4196
 2634TIP3    H132097   1.032   0.144  11.274  0.0073  0.7132  0.0703
 2634TIP3    H232098   1.158   0.166  11.355 -1.4691  2.8387  1.9139
 2635TIP3   OH232099   0.159   5.022  12.947 -0.1457  0.0236  0.4387
 2635TIP3    H132100   0.082   5.073  12.924 -0.2261 -0.0956  0.4423
 2635TIP3    H232101   0.228   5.087  12.963  0.0162  0.1057 -0.5173
 2636TIP3   OH232102   2.715   0.231  10.826 -0.2941 -0.5509  0.1727
 2636TIP3    H132103   2.724   0.289  10.901 -2.3892 -0.9294  0.7879
 2636TIP3    H232104   2.627   0.248  10.793  0.2545 -1.0357 -1.6743
 2637TIP3   OH232105   0.830   2.714  12.154  0.1870 -0.2563  0.1359
 2637TIP3    H132106   0.809   2.741  12.065 -0.5061 -0.8569  0.1124
 2637TIP3    H232107   0.907   2.658  12.145  1.0979  0.9420  0.0960
 2638TIP3   OH232108   6.412   5.743  11.658  0.4979  0.8266  0.0637
 2638TIP3    H132109   6.500   5.747  11.622  0.9117 -0.2940  0.8810
 2638TIP3    H232110   6.364   5.684  11.600  1.4174 -1.7190  1.7153
 2639TIP3   OH232111   7.340   3.609  12.289 -0.4677 -0.9335 -0.4377
 2639TIP3    H132112   7.293   3.609  12.372  0.6731  0.4062  0.2500
 2639TIP3    H232113   7.289   3.669  12.233  1.1101  1.7363  0.7951
 2640TIP3   OH232114   2.675   4.182  10.695 -0.6033  0.2489 -0.6980
 2640TIP3    H132115   2.608   4.114  10.688 -2.2035  1.8670 -2.0313
 2640TIP3    H232116   2.627   4.262  10.711  1.2115  1.1870  0.4430
 2641TIP3   OH232117   0.982   0.437  11.670 -0.2445  0.6598 -0.5549
 2641TIP3    H132118   0.937   0.361  11.634  0.4789 -0.3204  0.5225
 2641TIP3    H232119   1.036   0.470  11.598  0.9901 -1.1064 -0.5038
 2642TIP3   OH232120   5.051   3.743  11.608 -0.2351  0.5188  0.4723
 2642TIP3    H132121   5.042   3.827  11.565  0.2739  0.6055  0.5244
 2642TIP3    H232122   5.062   3.680  11.537 -0.1417  0.5595  0.4516
 2643TIP3   OH232123   2.336   6.770  12.289 -0.4194 -0.2079 -0.0415
 2643TIP3    H132124   2.242   6.779  12.306 -0.1459  0.5737  1.1159
 2643TIP3    H232125   2.378   6.778  12.374  0.8136  0.9774 -0.7141
 2644TIP3   OH232126   1.748   0.114  10.178  0.0560  0.3975 -0.3328
 2644TIP3    H132127   1.679   0.102  10.112  1.2928  1.1639 -1.8131
 2644TIP3    H232128   1.796   0.031  10.177 -0.6803 -0.0668  0.5655
 2645TIP3   OH232129   6.160   5.631  12.671 -0.4719  1.1516  0.5028
 2645TIP3    H132130   6.219   5.643  12.597  1.5904  2.5449  2.2355
 2645TIP3    H232131   6.083   5.684  12.650  0.6341  2.5711 -0.1197
 2646TIP3   OH232132   3.283   2.582  11.444 -0.1573  0.6779  0.0950
 2646TIP3    H132133   3.190   2.601  11.460  0.0006  0.6844  1.0932
 2646TIP3    H232134   3.284   2.490  11.415 -0.4589  0.6152  0.2751
 2647TIP3   OH232135   0.187   6.427  10.888  0.4962  0.0734  0.3490
 2647TIP3    H132136   0.171   6.336  10.913 -1.2457  0.5046  0.8854
 2647TIP3    H232137   0.172   6.477  10.968 -0.5939  1.0132 -0.4134
 2648TIP3   OH232138   6.389   2.895  11.182  0.3878 -0.4086 -0.1229
 2648TIP3    H132139   6.393   2.839  11.259  0.5638 -0.5913 -0.2645
 2648TIP3    H232140   6.336   2.969  11.210 -0.4149 -0.9618 -0.1302
 2649TIP3   OH232141   1.863   7.299  12.352 -0.4639  0.7695 -0.3721
 2649TIP3    H132142   1.793   7.361  12.367 -1.3730  0.1679 -1.9371
 2649TIP3    H232143   1.859   7.279  12.259  0.2063 -1.1284 -0.0508
 2650TIP3   OH232144   1.374   1.528  11.471 -0.4488 -0.3942  0.0070
 2650TIP3    H132145   1.316   1.458  11.440 -1.2948  0.2763  0.0169
 2650TIP3    H232146   1.405   1.571  11.391 -0.3317 -0.4609  0.0156
 2651TIP3   OH232147   6.818   4.975  11.400  0.5305 -0.3688 -0.4443
 2651TIP3    H132148   6.856   4.899  11.445  0.5505  0.0519  0.2740
 2651TIP3    H232149   6.876   5.047  11.423  0.2297 -0.0385 -0.7145
 2652TIP3   OH232150   4.924   7.265  12.365  0.3803 -0.0564  0.1426
 2652TIP3    H132151   4.956   7.237  12.279  1.9995  0.6681  0.4676
 2652TIP3    H232152   4.829   7.266  12.356  0.4781 -0.9212 -1.3420
 2653TIP3   OH232153   4.049   4.703  11.882  0.4564 -0.0808  0.4549
 2653TIP3    H132154   4.058   4.716  11.787 -1.1854 -0.7291  0.1787
 2653TIP3    H232155   4.113   4.635  11.903  0.9516  0.1867 -0.1358
 2654TIP3   OH232156   6.696   1.146  11.107  0.6807 -0.5654 -0.1157
 2654TIP3    H132157   6.638   1.095  11.051  0.2180  0.4360 -0.5740
 2654TIP3    H232158   6.652   1.148  11.192 -0.6562  1.2749 -0.7949
 2655TIP3   OH232159   4.386   2.484  10.959  0.4626  0.3081  0.4226
 2655TIP3    H132160   4.354   2.504  10.871  2.2672  1.3071 -0.0577
 2655TIP3    H232161   4.377   2.566  11.007  0.6628  0.1219  0.7870
 2656TIP3   OH232162   4.207   0.465  10.320  0.1375 -0.1085  0.0701
 2656TIP3    H132163   4.196   0.534  10.254 -2.7274 -0.8158 -0.3134
 2656TIP3    H232164   4.187   0.384  10.274 -2.1063 -0.6099  1.7322
 2657TIP3   OH232165   1.541   0.741  11.379  0.0243  0.5416  0.4806
 2657TIP3    H132166   1.616   0.747  11.438  0.2083 -0.5000  0.3790
 2657TIP3    H232167   1.504   0.829  11.377 -0.5181  0.4207  2.8207
 2658TIP3   OH232168   2.202   5.409  10.835 -0.4682  0.0616 -0.0899
 2658TIP3    H132169   2.276   5.457  10.798 -0.1737  0.0242  0.4429
 2658TIP3    H232170   2.241   5.352  10.902 -1.1468  1.2878  1.4288
 2659TIP3   OH232171   2.613   6.300  12.186 -0.1432  0.3560  0.7394
 2659TIP3    H132172   2.530   6.252  12.178 -0.9598  1.7920  0.0873
 2659TIP3    H232173   2.605   6.371  12.122  0.4379  2.1405  2.5267
 2660TIP3   OH232174   1.366   7.650  12.664 -0.6298 -0.5696 -0.3536
 2660TIP3    H132175   1.330   7.562  12.651 -1.4406 -0.3018  0.0134
 2660TIP3    H232176   1.311   7.707  12.611 -0.4044 -0.2214 -0.2179
 2661TIP3   OH232177   3.682   7.540  11.211 -0.6655 -0.1235 -0.6437
 2661TIP3    H132178   3.627   7.554  11.134 -1.6013  0.0478  0.0310
 2661TIP3    H232179   3.677   7.623  11.258 -0.1137 -0.2323 -0.3885
 2662TIP3   OH232180   6.366   4.045  11.466  0.0853  0.2907 -0.0816
 2662TIP3    H132181   6.319   4.129  11.467 -2.5578 -1.1052 -0.1984
 2662TIP3    H232182   6.312   3.987  11.414  2.1934 -1.3735 -0.5743
 2663TIP3   OH232183   2.434   1.583  11.681 -0.2795 -0.0597 -0.5597
 2663TIP3    H132184   2.397   1.590  11.769  0.0558 -0.1872 -0.4061
 2663TIP3    H232185   2.498   1.512  11.688  1.3664  1.3641 -0.3305
 2664TIP3   OH232186   3.706   3.662  11.826  0.2162  0.7168 -0.2986
 2664TIP3    H132187   3.617   3.679  11.795  0.0957 -0.1073 -0.4329
 2664TIP3    H232188   3.725   3.734  11.887 -0.9951  0.2653  0.6547
 2665TIP3   OH232189   5.098   2.309  11.996 -0.9942 -0.4238 -0.3237
 2665TIP3    H132190   5.134   2.259  11.923 -3.0694 -2.0708 -0.3028
 2665TIP3    H232191   5.015   2.342  11.964 -2.2732 -1.7449  1.4416
 2666TIP3   OH232192   1.358   1.536  12.178  0.3128  0.1193 -0.0687
 2666TIP3    H132193   1.325   1.583  12.101  1.9991 -0.7369 -1.3811
 2666TIP3    H232194   1.357   1.444  12.151  2.9926 -0.0096  0.0662
 2667TIP3   OH232195   7.317   0.535  11.718 -0.0445 -0.4057  0.1886
 2667TIP3    H132196   7.401   0.491  11.736 -0.4211 -0.9664  0.6205
 2667TIP3    H232197   7.277   0.544  11.804 -0.6115 -0.5058 -0.0649
 2668TIP3   OH232198   3.759   0.283  11.522 -0.8479 -0.1179  0.1853
 2668TIP3    H132199   3.711   0.258  11.601 -1.7784 -0.2138 -0.3964
 2668TIP3    H232200   3.732   0.374  11.506 -0.7005 -0.1184 -0.0547
 2669TIP3   OH232201   4.529   0.771  12.411 -0.4687 -0.5605 -0.4215
 2669TIP3    H132202   4.527   0.697  12.350 -2.4198 -0.4498 -0.5545
 2669TIP3    H232203   4.480   0.741  12.488 -2.6744  1.0411 -1.0980
 2670TIP3   OH232204   4.804   6.427  12.169 -0.4194 -0.3342  0.2097
 2670TIP3    H132205   4.716   6.393  12.155 -1.0671  1.1846  0.3584
 2670TIP3    H232206   4.857   6.385  12.102 -1.1033 -1.7979  0.5557
 2671TIP3   OH232207   2.076   2.438  10.816  0.5495 -0.5665 -0.2030
 2671TIP3    H132208   2.006   2.504  10.818  0.5575 -0.5712  1.3179
 2671TIP3    H232209   2.032   2.359  10.784  0.2783 -0.1188 -0.9611
 2672TIP3   OH232210   6.719   2.845  11.237 -0.0021  0.0296  0.2587
 2672TIP3    H132211   6.681   2.883  11.157  2.6661 -1.0836 -1.6943
 2672TIP3    H232212   6.754   2.921  11.284 -0.3850  0.5903 -0.3365
 2673TIP3   OH232213   2.477   7.233  11.826 -0.1513 -0.0722 -0.2746
 2673TIP3    H132214   2.396   7.261  11.868  0.0809 -0.3313  0.3662
 2673TIP3    H232215   2.546   7.282  11.871  0.0946 -0.2535 -0.4483
 2674TIP3   OH232216   1.665   5.288  11.522  0.1278  0.4857 -0.0147
 2674TIP3    H132217   1.722   5.365  11.511  0.8867  0.0093  0.5150
 2674TIP3    H232218   1.577   5.322  11.508  0.5874  1.0341 -1.9480
 2675TIP3   OH232219   0.459   3.979  12.915  0.2736 -0.3002  0.0892
 2675TIP3    H132220   0.452   4.069  12.947 -2.2908 -0.6852  0.8038
 2675TIP3    H232221   0.488   3.928  12.990  0.6185 -0.2558 -0.0110
 2676TIP3   OH232222   4.256   7.289  11.608 -0.5315 -0.6116  0.1760
 2676TIP3    H132223   4.257   7.194  11.615 -1.9165 -0.9044 -2.5051
 2676TIP3    H232224   4.169   7.315  11.639 -0.0902 -0.1436  1.0912
 2677TIP3   OH232225   7.638   1.247  12.252  0.2977 -0.1705  0.5467
 2677TIP3    H132226   7.612   1.275  12.340  2.4674  0.4088  1.0768
 2677TIP3    H232227   7.589   1.166  12.237 -0.6281  0.0810  1.9933
 2678TIP3   OH232228   6.673   6.807  10.444  0.2308  0.3893  0.0421
 2678TIP3    H132229   6.632   6.874  10.390 -0.5981  0.0793  0.2809
 2678TIP3    H232230   6.671   6.843  10.533 -1.3669 -0.4650  0.3791
 2679TIP3   OH232231   6.168   7.554  10.643  0.3715  0.2762  0.4748
 2679TIP3    H132232   6.222   7.583  10.715 -0.3502  1.9621  0.3843
 2679TIP3    H232233   6.194   7.610  10.569  0.2695 -0.6115 -0.2531
 2680TIP3   OH232234   2.595   2.135  12.705  0.2787 -0.0441  0.1430
 2680TIP3    H132235   2.670   2.076  12.701 -0.7945 -1.5361  1.0951
 2680TIP3    H232236   2.564   2.140  12.614  0.5263 -0.7620  0.0098
 2681TIP3   OH232237   3.235   2.094  12.334 -0.1054  0.2318  0.0517
 2681TIP3    H132238   3.196   2.070  12.250  1.6978  0.2932 -0.8653
 2681TIP3    H232239   3.280   2.014  12.363  1.0257  0.7830 -0.1135
 2682TIP3   OH232240   1.907   2.843  11.002  0.2652 -0.3026  0.2038
 2682TIP3    H132241   1.870   2.755  10.999 -0.3064 -0.2468  2.9502
 2682TIP3    H232242   1.894   2.872  11.092  0.9570  2.3960 -0.4543
 2683TIP3   OH232243   2.955   0.034  10.077 -0.3823 -0.0768 -0.0742
 2683TIP3    H132244   3.032  -0.006  10.118 -0.4378 -1.3975 -1.1830
 2683TIP3    H232245   2.923  -0.033  10.016 -2.1226  0.6411  0.0064
 2684TIP3   OH232246   5.502   7.171  10.647 -0.0299  0.3527  0.4516
 2684TIP3    H132247   5.501   7.083  10.685  1.2618  0.1392  0.0269
 2684TIP3    H232248   5.421   7.176  10.597  0.2049 -0.8504 -0.0827
 2685TIP3   OH232249   1.756   6.152  12.508  0.0603  0.0711  0.7003
 2685TIP3    H132250   1.705   6.225  12.472 -0.4751 -0.6686 -0.0514
 2685TIP3    H232251   1.847   6.176  12.489  0.0259  1.3118  1.8994
 2686TIP3   OH232252   4.439   3.865  11.877  0.1547  0.2852 -0.3801
 2686TIP3    H132253   4.364   3.860  11.818  0.3584  0.4560 -0.6539
 2686TIP3    H232254   4.460   3.958  11.881 -0.5214  0.4060  0.8011
 2687TIP3   OH232255   7.582   1.540  12.607 -0.6198  0.0370 -0.0069
 2687TIP3    H132256   7.509   1.596  12.632 -0.6180  0.0368 -0.0011
 2687TIP3    H232257   7.544   1.477  12.546 -0.7360 -0.3031  0.4141
 2688TIP3   OH232258   2.070   0.389  11.734 -0.2585 -0.1261 -0.2156
 2688TIP3    H132259   2.028   0.465  11.773  0.6499  1.1350 -1.5905
 2688TIP3    H232260   2.042   0.315  11.788 -2.4470  0.9482  0.1889
 2689TIP3   OH232261   3.958   0.477  10.073  0.1508 -0.4007  0.1851
 2689TIP3    H132262   3.865   0.455  10.059  0.2967 -0.2259 -1.1585
 2689TIP3    H232263   3.998   0.394  10.099 -0.3119 -0.5482  0.4483
 2690TIP3   OH232264   6.864   6.356  11.850 -0.5560  0.1743  0.2537
 2690TIP3    H132265   6.912   6.297  11.793  0.2529  0.0515  1.0323
 2690TIP3    H232266   6.786   6.306  11.876 -0.7215  0.0847 -0.4037
 2691TIP3   OH232267   6.973   4.033  12.635 -0.1083 -0.2212 -0.7958
 2691TIP3    H132268   7.030   4.108  12.654 -1.3789  0.4869  0.4140
 2691TIP3    H232269   7.013   3.960  12.683 -0.0451  0.1999 -0.1916
 2692TIP3   OH232270   4.009   5.980  11.446  0.0536 -0.7126 -0.2523
 2692TIP3    H132271   4.070   5.955  11.515  0.4161  1.0878  0.1285
 2692TIP3    H232272   4.060   6.037  11.388 -1.4752  1.6845  0.6427
 2693TIP3   OH232273   5.744   1.358  10.882  0.0787 -0.4373 -0.2328
 2693TIP3    H132274   5.758   1.365  10.788  0.3617  1.3197 -0.0939
 2693TIP3    H232275   5.750   1.264  10.900 -0.5415 -0.8765 -2.0319
 2694TIP3   OH232276   6.316   6.161  11.899  0.8925 -0.9124  0.0673
 2694TIP3    H132277   6.291   6.124  11.983 -1.7150  0.6918  0.1305
 2694TIP3    H232278   6.242   6.142  11.841  1.2378  0.6800 -0.9753
 2695TIP3   OH232279   3.199   5.311  10.677  0.1881 -0.3502 -0.4488
 2695TIP3    H132280   3.258   5.346  10.611 -2.1957  1.0824 -1.9726
 2695TIP3    H232281   3.157   5.388  10.716  0.9207 -1.1975  2.2525
 2696TIP3   OH232282   7.381   7.657  12.413  0.5622  0.3908 -0.3889
 2696TIP3    H132283   7.426   7.573  12.424  1.5397  1.1835  2.4482
 2696TIP3    H232284   7.450   7.718  12.390 -0.2255  0.4147 -2.9874
 2697TIP3   OH232285   4.844   6.966  12.287 -0.0547 -0.8038 -0.2408
 2697TIP3    H132286   4.911   6.983  12.353  0.5357 -1.0198 -0.7832
 2697TIP3    H232287   4.840   6.870  12.281  0.0101 -0.7828 -0.6357
 2698TIP3   OH232288   7.539   0.147   9.937 -0.2452 -0.0090 -0.0549
 2698TIP3    H132289   7.576   0.064   9.966 -0.9021 -0.8227 -1.4549
 2698TIP3    H232290   7.445   0.138   9.952 -0.2414  0.8266  0.5713
 2699TIP3   OH232291   6.265   4.613  11.761  0.2546  0.7352  1.1458
 2699TIP3    H132292   6.345   4.569  11.792  0.4323 -0.9390 -1.3148
 2699TIP3    H232293   6.298   4.686  11.708  0.4624 -1.4034 -1.9831
 2700TIP3   OH232294   2.708   4.724  12.283 -0.3673  0.7267  0.8952
 2700TIP3    H132295   2.750   4.798  12.329 -0.4919  2.5777 -1.7647
 2700TIP3    H232296   2.730   4.648  12.337  6.2639  1.4436  0.0326
 2701TIP3   OH232297   5.761   6.350  13.006 -0.3064 -0.4782 -0.0141
 2701TIP3    H132298   5.693   6.343  13.073 -1.2762  1.6428 -0.6845
 2701TIP3    H232299   5.719   6.399  12.934  1.8357  0.6952 -0.5533
 2702TIP3   OH232300   1.178   4.586  11.570  0.7830  0.2575  0.0485
 2702TIP3    H132301   1.172   4.508  11.624  0.0056  0.2886  0.0096
 2702TIP3    H232302   1.242   4.563  11.502  1.1909 -0.0443  0.5288
 2703TIP3   OH232303   7.285   3.287  11.701 -0.5788  0.4651  0.5597
 2703TIP3    H132304   7.304   3.197  11.677 -0.3376  0.5088  0.5878
 2703TIP3    H232305   7.352   3.310  11.765  0.3201  1.1635 -0.5888
 2704TIP3   OH232306   3.029   2.450  11.743  0.1287  0.2493  0.8347
 2704TIP3    H132307   2.958   2.513  11.759  0.7835  1.1305  0.3769
 2704TIP3    H232308   3.002   2.402  11.665  1.0276  2.1420 -0.7229
 2705TIP3   OH232309   3.318   1.638  11.110 -0.5073  0.5686 -0.3563
 2705TIP3    H132310   3.334   1.709  11.172 -0.0396  0.0619  0.1052
 2705TIP3    H232311   3.295   1.563  11.164 -2.2234  0.6563 -0.8800
 2706TIP3   OH232312   2.637   2.060  11.662  0.1938  0.0812 -0.4211
 2706TIP3    H132313   2.577   2.062  11.588 -0.9594 -0.9911  0.4407
 2706TIP3    H232314   2.607   1.987  11.716  1.6262  0.1884  0.5987
 2707TIP3   OH232315   3.981   5.144  11.142 -0.1537 -0.4195 -0.9622
 2707TIP3    H132316   4.069   5.179  11.126  0.6672 -1.4483  0.9041
 2707TIP3    H232317   3.992   5.049  11.138 -1.0710 -0.5761 -0.2708
 2708TIP3   OH232318   5.015   5.760  11.754 -0.1096  0.3139 -0.4185
 2708TIP3    H132319   4.933   5.771  11.706 -0.2061 -1.1289 -0.6400
 2708TIP3    H232320   5.069   5.705  11.697  0.1544 -0.5952  0.6810
 2709TIP3   OH232321   0.729   3.285  12.014 -0.7366  0.8107  0.0106
 2709TIP3    H132322   0.655   3.224  12.019  1.8746 -2.5495  2.4073
 2709TIP3    H232323   0.725   3.335  12.095  0.1954 -0.2354  0.7289
 2710TIP3   OH232324   7.515   6.310  12.156 -0.2920  0.1401  0.5082
 2710TIP3    H132325   7.548   6.275  12.239 -1.4206  1.2381  1.4567
 2710TIP3    H232326   7.540   6.403  12.158 -1.0907  0.3753  0.0319
 2711TIP3   OH232327   1.712   1.044  11.483  0.1213  0.6229  0.0042
 2711TIP3    H132328   1.795   1.089  11.497 -0.2821  1.8525 -1.2347
 2711TIP3    H232329   1.713   1.019  11.391  0.5413 -2.4944  0.7612
 2712TIP3   OH232330   4.208   4.824  11.465  0.5133  0.7732 -0.0786
 2712TIP3    H132331   4.239   4.841  11.376  0.3932  2.6283  0.2045
 2712TIP3    H232332   4.255   4.887  11.519  0.1893  0.0182  1.1179
 2713TIP3   OH232333   2.321   1.572  11.934  0.2497 -0.1996 -0.1256
 2713TIP3    H132334   2.271   1.637  11.983 -1.8405 -1.4319 -0.4799
 2713TIP3    H232335   2.321   1.495  11.991 -0.8478 -1.1406 -1.3348
 2714TIP3   OH232336   2.772   3.298  11.416 -0.5418 -0.2825 -0.7247
 2714TIP3    H132337   2.807   3.222  11.370  0.7729  1.2247 -2.3631
 2714TIP3    H232338   2.755   3.362  11.347  1.1324  1.9406  0.7641
 2715TIP3   OH232339   3.104   0.567  12.058 -0.1298  0.2554 -0.4727
 2715TIP3    H132340   3.118   0.504  11.987  0.7075 -1.2503  0.9421
 2715TIP3    H232341   3.098   0.513  12.137 -2.0628  1.7730  0.5305
 2716TIP3   OH232342   0.046   2.742  11.994  0.2356  0.4086 -0.0909
 2716TIP3    H132343   0.038   2.666  11.937  1.4520  1.0343 -1.1182
 2716TIP3    H232344   0.021   2.709  12.081 -2.0219 -0.4649 -0.9970
 2717TIP3   OH232345   5.872   2.973  12.248 -0.1421 -0.3309 -0.4789
 2717TIP3    H132346   5.959   2.935  12.245 -0.5362 -1.4698  1.2536
 2717TIP3    H232347   5.875   3.045  12.185  2.6233  0.9119  0.9271
 2718TIP3   OH232348   3.387   5.944  10.464 -0.2235 -0.8471 -0.0567
 2718TIP3    H132349   3.374   5.997  10.385  1.2095 -0.1911  0.1205
 2718TIP3    H232350   3.303   5.899  10.476 -2.2389  2.7061  0.7565
 2719TIP3   OH232351   5.835   3.410  10.612  0.6749  0.0157  0.1386
 2719TIP3    H132352   5.766   3.349  10.639 -0.6473  2.0913  1.7903
 2719TIP3    H232353   5.837   3.403  10.517  0.5031 -2.4541  0.2480
 2720TIP3   OH232354   4.954   6.177  10.914  0.1023  0.2773 -0.2594
 2720TIP3    H132355   4.926   6.192  11.005 -0.1626 -0.4042 -0.2211
 2720TIP3    H232356   4.895   6.231  10.862 -0.8744 -0.6301 -0.1287
 2721TIP3   OH232357   2.354   1.434  12.386  0.1995  0.0498 -0.0635
 2721TIP3    H132358   2.356   1.338  12.389 -2.3443 -0.0788  0.2898
 2721TIP3    H232359   2.313   1.455  12.302  2.4077  0.9416 -0.9693
 2722TIP3   OH232360   1.964   7.206  10.774  0.2472 -0.9599 -0.0297
 2722TIP3    H132361   2.024   7.280  10.787  1.6715 -1.7965 -1.5643
 2722TIP3    H232362   1.922   7.224  10.690 -1.9205 -0.2714  1.1190
 2723TIP3   OH232363   4.811   6.818  11.356  0.1618 -0.2187 -0.5180
 2723TIP3    H132364   4.734   6.772  11.324 -0.9164  1.4942 -0.5192
 2723TIP3    H232365   4.796   6.910  11.333  0.2736  0.8199  2.9566
 2724TIP3   OH232366   1.032   2.360   9.540 -0.5316  0.3322  0.1044
 2724TIP3    H132367   1.018   2.304   9.465  0.4631 -0.4252  0.4675
 2724TIP3    H232368   0.944   2.379   9.573 -0.9711  0.6241 -1.1899
 2725TIP3   OH232369   2.611   6.485  10.434 -0.0560  0.6914 -0.0826
 2725TIP3    H132370   2.555   6.541  10.380 -1.5144  0.4632  1.1213
 2725TIP3    H232371   2.688   6.538  10.452  0.5332  0.7191 -2.4678
 2726TIP3   OH232372   3.416   0.013  12.976 -0.1487  0.4510  0.4180
 2726TIP3    H132373   3.384   0.083  12.918 -0.0949  0.1567  0.0256
 2726TIP3    H232374   3.511   0.014  12.965 -0.1893 -0.0568 -0.0316
 2727TIP3   OH232375   3.778   6.537  11.563  0.0570 -0.1323  0.0819
 2727TIP3    H132376   3.705   6.492  11.605  0.4342 -1.1068 -0.2806
 2727TIP3    H232377   3.854   6.516  11.618  0.8300 -2.6120 -1.7806
 2728TIP3   OH232378   5.024   0.088  11.781 -0.3843  0.2628  0.0768
 2728TIP3    H132379   5.032   0.003  11.825 -2.1486  0.2386  0.4464
 2728TIP3    H232380   5.072   0.149  11.837 -0.5277 -0.2047  0.7200
 2729TIP3   OH232381   2.981   4.827  11.981 -0.6562  0.0992  0.1648
 2729TIP3    H132382   3.069   4.863  11.969 -0.0742 -1.5818 -1.0029
 2729TIP3    H232383   2.996   4.739  12.017 -1.9524  0.4415  1.6217
 2730TIP3   OH232384   1.349   5.820  12.102  0.0182 -0.1900  0.0068
 2730TIP3    H132385   1.444   5.829  12.110 -0.1848  0.5515  1.8934
 2730TIP3    H232386   1.333   5.827  12.007  1.8720 -0.9463 -0.4145
 2731TIP3   OH232387   7.148   6.883  11.482 -0.3346 -0.3579 -0.0281
 2731TIP3    H132388   7.106   6.798  11.497  0.4691 -0.6576  0.6589
 2731TIP3    H232389   7.109   6.916  11.401  0.6040 -2.2192 -1.3277
 2732TIP3   OH232390   5.643   6.013  11.576  0.7389 -0.4014 -0.2720
 2732TIP3    H132391   5.617   5.923  11.556  1.4684 -0.4494 -1.0643
 2732TIP3    H232392   5.738   6.015  11.561  0.8873  0.2665  0.6413
 2733TIP3   OH232393   4.046   2.278  10.842  0.4503  0.0276  0.0831
 2733TIP3    H132394   4.026   2.283  10.936  0.7554  0.0976  0.1491
 2733TIP3    H232395   4.047   2.370  10.814  1.5064  0.0870  0.2712
 2734TIP3   OH232396   4.240   0.858  10.461 -0.1479  0.1515  0.3873
 2734TIP3    H132397   4.263   0.947  10.489  0.2169 -0.5284  2.4064
 2734TIP3    H232398   4.243   0.862  10.365  1.5081  1.9043  0.4408
 2735TIP3   OH232399   2.265   2.541  11.639  0.3280  0.0167  0.0613
 2735TIP3    H132400   2.312   2.611  11.685  1.8584  0.0505 -1.4431
 2735TIP3    H232401   2.175   2.572  11.635  1.1137  2.5067 -1.4479
 2736TIP3   OH232402   3.589   3.076  12.008  0.3435  0.2309 -0.0716
 2736TIP3    H132403   3.558   3.121  12.087 -1.0067 -1.0834  0.1995
 2736TIP3    H232404   3.554   2.987  12.016 -2.2813  0.7400 -3.4109
 2737TIP3   OH232405   6.125   4.552  12.223  0.5449  0.4551 -0.6870
 2737TIP3    H132406   6.160   4.570  12.135  1.1961 -0.0613 -0.5433
 2737TIP3    H232407   6.083   4.467  12.215  3.6285 -1.2961  0.2853
 2738TIP3   OH232408   6.996   1.361  10.532 -0.0452 -0.3710 -0.0692
 2738TIP3    H132409   6.973   1.268  10.542 -0.2290 -0.3312 -0.1222
 2738TIP3    H232410   6.917   1.401  10.496 -0.2045 -0.0690  0.6078
 2739TIP3   OH232411   5.883   0.130  12.423 -0.1494  0.0979 -0.0794
 2739TIP3    H132412   5.793   0.099  12.411 -1.0516  1.4182  2.5883
 2739TIP3    H232413   5.938   0.058  12.390 -2.1512 -1.7389  0.3935
 2740TIP3   OH232414   6.463   3.149  12.565  0.1326  0.4369 -0.1680
 2740TIP3    H132415   6.461   3.135  12.660 -1.9080  1.2612 -0.0421
 2740TIP3    H232416   6.415   3.075  12.529  3.0082 -1.2653 -0.8596
 2741TIP3   OH232417   5.916   2.423  11.995 -0.4557 -0.1350 -0.0830
 2741TIP3    H132418   5.878   2.495  12.045 -0.3369 -0.1627  0.0462
 2741TIP3    H232419   6.005   2.451  11.974 -0.5234 -0.0982 -0.3291
 2742TIP3   OH232420   1.148   3.681  10.354 -0.1944 -0.2213 -0.8942
 2742TIP3    H132421   1.195   3.680  10.271 -1.2196 -1.1669 -1.4928
 2742TIP3    H232422   1.081   3.613  10.345  0.0911 -0.8320  0.9618
 2743TIP3   OH232423   4.234   3.560  10.253  0.3426  0.1576 -0.0709
 2743TIP3    H132424   4.314   3.575  10.303 -0.2981  0.7252  0.8161
 2743TIP3    H232425   4.238   3.623  10.181  0.7252  0.1417 -0.0640
 2744TIP3   OH232426   5.165   0.005  11.010  0.3229 -0.0783 -0.3275
 2744TIP3    H132427   5.223   0.006  10.934  0.3090 -1.4739 -0.3879
 2744TIP3    H232428   5.197  -0.068  11.063 -0.1050  0.4352  0.6684
 2745TIP3   OH232429   1.618   5.781  10.216 -0.3276 -0.6716  0.2176
 2745TIP3    H132430   1.698   5.736  10.186 -0.6775 -0.6390 -0.8021
 2745TIP3    H232431   1.601   5.743  10.302  0.8906 -0.5449  0.5383
 2746TIP3   OH232432   4.302   5.981  10.908 -0.2387  0.5724  0.4405
 2746TIP3    H132433   4.394   5.954  10.913 -0.1922  0.5887 -0.2645
 2746TIP3    H232434   4.253   5.899  10.904 -0.2598  0.5629  0.9045
 2747TIP3   OH232435   0.450   1.111  10.134  0.3815  0.1959 -0.5340
 2747TIP3    H132436   0.531   1.071  10.101  0.5686  0.6480 -0.6347
 2747TIP3    H232437   0.388   1.104  10.061 -0.3683 -2.0815  0.2482
 2748TIP3   OH232438   1.859   5.149  11.376  0.0912 -0.0802  0.2776
 2748TIP3    H132439   1.795   5.137  11.306  0.5111 -0.3016 -0.0657
 2748TIP3    H232440   1.817   5.211  11.436  0.4176  1.4872 -1.0370
 2749TIP3   OH232441   2.363   7.012  12.095 -0.4385 -0.5683  0.3024
 2749TIP3    H132442   2.294   7.016  12.029 -1.8643  1.0719  1.7839
 2749TIP3    H232443   2.319   6.987  12.175  1.0979 -1.6171  0.8607
 2750TIP3   OH232444   7.412   7.511  11.714  0.2984  0.1061 -0.0732
 2750TIP3    H132445   7.405   7.606  11.720 -4.1558 -0.0136 -0.3180
 2750TIP3    H232446   7.370   7.479  11.794 -1.5824 -1.5319 -1.6064
 2751TIP3   OH232447   5.907   0.040  11.575 -0.2297  0.1686 -0.1982
 2751TIP3    H132448   5.819   0.061  11.607 -0.6338 -0.7063 -0.6840
 2751TIP3    H232449   5.908  -0.055  11.570  1.7496 -0.0939  2.5823
 2752TIP3   OH232450   2.317   4.236  10.502  0.1359 -0.5249  0.3583
 2752TIP3    H132451   2.236   4.280  10.529  0.5270  0.5478 -0.1650
 2752TIP3    H232452   2.293   4.143  10.496 -0.7863 -0.3597  1.1825
 2753TIP3   OH232453   2.337   5.353  11.283  0.0436  0.4072 -0.0253
 2753TIP3    H132454   2.296   5.434  11.311 -0.6773 -0.3653  1.2632
 2753TIP3    H232455   2.264   5.297  11.257  0.1954 -0.9356  2.1687
 2754TIP3   OH232456   1.770   1.802  10.655  0.0513  0.1112 -0.2971
 2754TIP3    H132457   1.851   1.851  10.641  2.1860 -2.8535  0.6281
 2754TIP3    H232458   1.751   1.761  10.571 -0.5922  0.8635 -0.5345
 2755TIP3   OH232459   5.814   3.495  12.676 -0.1181  0.1073  0.3975
 2755TIP3    H132460   5.763   3.475  12.755  0.3443 -0.0933  0.6494
 2755TIP3    H232461   5.790   3.585  12.655 -0.0309  0.2598  0.9331
 2756TIP3   OH232462   0.637   0.548  10.410 -0.5967  0.4966 -0.1961
 2756TIP3    H132463   0.603   0.464  10.377  1.0591 -0.6426  0.8147
 2756TIP3    H232464   0.693   0.580  10.339  0.6290 -0.4803  0.2776
 2757TIP3   OH232465   2.868   4.476  11.227 -0.2839 -0.2417 -0.1149
 2757TIP3    H132466   2.905   4.449  11.143 -1.7002  1.1943 -1.2646
 2757TIP3    H232467   2.798   4.412  11.244  0.9246 -1.4013  0.7635
 2758TIP3   OH232468   1.711   2.726  12.515 -0.2619  0.1866  0.4075
 2758TIP3    H132469   1.726   2.632  12.525 -1.1751  0.0612  0.7393
 2758TIP3    H232470   1.634   2.744  12.570 -0.4330  1.0241 -0.0873
 2759TIP3   OH232471   1.045   3.649  11.290 -0.5618  0.4445  0.7939
 2759TIP3    H132472   1.040   3.612  11.202 -0.0823 -1.0355  1.3581
 2759TIP3    H232473   1.126   3.700  11.290  0.4854 -1.1574  0.9284
 2760TIP3   OH232474   4.709   4.737  12.595 -0.3412 -0.4420  0.4737
 2760TIP3    H132475   4.771   4.752  12.667  0.4757  1.5137 -0.5577
 2760TIP3    H232476   4.762   4.743  12.516 -1.0142 -3.6340 -0.3774
 2761TIP3   OH232477   0.178   2.394  10.969  0.0555 -0.8832  0.3295
 2761TIP3    H132478   0.141   2.404  10.881  2.2747 -0.3205 -0.6298
 2761TIP3    H232479   0.222   2.310  10.967  1.8270 -0.0037  0.1537
 2762TIP3   OH232480   2.421   1.675  12.452  0.4311  0.0254 -0.2695
 2762TIP3    H132481   2.399   1.581  12.453 -0.8194  0.2791 -1.3942
 2762TIP3    H232482   2.348   1.716  12.406  1.5130  1.4252 -0.7945
 2763TIP3   OH232483   4.547   2.921  12.558 -0.4445  0.6371 -0.2595
 2763TIP3    H132484   4.547   2.900  12.464 -0.2022  0.8204 -0.3041
 2763TIP3    H232485   4.476   2.985  12.568 -1.0494 -0.0438 -0.1602
 2764TIP3   OH232486   4.522   6.698  12.247  0.0472  0.6276 -0.8103
 2764TIP3    H132487   4.529   6.674  12.154  0.4412 -0.0112 -0.6152
 2764TIP3    H232488   4.555   6.788  12.251  1.4228  0.1428 -1.0513
 2765TIP3   OH232489   1.466   7.423  12.346  0.1150 -0.6431  0.5351
 2765TIP3    H132490   1.451   7.330  12.358  2.6349 -0.9635  1.6806
 2765TIP3    H232491   1.548   7.429  12.296  0.5296  0.9478  1.3209
 2766TIP3   OH232492   1.506   5.466  10.605 -0.1820 -0.3184  0.2336
 2766TIP3    H132493   1.467   5.396  10.659 -0.3653  1.4871  2.5867
 2766TIP3    H232494   1.590   5.484  10.647 -0.0145  0.6914 -0.5227
 2767TIP3   OH232495   5.328   2.162  12.672  0.1189  0.1530  0.2827
 2767TIP3    H132496   5.415   2.130  12.647  0.2847 -0.0325  1.0878
 2767TIP3    H232497   5.340   2.197  12.760 -0.6718 -0.0641  0.4775
 2768TIP3   OH232498   3.503   4.108  10.938  0.0428  0.1616  0.3617
 2768TIP3    H132499   3.561   4.035  10.918  0.3801  0.8409 -1.3541
 2768TIP3    H232500   3.561   4.174  10.977  0.2868  0.5199 -0.5793
 2769TIP3   OH232501   7.636   6.241  11.208 -0.1823  0.4122 -0.3924
 2769TIP3    H132502   7.606   6.175  11.145 -1.4563 -0.1702  0.7638
 2769TIP3    H232503   7.686   6.191  11.272  0.8115  0.9483 -0.7336
 2770TIP3   OH232504   0.271   2.146  11.818 -0.1829 -0.2068  0.4745
 2770TIP3    H132505   0.252   2.156  11.724 -1.7716  0.7443  0.8461
 2770TIP3    H232506   0.292   2.053  11.828  1.3690 -0.0784 -1.0099
 2771TIP3   OH232507   3.657   4.876  12.475  0.1367 -0.0230  0.2018
 2771TIP3    H132508   3.688   4.791  12.507  0.0258 -0.0283  0.2977
 2771TIP3    H232509   3.670   4.872  12.380 -0.3387 -0.3487  0.1422
 2772TIP3   OH232510   4.358   0.764  11.560 -0.3096  0.5754  0.4291
 2772TIP3    H132511   4.324   0.682  11.524  0.6080 -0.8245  2.5617
 2772TIP3    H232512   4.326   0.766  11.650 -1.3274  3.2329  0.0913
 2773TIP3   OH232513   4.280   6.460  12.003 -0.3087 -0.5664  0.0753
 2773TIP3    H132514   4.278   6.429  12.093 -0.5200 -0.8060 -0.0112
 2773TIP3    H232515   4.228   6.541  12.004 -0.1752 -0.4813  0.1988
 2774TIP3   OH232516   2.750   3.657  10.240  0.1295  0.1004 -1.1619
 2774TIP3    H132517   2.843   3.635  10.231  0.1463 -0.4207  0.0556
 2774TIP3    H232518   2.750   3.748  10.269  0.3966 -0.5210  0.9915
 2775TIP3   OH232519   0.402   7.396  11.557 -0.2441  0.3223  0.2993
 2775TIP3    H132520   0.419   7.488  11.535 -0.1380  0.4418  0.8434
 2775TIP3    H232521   0.484   7.367  11.599  0.3715 -0.5367 -1.4256
 2776TIP3   OH232522   4.551   6.885  11.222 -0.1280 -0.3595 -0.1812
 2776TIP3    H132523   4.582   6.959  11.274  2.0527 -1.4155  0.1289
 2776TIP3    H232524   4.536   6.922  11.135 -1.8414  0.9911  0.6121
 2777TIP3   OH232525   7.239   4.378  10.876  0.4215  0.1212  0.1368
 2777TIP3    H132526   7.243   4.473  10.878  0.3127  0.2725 -2.7004
 2777TIP3    H232527   7.145   4.357  10.875  0.4246  0.0959 -0.6322
 2778TIP3   OH232528   5.287   2.717  11.324 -0.6878 -0.4487  0.2907
 2778TIP3    H132529   5.335   2.677  11.252 -0.4392 -1.0813  0.7959
 2778TIP3    H232530   5.319   2.807  11.328 -0.5902 -0.4576 -0.2834
 2779TIP3   OH232531   1.472   0.580  12.423  0.5231  0.3510 -0.1024
 2779TIP3    H132532   1.434   0.493  12.433 -0.3583  0.7081 -0.2263
 2779TIP3    H232533   1.560   0.573  12.462  1.1534 -1.0437 -1.6807
 2780TIP3   OH232534   2.691   7.430  10.776  0.1789 -0.6293  0.9449
 2780TIP3    H132535   2.654   7.425  10.688 -0.8918  0.7893  1.2862
 2780TIP3    H232536   2.615   7.439  10.833  0.9546  1.4373  1.7446
 2781TIP3   OH232537   1.785   0.912  11.895 -0.2856  0.2894 -0.4719
 2781TIP3    H132538   1.746   0.996  11.872 -0.4772  0.2576 -0.2786
 2781TIP3    H232539   1.847   0.893  11.825 -0.6965  0.2939 -0.8436
 2782TIP3   OH232540   2.578   7.223  12.280  0.4594  0.4831 -0.1973
 2782TIP3    H132541   2.497   7.253  12.238 -0.7058 -1.3243  0.6257
 2782TIP3    H232542   2.629   7.303  12.293 -0.5533  1.4964 -2.0287
 2783TIP3   OH232543   4.293   2.781  10.558  0.0458  0.4150  0.4671
 2783TIP3    H132544   4.370   2.836  10.547 -0.7713  1.5156  0.1560
 2783TIP3    H232545   4.273   2.749  10.470  0.1274  0.1616  0.5405
 2784TIP3   OH232546   2.909   5.635  12.335 -0.0645 -0.0622 -0.1626
 2784TIP3    H132547   2.909   5.704  12.402  0.5549 -1.9587  1.8943
 2784TIP3    H232548   2.975   5.664  12.272  0.4459  1.0629  0.8349
 2785TIP3   OH232549   6.974   5.920  11.487 -0.4390 -0.4508 -0.7986
 2785TIP3    H132550   6.990   5.826  11.501 -0.3482 -0.0843  2.0996
 2785TIP3    H232551   7.061   5.960  11.493 -0.6013 -0.0605 -1.0094
 2786TIP3   OH232552   3.372   6.459  11.182 -0.0163 -0.0512 -0.2208
 2786TIP3    H132553   3.330   6.514  11.249 -1.6645  0.1735 -1.3727
 2786TIP3    H232554   3.425   6.397  11.232 -0.8216  0.4168  1.2827
 2787TIP3   OH232555   0.562   4.803  12.862 -0.0795  0.3428 -0.3455
 2787TIP3    H132556   0.553   4.880  12.919  0.7797 -0.3088  0.6932
 2787TIP3    H232557   0.633   4.825  12.803 -0.3641  0.6549 -0.5787
 2788TIP3   OH232558   2.937   5.541  11.391  0.1634 -0.0218 -0.3046
 2788TIP3    H132559   2.937   5.500  11.478 -0.1444 -2.0391 -1.1957
 2788TIP3    H232560   3.027   5.527  11.359 -0.2465 -1.0497 -1.0567
 2789TIP3   OH232561   0.545   0.932  11.929  0.0862 -0.2211 -0.2187
 2789TIP3    H132562   0.633   0.931  11.967 -0.2142 -0.5108  0.4970
 2789TIP3    H232563   0.495   0.989  11.988  0.3828  2.0738 -2.0329
 2790TIP3   OH232564   0.519   1.811  10.839 -0.5833 -0.2386  0.1295
 2790TIP3    H132565   0.586   1.875  10.862  0.9460 -1.7156 -0.0462
 2790TIP3    H232566   0.470   1.851  10.767  1.4055  0.0823 -1.1155
 2791TIP3   OH232567   1.474   1.695  10.359 -0.1558 -0.0232 -0.3085
 2791TIP3    H132568   1.479   1.634  10.432  0.5806  1.0627  0.5878
 2791TIP3    H232569   1.413   1.763  10.388  2.1796  1.8833  0.5199
 2792TIP3   OH232570   3.047   2.541  12.150 -0.1821  0.8021 -0.3253
 2792TIP3    H132571   3.081   2.489  12.224 -0.5820  1.8184  0.6022
 2792TIP3    H232572   2.966   2.580  12.184 -0.3756  1.2856 -1.3114
 2793TIP3   OH232573   7.671   7.300  10.905  0.0734  0.0919 -0.6130
 2793TIP3    H132574   7.724   7.226  10.875  0.4807  0.5634 -1.0780
 2793TIP3    H232575   7.735   7.367  10.930 -0.2892  0.2427 -0.0785
 2794TIP3   OH232576   6.240   7.517  10.010  0.3868  0.2675 -0.4772
 2794TIP3    H132577   6.321   7.470  10.029 -0.1595  0.0115  1.4281
 2794TIP3    H232578   6.268   7.601   9.972  1.5772  0.5221  0.9173
 2795TIP3   OH232579   6.402   1.836  10.459 -0.2353 -0.1243  0.2788
 2795TIP3    H132580   6.400   1.839  10.363  0.8242  0.3715  0.2582
 2795TIP3    H232581   6.495   1.836  10.481 -0.4194 -2.3571  1.2759
 2796TIP3   OH232582   7.067   4.395  12.228  0.6581 -0.7759 -0.0367
 2796TIP3    H132583   7.074   4.351  12.312 -0.1921  1.4497  1.2944
 2796TIP3    H232584   7.030   4.330  12.169  0.1775 -2.0412  1.5984
 2797TIP3   OH232585   1.803   7.587  11.038 -0.4240  0.0224  0.2161
 2797TIP3    H132586   1.835   7.672  11.007  0.2637  0.7453  2.6851
 2797TIP3    H232587   1.882   7.539  11.064 -0.9607  0.0118  2.0242
 2798TIP3   OH232588   4.232   4.738  10.796  0.8803  0.2615 -0.4481
 2798TIP3    H132589   4.165   4.670  10.785  0.8537  0.0840  0.7308
 2798TIP3    H232590   4.280   4.737  10.713  0.5098 -0.7976 -0.6704
 2799TIP3   OH232591   1.431   2.632  10.720  0.0237 -0.1327  0.4077
 2799TIP3    H132592   1.414   2.691  10.646  1.9298  0.3547  0.3266
 2799TIP3    H232593   1.346   2.589  10.735 -0.6668  0.4806 -1.4105
 2800TIP3   OH232594   4.242   0.606  10.046 -0.2223  0.2022  0.1355
 2800TIP3    H132595   4.159   0.582  10.004 -0.2860 -0.5304  0.6508
 2800TIP3    H232596   4.242   0.701  10.047 -0.8038  0.2155 -0.3727
 2801TIP3   OH232597   2.677   3.839  11.111 -0.6869  0.5101 -0.0636
 2801TIP3    H132598   2.628   3.917  11.084  0.4719  0.8024 -1.4283
 2801TIP3    H232599   2.615   3.766  11.098 -0.8517  0.8921 -1.5304
 2802TIP3   OH232600   6.496   1.542  11.357 -0.4963 -0.0952  0.0543
 2802TIP3    H132601   6.406   1.575  11.364 -0.5600 -0.1061 -0.6349
 2802TIP3    H232602   6.522   1.561  11.267 -0.5185 -1.9047 -0.3744
 2803TIP3   OH232603   6.945   2.793  11.763  0.2684  0.5138 -0.1191
 2803TIP3    H132604   6.926   2.834  11.848  0.3624  0.7029 -0.1894
 2803TIP3    H232605   6.973   2.865  11.707 -1.7453  0.7484 -0.9288
 2804TIP3   OH232606   4.907   2.540  11.157 -0.2671 -1.2105  0.5801
 2804TIP3    H132607   4.987   2.498  11.126  0.3576  0.7538 -0.6965
 2804TIP3    H232608   4.838   2.506  11.099  0.1630 -0.8297 -0.1809
 2805TIP3   OH232609   6.881   7.200  10.992  0.3600  0.3309  0.1820
 2805TIP3    H132610   6.909   7.284  10.957 -0.3441  0.8447  0.8301
 2805TIP3    H232611   6.786   7.201  10.983  0.4197 -0.8927 -0.9007
 2806TIP3   OH232612   0.289   3.443  11.446 -0.6710  0.2687  0.2033
 2806TIP3    H132613   0.294   3.529  11.404 -0.8065  0.1828  0.0088
 2806TIP3    H232614   0.350   3.448  11.519  1.2386 -0.3041 -1.2724
 2807TIP3   OH232615   1.116   6.180  12.420 -0.1008 -0.6226  0.1057
 2807TIP3    H132616   1.022   6.158  12.415 -0.3249  0.2047  0.5696
 2807TIP3    H232617   1.156   6.127  12.351 -0.8906 -1.0931 -0.0064
 2808TIP3   OH232618   1.505   3.848  12.221  0.3380 -0.1964 -0.4151
 2808TIP3    H132619   1.490   3.843  12.316 -1.0929 -1.5838 -0.6711
 2808TIP3    H232620   1.564   3.922  12.210 -0.5407  0.8412  1.4445
 2809TIP3   OH232621   6.043   7.063  11.215 -0.1121 -0.0071  0.1855
 2809TIP3    H132622   5.960   7.097  11.182  1.3643  3.6809 -0.2460
 2809TIP3    H232623   6.060   7.113  11.294  1.4735 -1.0219  0.5355
 2810TIP3   OH232624   3.274   2.372  11.110  0.1323  0.4619 -0.3768
 2810TIP3    H132625   3.259   2.428  11.186 -0.4778 -0.1779 -0.0168
 2810TIP3    H232626   3.341   2.418  11.059 -0.0272  1.2833  0.1443
 2811TIP3   OH232627   7.211   5.710  10.647  0.2244 -0.3275  0.2010
 2811TIP3    H132628   7.189   5.624  10.610 -1.0438 -0.7295  1.7417
 2811TIP3    H232629   7.127   5.755  10.653  1.0906  1.8620 -2.3988
 2812TIP3   OH232630   0.595   0.892  11.656  0.4997  0.8008  0.0326
 2812TIP3    H132631   0.588   0.939  11.739 -1.0543  0.2637  0.2429
 2812TIP3    H232632   0.516   0.915  11.608  1.4840  1.3046 -1.4520
 2813TIP3   OH232633   0.814   7.226  10.428 -0.1464 -0.0060 -0.1759
 2813TIP3    H132634   0.863   7.296  10.471 -2.3615  0.6613  1.4589
 2813TIP3    H232635   0.770   7.180  10.500 -1.6755 -0.7246 -1.5127
 2814TIP3   OH232636   4.096   0.553  12.607 -0.3085  0.7232 -0.1720
 2814TIP3    H132637   4.136   0.466  12.611  1.1796  1.4146  1.3984
 2814TIP3    H232638   4.002   0.536  12.611 -0.0744 -0.8238 -0.4034
 2815TIP3   OH232639   3.411   3.722  11.759  0.8948 -0.0732  0.2427
 2815TIP3    H132640   3.399   3.627  11.756  2.4504 -0.2610 -0.6955
 2815TIP3    H232641   3.371   3.754  11.678  1.9214 -0.1428 -0.3110
 2816TIP3   OH232642   7.072   7.215  10.586 -0.9293  0.7889  0.0742
 2816TIP3    H132643   6.997   7.257  10.545 -0.3324  1.1069 -0.7237
 2816TIP3    H232644   7.114   7.284  10.637 -1.0367  0.6704  0.3272
 2817TIP3   OH232645   5.606   3.783  12.467 -0.0435  0.1064  0.4235
 2817TIP3    H132646   5.593   3.715  12.400  0.3974  1.1375 -0.7432
 2817TIP3    H232647   5.532   3.771  12.527 -1.2947  0.0539 -1.0425
 2818TIP3   OH232648   6.350   6.008  10.342 -0.0474 -0.1325  0.1612
 2818TIP3    H132649   6.402   5.942  10.387  0.7035 -0.5545 -1.2641
 2818TIP3    H232650   6.413   6.074  10.314 -0.5335  0.2440 -0.0744
 2819TIP3   OH232651   0.441   1.129  12.135  0.2271  0.5217  0.0258
 2819TIP3    H132652   0.349   1.151  12.148  0.3074 -0.1570  2.1237
 2819TIP3    H232653   0.477   1.122  12.223  2.0940 -0.0929 -0.7254
 2820TIP3   OH232654   0.293   5.935  11.273  0.3899  0.0305 -0.6821
 2820TIP3    H132655   0.214   5.892  11.240  0.3093  0.8373 -1.5978
 2820TIP3    H232656   0.327   5.876  11.340 -0.2734 -0.9559 -1.1968
 2821TIP3   OH232657   3.250   6.830  12.291  0.5363 -0.1875 -0.4973
 2821TIP3    H132658   3.173   6.815  12.235 -0.7804  0.3750  1.0692
 2821TIP3    H232659   3.288   6.911  12.256  0.0477 -0.1248 -0.9168
 2822TIP3   OH232660   7.400   6.414  11.021 -0.0140 -0.2977 -0.7193
 2822TIP3    H132661   7.427   6.454  10.938 -1.5534 -0.3790 -1.2980
 2822TIP3    H232662   7.420   6.481  11.087 -0.7876  0.6805 -1.4395
 2823TIP3   OH232663   1.237   3.028  11.166 -0.5618 -0.2140 -0.2015
 2823TIP3    H132664   1.280   2.985  11.240 -0.9974  1.0848  0.8436
 2823TIP3    H232665   1.147   2.994  11.167 -0.3798 -0.7334 -0.6017
 2824TIP3   OH232666   1.247   5.899  11.148 -0.8313  0.0212 -0.0235
 2824TIP3    H132667   1.245   5.988  11.113 -2.3652 -0.2298 -0.6804
 2824TIP3    H232668   1.339   5.878  11.155 -0.4160  0.4733 -2.9672
 2825TIP3   OH232669   2.194   0.853  11.835  0.1352  0.6017  0.6189
 2825TIP3    H132670   2.282   0.831  11.802  0.5845  1.6100  1.1073
 2825TIP3    H232671   2.208   0.871  11.928 -0.8414 -0.5914  1.0233
 2826TIP3   OH232672   2.163   4.237  11.832 -0.1076 -0.6774  0.0392
 2826TIP3    H132673   2.137   4.298  11.762 -1.2434 -0.6480  0.4734
 2826TIP3    H232674   2.085   4.186  11.850  0.2595 -0.8833  1.0999
 2827TIP3   OH232675   5.379   3.809  10.597 -0.3461 -0.3301  0.0015
 2827TIP3    H132676   5.332   3.739  10.551 -2.2282  0.6981  0.2663
 2827TIP3    H232677   5.452   3.764  10.640 -1.9141 -2.2843  0.7715
 2828TIP3   OH232678   5.651   4.125  12.139  0.2738 -0.1564 -0.3108
 2828TIP3    H132679   5.647   4.218  12.159 -2.0604 -0.3921  0.5366
 2828TIP3    H232680   5.613   4.082  12.215  0.9240 -1.7946 -0.8592
 2829TIP3   OH232681   3.258   0.547  11.619  0.6424 -0.1646 -0.0865
 2829TIP3    H132682   3.279   0.561  11.712  1.1971 -2.4051  0.1793
 2829TIP3    H232683   3.162   0.546  11.616  0.6011  0.9320  0.2569
 2830TIP3   OH232684   5.755   5.087  12.151  0.1388  0.3647 -0.2599
 2830TIP3    H132685   5.773   4.995  12.167 -0.2540  0.0280 -1.6172
 2830TIP3    H232686   5.725   5.121  12.235 -1.3963 -1.1613 -0.1508
 2831TIP3   OH232687   2.798   6.190  12.406 -0.8431 -0.4613 -0.2784
 2831TIP3    H132688   2.728   6.131  12.378 -0.7410 -0.1267 -1.2897
 2831TIP3    H232689   2.874   6.132  12.420 -1.2130 -0.7786  0.4736
 2832TIP3   OH232690   0.125   1.819  11.183  0.0787 -0.2146 -0.0993
 2832TIP3    H132691   0.218   1.805  11.166  0.2866  1.2703 -0.3555
 2832TIP3    H232692   0.120   1.838  11.276 -0.0347 -0.6995 -0.0026
 2833TIP3   OH232693   4.528   7.079  11.481  0.3150 -0.1357 -0.0975
 2833TIP3    H132694   4.502   7.163  11.443  2.2114  0.3941 -0.3403
 2833TIP3    H232695   4.450   7.049  11.527 -0.5677  1.5347 -0.3986
 2834TIP3   OH232696   6.280   0.001  10.442 -0.0021 -0.2190 -0.5315
 2834TIP3    H132697   6.367  -0.017  10.406  0.7454  1.4582  0.3124
 2834TIP3    H232698   6.289   0.086  10.485 -1.8059 -0.4774  0.4653
 2835TIP3   OH232699   4.730   2.345  11.613  0.2883  0.6635 -0.1802
 2835TIP3    H132700   4.756   2.274  11.672 -0.7013  0.7240  0.3477
 2835TIP3    H232701   4.774   2.324  11.531 -2.1602 -2.2123 -0.9797
 2836TIP3   OH232702   6.705   2.303  11.151  0.1365  0.5114  0.0300
 2836TIP3    H132703   6.634   2.269  11.207  0.4388 -1.0544 -0.4827
 2836TIP3    H232704   6.712   2.395  11.175 -0.4383  0.1294  1.8391
 2837TIP3   OH232705   3.835   2.178  11.556 -0.2087 -0.1910 -0.1424
 2837TIP3    H132706   3.911   2.151  11.505 -0.5517 -0.4416 -0.5218
 2837TIP3    H232707   3.760   2.161  11.499 -0.7188 -1.7166  0.9246
 2838TIP3   OH232708   3.482   1.809  10.911  0.1194  0.1563 -0.0620
 2838TIP3    H132709   3.578   1.809  10.911  0.1782 -1.2875 -1.5364
 2838TIP3    H232710   3.459   1.761  10.991  0.6158  0.4218  0.2510
 2839TIP3   OH232711   1.487   6.429  12.277 -0.5690  0.5087  0.2038
 2839TIP3    H132712   1.544   6.502  12.301  2.8879 -1.6873 -0.6906
 2839TIP3    H232713   1.444   6.404  12.359 -0.1541  2.1320  0.9601
 2840TIP3   OH232714   6.338   0.264  10.551  0.6074 -0.1496  0.3797
 2840TIP3    H132715   6.283   0.286  10.626  0.5787 -1.0744  0.6428
 2840TIP3    H232716   6.428   0.280  10.580  0.5034  1.3456 -0.0444
 2841TIP3   OH232717   7.400   3.474  10.451 -0.0010 -0.0044  0.2847
 2841TIP3    H132718   7.489   3.441  10.460 -0.8257 -2.5980 -0.1833
 2841TIP3    H232719   7.354   3.440  10.529 -0.8727  0.1788 -0.1329
 2842TIP3   OH232720   1.714   7.281  11.693  0.2369  0.1241  0.0912
 2842TIP3    H132721   1.677   7.294  11.780 -0.9166 -0.2219 -0.3246
 2842TIP3    H232722   1.711   7.367  11.652 -0.0258  0.1177  0.0955
 2843TIP3   OH232723   2.437   3.157  11.969  0.2157 -0.5105 -0.1495
 2843TIP3    H132724   2.445   3.236  12.023  1.9551 -0.8089  0.0736
 2843TIP3    H232725   2.464   3.184  11.882 -3.8805  0.3298 -1.4091
 2844TIP3   OH232726   5.936   3.530  11.359  0.3458  0.3603 -0.3339
 2844TIP3    H132727   5.867   3.584  11.398  2.4609  1.1022  2.7807
 2844TIP3    H232728   5.958   3.466  11.427  2.0993 -0.4306 -1.5585
 2845TIP3   OH232729   2.609   4.182  11.653 -0.0912  0.4236 -0.8276
 2845TIP3    H132730   2.545   4.173  11.725  0.6736 -0.9146 -0.2784
 2845TIP3    H232731   2.565   4.239  11.590 -1.3773  0.4617  0.0430
 2846TIP3   OH232732   5.492   3.281  12.081 -0.3986  0.0399 -0.6441
 2846TIP3    H132733   5.421   3.221  12.105 -0.3356  0.6426  1.2943
 2846TIP3    H232734   5.447   3.362  12.056 -0.4372  0.0349 -0.5918
 2847TIP3   OH232735   2.964   4.153  11.724  0.5298  0.1111 -0.6316
 2847TIP3    H132736   3.043   4.123  11.769  0.5958 -0.0898 -0.8745
 2847TIP3    H232737   2.991   4.234  11.680  0.8802 -0.4703 -1.5206
 2848TIP3   OH232738   7.469   4.964  11.401 -0.4105 -0.2590 -0.3785
 2848TIP3    H132739   7.526   5.018  11.346 -0.2739  0.7778  0.7419
 2848TIP3    H232740   7.460   4.882  11.353 -0.5195  0.6993 -2.0839
 2849TIP3   OH232741   3.503   5.263  11.905 -0.2787 -0.3846 -0.2789
 2849TIP3    H132742   3.595   5.251  11.880 -0.4160  1.1045 -1.5905
 2849TIP3    H232743   3.505   5.273  12.000  1.1887  1.7681 -0.4902
 2850TIP3   OH232744   6.571   5.533  11.800 -0.1311 -0.0036  0.1563
 2850TIP3    H132745   6.502   5.519  11.736 -1.1484 -0.3930  1.2846
 2850TIP3    H232746   6.650   5.500  11.758 -1.0769 -1.8834 -0.2790
 2851TIP3   OH232747   5.210   4.706  11.643 -0.2787  0.4522  0.0002
 2851TIP3    H132748   5.152   4.717  11.567 -1.8834  1.3915  1.3007
 2851TIP3    H232749   5.188   4.620  11.678 -1.0414  0.8756  0.5888
 2852TIP3   OH232750   1.832   0.472  11.063  0.0410  0.0763 -0.8350
 2852TIP3    H132751   1.796   0.561  11.061 -1.5167 -0.4985 -0.1133
 2852TIP3    H232752   1.761   0.417  11.030  0.0795 -1.1554  0.9725
 2853TIP3   OH232753   4.517   2.346  10.688 -0.0379 -0.1293 -0.7361
 2853TIP3    H132754   4.556   2.382  10.609  0.4810  2.3724  0.5565
 2853TIP3    H232755   4.429   2.382  10.690  0.5068  1.2474  0.6097
 2854TIP3   OH232756   4.439   5.476  11.695 -0.1513  0.4741  0.4640
 2854TIP3    H132757   4.517   5.467  11.749 -0.5373 -0.2864  0.9209
 2854TIP3    H232758   4.471   5.507  11.610  0.8932 -1.6966 -0.0001
 2855TIP3   OH232759   7.071   1.157  12.369 -0.4861 -0.3063  0.1970
 2855TIP3    H132760   7.037   1.109  12.293  1.1554  0.2681 -0.9570
 2855TIP3    H232761   6.995   1.203  12.404 -1.3965 -1.0196 -0.7640
 2856TIP3   OH232762   6.356   4.213  11.094 -0.6225 -0.9339 -0.4201
 2856TIP3    H132763   6.452   4.209  11.092 -0.3729  1.6372  1.0166
 2856TIP3    H232764   6.329   4.126  11.120  1.4864 -1.2078  1.1770
 2857TIP3   OH232765   6.155   5.387  11.459 -0.1560  0.0953 -0.3549
 2857TIP3    H132766   6.204   5.347  11.387 -1.1180  0.4515 -1.2406
 2857TIP3    H232767   6.153   5.320  11.527  0.6428 -0.3119 -0.7171
 2858TIP3   OH232768   3.594   3.431  11.127  0.2129 -0.3921  0.6345
 2858TIP3    H132769   3.660   3.362  11.120  0.4165 -0.2797  1.3292
 2858TIP3    H232770   3.600   3.461  11.218 -0.1371  0.2801  0.4451
 2859TIP3   OH232771   4.115   4.687  11.087 -0.1997  0.0193  0.5467
 2859TIP3    H132772   4.083   4.610  11.135  0.6840  0.1595  1.3966
 2859TIP3    H232773   4.088   4.672  10.996  0.9680 -1.8908  0.4568
 2860TIP3   OH232774   3.432   0.860  12.393  0.2774  0.7648 -0.3374
 2860TIP3    H132775   3.410   0.869  12.485 -0.2494  1.0712 -0.4871
 2860TIP3    H232776   3.474   0.942  12.369  0.9242  0.4665 -0.2353
 2861TIP3   OH232777   2.892   6.984  11.927  0.2297 -0.0020 -0.0400
 2861TIP3    H132778   2.797   6.968  11.925  0.2723 -0.2318 -0.3012
 2861TIP3    H232779   2.903   7.055  11.990 -0.1305  0.1068 -0.0971
 2862TIP3   OH232780   7.465   1.377  11.834  0.2704 -0.7426 -0.3075
 2862TIP3    H132781   7.386   1.363  11.782 -0.2073 -0.6935  0.3887
 2862TIP3    H232782   7.508   1.291  11.836 -0.3966 -1.0753  0.3118
 2863TIP3   OH232783   1.413   4.240  10.956 -0.0639  0.5471  0.0918
 2863TIP3    H132784   1.392   4.203  11.042 -0.3774  0.9200  0.1798
 2863TIP3    H232785   1.509   4.242  10.953 -0.0451  1.2493  0.7530
 2864TIP3   OH232786   6.920   2.003  10.621 -0.1277  0.8631  0.3602
 2864TIP3    H132787   6.884   1.919  10.594 -1.4840  1.0022  1.5779
 2864TIP3    H232788   6.956   2.041  10.541  0.1915 -0.7077 -0.2759
 2865TIP3   OH232789   6.199   3.804  11.770  0.2670  0.0681 -0.7107
 2865TIP3    H132790   6.281   3.852  11.779  0.1266  0.0831  0.5538
 2865TIP3    H232791   6.182   3.805  11.675  2.5465 -1.3311 -1.2299
 2866TIP3   OH232792   4.374   1.615  10.490 -0.1763 -0.1481  0.7810
 2866TIP3    H132793   4.303   1.612  10.425 -1.5082  0.0182  2.1604
 2866TIP3    H232794   4.425   1.692  10.467 -0.5093 -0.2033 -0.1882
 2867TIP3   OH232795   2.116   4.280  11.285 -0.0384 -0.0367  0.3924
 2867TIP3    H132796   2.044   4.338  11.262  0.5204  0.2733 -0.6662
 2867TIP3    H232797   2.192   4.338  11.291 -0.0032 -0.2317  2.3164
 2868TIP3   OH232798   3.487   6.211  11.393  0.0208  0.0491 -0.1305
 2868TIP3    H132799   3.582   6.217  11.381  0.1346  2.4277  1.2105
 2868TIP3    H232800   3.474   6.218  11.488 -1.4683 -1.3725 -0.1876
 2869TIP3   OH232801   1.779   7.028  11.522  0.3875 -0.0027  0.3623
 2869TIP3    H132802   1.796   6.973  11.598  1.6276 -0.6515 -0.3488
 2869TIP3    H232803   1.693   7.066  11.538  1.3045  1.2049  2.8810
 2870TIP3   OH232804   0.886   4.079  11.888  0.3160  0.3065 -0.2244
 2870TIP3    H132805   0.976   4.102  11.913  0.3489  0.2666 -0.3041
 2870TIP3    H232806   0.835   4.092  11.967  0.5474 -0.5180  0.0703
 2871TIP3   OH232807   6.444   2.033  12.486 -0.3612 -0.0200 -0.7244
 2871TIP3    H132808   6.415   2.004  12.399  0.9955 -0.9809 -0.8737
 2871TIP3    H232809   6.515   2.095  12.468 -0.0768 -0.2183 -0.2924
 2872TIP3   OH232810   6.869   4.839  10.114 -0.0609 -0.1199 -0.7600
 2872TIP3    H132811   6.810   4.870  10.183 -0.3942 -0.2067 -1.0069
 2872TIP3    H232812   6.834   4.754  10.089 -0.6456  0.4437 -1.8913
 2873TIP3   OH232813   6.881   6.662  10.394  0.1186  0.5223 -0.0755
 2873TIP3    H132814   6.949   6.729  10.400 -0.0638  0.7755 -0.7146
 2873TIP3    H232815   6.799   6.711  10.391 -0.0323  0.2606 -0.2936
 2874TIP3   OH232816   2.701   0.850  11.171 -0.1469 -0.4902 -0.4464
 2874TIP3    H132817   2.681   0.929  11.221  0.5123  0.2212 -1.2826
 2874TIP3    H232818   2.727   0.786  11.237 -0.7617 -0.0352  0.2453
 2875TIP3   OH232819   1.733   2.755  10.687 -0.2560  0.1341 -0.0669
 2875TIP3    H132820   1.793   2.827  10.667  0.3463 -0.3098  0.0699
 2875TIP3    H232821   1.646   2.788  10.666  0.1261  0.4782 -1.1967
 2876TIP3   OH232822   0.417   6.377  12.289  0.6809  0.0925  0.0682
 2876TIP3    H132823   0.474   6.445  12.251 -0.3332  0.7740 -0.2647
 2876TIP3    H232824   0.470   6.339  12.360  1.3816  1.0237  0.0675
 2877TIP3   OH232825   5.742   5.686   9.988  0.1727  0.6221 -0.0412
 2877TIP3    H132826   5.756   5.770   9.945 -1.5816  0.4982 -0.9559
 2877TIP3    H232827   5.668   5.700  10.046  0.0737 -0.1943  0.0481
 2878TIP3   OH232828   2.446   1.789  10.652  0.1705 -0.4141 -0.2708
 2878TIP3    H132829   2.421   1.867  10.702  0.6854 -1.1452  1.1860
 2878TIP3    H232830   2.536   1.806  10.625 -0.4711  0.4704 -1.9982
 2879TIP3   OH232831   7.200   1.166  11.297 -0.0700  0.5958  0.2234
 2879TIP3    H132832   7.191   1.107  11.221  0.9700 -1.3611  1.5282
 2879TIP3    H232833   7.230   1.249  11.259  1.3407 -0.5956 -1.4602
 2880TIP3   OH232834   4.780   6.885  10.302 -0.4402  0.1073  0.5421
 2880TIP3    H132835   4.801   6.808  10.249 -0.7224  0.7754 -0.5659
 2880TIP3    H232836   4.821   6.867  10.387 -0.1504 -1.0737  0.1795
 2881TIP3   OH232837   3.175   0.484  11.297 -0.0322 -0.1846  0.4270
 2881TIP3    H132838   3.102   0.430  11.269 -0.7722  0.3758  1.2096
 2881TIP3    H232839   3.204   0.445  11.380  0.5726 -0.4147  0.1134
 2882TIP3   OH232840   2.096   2.641  11.897  0.5770 -0.3060 -0.1505
 2882TIP3    H132841   2.123   2.727  11.929  1.7105 -0.5788 -0.3504
 2882TIP3    H232842   2.053   2.600  11.972 -0.4011  0.5943 -0.1846
 2883TIP3   OH232843   3.236   3.040  12.579  0.3899  0.2738  0.2100
 2883TIP3    H132844   3.257   2.960  12.629 -2.2112 -1.3689 -1.0844
 2883TIP3    H232845   3.144   3.029  12.554 -0.0104  3.6438 -0.2164
 2884TIP3   OH232846   4.411   6.200   9.898 -0.1135 -0.2004 -0.2410
 2884TIP3    H132847   4.503   6.224   9.887 -0.1948  0.8002  1.1026
 2884TIP3    H232848   4.362   6.276   9.866 -0.4679 -0.5743 -0.5943
 2885TIP3   OH232849   4.000   6.921  12.874  0.3732  0.2724 -0.2410
 2885TIP3    H132850   4.003   6.836  12.830  0.5332  0.3057 -0.2973
 2885TIP3    H232851   4.051   6.908  12.954  1.0501  0.5215 -0.6190
 2886TIP3   OH232852   7.541   3.730  12.438 -0.1787 -0.0143  0.2448
 2886TIP3    H132853   7.563   3.707  12.528  0.4252 -1.2250 -0.1943
 2886TIP3    H232854   7.467   3.674  12.417 -0.6661  0.6517  0.1468
 2887TIP3   OH232855   3.592   4.872  11.230  0.1244  0.0982  0.7863
 2887TIP3    H132856   3.524   4.847  11.294 -1.5254  1.6357 -0.2709
 2887TIP3    H232857   3.607   4.965  11.247  2.6620 -0.3928  1.5529
 2888TIP3   OH232858   0.843   2.418  10.605  0.0766  0.8567 -0.2036
 2888TIP3    H132859   0.798   2.359  10.545 -0.5533  0.9833  0.1376
 2888TIP3    H232860   0.876   2.488  10.549 -0.5848  1.0194 -0.3982
 2889TIP3   OH232861   6.302   2.173  11.540 -0.0365 -0.4135  0.2761
 2889TIP3    H132862   6.347   2.179  11.625 -3.2852 -1.8842  2.2737
 2889TIP3    H232863   6.233   2.109  11.554 -1.3966  0.0937 -3.2224
 2890TIP3   OH232864   3.382   0.747  11.482  0.0218  0.3452 -0.5931
 2890TIP3    H132865   3.348   0.682  11.543 -1.0476  1.1193 -0.3316
 2890TIP3    H232866   3.471   0.765  11.513  0.3124 -0.9329 -0.6399
 2891TIP3   OH232867   2.306   3.728  10.396 -0.5241  0.1285  0.2323
 2891TIP3    H132868   2.385   3.773  10.366 -0.5392  0.1861  0.2784
 2891TIP3    H232869   2.273   3.683  10.318 -1.8071  2.0850 -0.4248
 2892TIP3   OH232870   0.894   7.021  11.041 -0.5248  0.3188 -0.7559
 2892TIP3    H132871   0.911   7.052  10.952 -0.3533 -0.5064 -1.0167
 2892TIP3    H232872   0.897   7.100  11.095  1.8872  0.5402 -1.1043
 2893TIP3   OH232873   2.623   7.227  11.570  0.3740 -0.0827  0.4490
 2893TIP3    H132874   2.551   7.267  11.619 -0.0642  0.7084 -0.7970
 2893TIP3    H232875   2.639   7.144  11.615 -2.2869 -0.9584 -0.0421
 2894TIP3   OH232876   5.772   1.157   9.913 -0.0139 -0.0492 -0.2248
 2894TIP3    H132877   5.825   1.086   9.877 -1.4227 -2.3857  1.9786
 2894TIP3    H232878   5.684   1.140   9.881 -0.5254  0.2048  0.9976
 2895TIP3   OH232879   6.754   5.144  12.596 -0.0925  0.1328 -0.2365
 2895TIP3    H132880   6.681   5.084  12.615 -0.4785  0.8006  0.4754
 2895TIP3    H232881   6.832   5.096  12.624 -0.0029 -1.3704 -2.7736
 2896TIP3   OH232882   2.598   4.916  10.195  0.0402 -0.1063  0.0908
 2896TIP3    H132883   2.528   4.957  10.143 -0.5557 -1.8168 -0.5582
 2896TIP3    H232884   2.634   4.849  10.136  3.4959  1.8723 -0.2603
 2897TIP3   OH232885   6.241   3.861  10.516 -0.5307 -0.5499 -0.1648
 2897TIP3    H132886   6.154   3.846  10.553 -0.7659 -1.8245 -1.1671
 2897TIP3    H232887   6.259   3.954  10.534 -1.3127 -0.7084  1.6380
 2898TIP3   OH232888   5.994   2.355  10.097  0.2364 -0.4404 -0.3513
 2898TIP3    H132889   5.918   2.325  10.148 -0.7278  0.4263 -1.2403
 2898TIP3    H232890   6.059   2.286  10.109 -0.4150 -0.8518  1.0292
 2899TIP3   OH232891   1.951   1.419  12.202  1.2449  0.1401  0.3418
 2899TIP3    H132892   2.021   1.390  12.144  0.2708  2.6076 -2.2964
 2899TIP3    H232893   1.886   1.349  12.198  2.4294 -1.0395  0.8637
 2900TIP3   OH232894   3.183   3.764  12.288  0.1328 -0.2114 -0.9042
 2900TIP3    H132895   3.189   3.853  12.323 -1.8689 -0.3457 -0.1303
 2900TIP3    H232896   3.133   3.773  12.206 -1.4060 -0.7718 -0.0613
 2901TIP3   OH232897   6.015   4.334  12.113 -0.1200  0.3340  0.0208
 2901TIP3    H132898   6.009   4.240  12.094  0.2501  0.3836 -0.3642
 2901TIP3    H232899   5.950   4.375  12.057  1.7674  0.6020 -2.1399
 2902TIP3   OH232900   3.266   0.659  10.856 -0.2424 -0.2826  0.4128
 2902TIP3    H132901   3.258   0.641  10.762  1.4337 -0.0678  0.1988
 2902TIP3    H232902   3.214   0.591  10.898  0.1046 -1.2297 -0.6396
 2903TIP3   OH232903   3.811   4.282  11.519 -0.0850  0.4252 -0.2943
 2903TIP3    H132904   3.736   4.334  11.490  0.4347  1.7987  0.7179
 2903TIP3    H232905   3.850   4.249  11.439 -1.6627 -0.1980 -0.8574
 2904TIP3   OH232906   5.912   6.134  10.796 -0.6098 -0.0303 -0.2374
 2904TIP3    H132907   5.967   6.062  10.765 -2.0612 -1.3118  0.0402
 2904TIP3    H232908   5.972   6.208  10.802  1.4311 -1.6485  1.3171
 2905TIP3   OH232909   7.250   2.241  11.120  0.2382  0.5358  0.5392
 2905TIP3    H132910   7.267   2.167  11.063 -0.8336 -0.8614  1.9426
 2905TIP3    H232911   7.170   2.281  11.084  0.3865  0.5440  0.2201
 2906TIP3   OH232912   1.517   7.121  11.510  0.1597 -0.2762 -0.0211
 2906TIP3    H132913   1.544   7.211  11.526  1.3715 -0.4991 -0.7075
 2906TIP3    H232914   1.491   7.120  11.418 -0.0761 -0.5811  0.0459
 2907TIP3   OH232915   4.758   0.023  11.345  0.5536 -0.3950  0.4053
 2907TIP3    H132916   4.718   0.108  11.326  0.4763 -0.2353  1.2620
 2907TIP3    H232917   4.838   0.044  11.393  1.3370 -0.7474 -0.7184
 2908TIP3   OH232918   2.760   5.305  10.186  0.4728  0.2410 -0.0080
 2908TIP3    H132919   2.821   5.278  10.118  0.5219  1.6704 -0.5687
 2908TIP3    H232920   2.692   5.237  10.186  1.3784 -0.6820 -0.2566
 2909TIP3   OH232921   3.714   6.212  11.248 -1.1268  0.6568  0.1367
 2909TIP3    H132922   3.747   6.290  11.292  2.0459 -0.7745  0.6427
 2909TIP3    H232923   3.730   6.228  11.155 -0.7528  0.7482  0.2145
 2910TIP3   OH232924   3.800   4.669  11.343 -0.0792 -0.3706 -0.1277
 2910TIP3    H132925   3.786   4.617  11.263 -1.2349 -2.8814  1.5802
 2910TIP3    H232926   3.719   4.719  11.353  0.3750  0.5552 -0.8849
 2911TIP3   OH232927   2.501   7.642  11.663  0.3730 -0.2308 -0.2149
 2911TIP3    H132928   2.570   7.597  11.614  1.1407 -0.0061  0.6420
 2911TIP3    H232929   2.546   7.680  11.738 -0.9548 -1.4866  1.2713
 2912TIP3   OH232930   0.917   5.660  12.767  0.5041 -0.0560  0.1557
 2912TIP3    H132931   0.999   5.612  12.755 -0.3029 -1.6139  0.5334
 2912TIP3    H232932   0.943   5.747  12.796  2.0401 -0.2515 -0.5766
 2913TIP3   OH232933   1.141   5.747  10.984  0.2293 -0.6901  0.1321
 2913TIP3    H132934   1.184   5.806  11.046 -0.6766  1.9403 -1.6315
 2913TIP3    H232935   1.152   5.788  10.899 -2.7931 -1.6543 -0.8485
 2914TIP3   OH232936   0.458   0.786  10.949  0.1845  0.6791 -0.2531
 2914TIP3    H132937   0.444   0.761  10.858  1.1444  0.3445 -0.3178
 2914TIP3    H232938   0.428   0.877  10.955 -1.1541  0.2856 -0.5701
 2915TIP3   OH232939   0.912   1.023  11.347 -0.0637 -0.2683 -0.1619
 2915TIP3    H132940   0.857   0.979  11.282  1.5871 -0.1643 -1.6783
 2915TIP3    H232941   0.876   1.112  11.352 -0.2868 -0.3177 -0.8324
 2916TIP3   OH232942   2.384   3.790  10.788 -0.4321  0.1316 -0.4061
 2916TIP3    H132943   2.300   3.745  10.776 -0.7102  0.6851 -0.5722
 2916TIP3    H232944   2.383   3.819  10.879 -1.1479  1.5549 -0.8333
 2917TIP3   OH232945   2.097   5.532  12.413  0.4374  0.3952 -0.1348
 2917TIP3    H132946   2.111   5.481  12.334  2.1869  0.0302  0.3774
 2917TIP3    H232947   2.034   5.481  12.464  0.2986 -0.0108 -0.7136
 2918TIP3   OH232948   5.987   2.596   9.973  0.2146  0.4546  0.9659
 2918TIP3    H132949   6.045   2.564   9.904  1.2413  1.7054  1.1973
 2918TIP3    H232950   5.974   2.521  10.031 -1.4978 -0.9296 -1.0646
 2919TIP3   OH232951   0.423   2.332  11.962  0.3956 -0.5093  0.4670
 2919TIP3    H132952   0.372   2.377  12.029 -0.0227  0.5507 -0.5383
 2919TIP3    H232953   0.358   2.278  11.916 -0.0372  1.3753 -1.2726
 2920TIP3   OH232954   1.562   3.175  11.134  0.2278 -0.2258  0.6566
 2920TIP3    H132955   1.580   3.082  11.149  1.1224 -0.1990 -0.1851
 2920TIP3    H232956   1.634   3.221  11.177  2.2985 -0.1134 -2.5966
 2921TIP3   OH232957   7.328   4.979  11.648 -0.0018 -0.1949  0.0765
 2921TIP3    H132958   7.402   5.026  11.688  0.1379 -0.3222 -0.0276
 2921TIP3    H232959   7.365   4.943  11.567 -0.4646  0.6508 -0.5215
 2922TIP3   OH232960   0.078   7.410  11.255 -0.1061  0.2172  0.1609
 2922TIP3    H132961   0.088   7.315  11.250  1.9611  0.4399 -0.5692
 2922TIP3    H232962   0.166   7.444  11.271 -0.6021  2.0822 -0.7035
 2923TIP3   OH232963   5.216   3.108  12.358  0.2928 -0.7054 -0.1554
 2923TIP3    H132964   5.144   3.059  12.399  1.7855 -2.4831  0.5292
 2923TIP3    H232965   5.229   3.065  12.274  1.1715 -1.0666  0.1538
 2924TIP3   OH232966   7.101   1.839  12.116  0.0323 -0.1086  0.3525
 2924TIP3    H132967   7.060   1.772  12.062  0.2361 -0.2786  0.4052
 2924TIP3    H232968   7.032   1.866  12.177 -0.1851  0.0566  0.0369
 2925TIP3   OH232969   2.033   7.445  11.123 -0.2220 -0.0643  0.2155
 2925TIP3    H132970   2.043   7.514  11.188 -0.7199  1.0166 -0.8140
 2925TIP3    H232971   2.074   7.368  11.163  0.2669  0.7930  1.4251
 2926TIP3   OH232972   3.231   6.160  10.914  0.3033  0.1953 -0.3454
 2926TIP3    H132973   3.322   6.185  10.932  0.3306 -0.2682  0.2231
 2926TIP3    H232974   3.229   6.066  10.931 -0.5505  0.3986  0.7956
 2927TIP3   OH232975   7.130   3.225  12.787 -0.3376  1.2205 -0.0245
 2927TIP3    H132976   7.075   3.160  12.830 -0.9754  1.2774 -0.7247
 2927TIP3    H232977   7.190   3.175  12.732  1.7821  1.0347  2.3154
 2928TIP3   OH232978   4.657   5.289  12.721 -0.5483 -0.1123 -0.0634
 2928TIP3    H132979   4.665   5.194  12.706  1.1807 -0.1185  0.6204
 2928TIP3    H232980   4.702   5.304  12.804 -1.0291  1.2804 -0.0289
 2929TIP3   OH232981   6.237   0.438  11.444 -0.0741  0.2564 -0.1554
 2929TIP3    H132982   6.171   0.504  11.424  0.7881  0.6993 -1.8288
 2929TIP3    H232983   6.261   0.402  11.358  1.3356 -0.3797  0.4668
 2930TIP3   OH232984   0.801   7.650  11.876  0.3791 -0.2701  0.2666
 2930TIP3    H132985   0.780   7.619  11.964 -0.2594  1.1404  0.6297
 2930TIP3    H232986   0.862   7.722  11.890 -0.8661  0.9488 -0.3251
 2931TIP3   OH232987   4.343   4.124  10.466  0.5289  0.2682  0.1207
 2931TIP3    H132988   4.405   4.051  10.470 -0.0819 -0.2239  1.3187
 2931TIP3    H232989   4.259   4.085  10.488 -0.4891  0.6911 -2.6818
 2932TIP3   OH232990   1.546   1.335  11.836 -0.0115  0.1789 -0.0660
 2932TIP3    H132991   1.477   1.396  11.863 -0.1188 -0.2259  0.5984
 2932TIP3    H232992   1.520   1.307  11.748 -1.0033 -0.3769  0.3788
 2933TIP3   OH232993   6.273   4.531  10.878  0.0492  0.4788 -0.8118
 2933TIP3    H132994   6.283   4.444  10.918  1.6183  1.3184  0.7635
 2933TIP3    H232995   6.307   4.520  10.789  0.4195 -0.4823 -0.5698
 2934TIP3   OH232996   0.963   3.811  10.771 -0.3403 -0.0185  0.1216
 2934TIP3    H132997   0.899   3.802  10.842 -0.5510  0.2166 -0.0398
 2934TIP3    H232998   0.918   3.862  10.704  0.2055  0.6157  0.2321
 2935TIP3   OH232999   2.942   1.709  12.355 -0.1703  0.0156  0.0192
 2935TIP3    H133000   2.848   1.697  12.367 -0.1423 -0.0385  0.1849
 2935TIP3    H233001   2.982   1.629  12.389  0.0824  0.9635  2.0960
 2936TIP3   OH233002   3.760   3.123  11.663 -0.1576  0.1354 -0.5244
 2936TIP3    H133003   3.801   3.059  11.721 -0.4337  0.2119 -0.2419
 2936TIP3    H233004   3.679   3.147  11.707 -1.4511 -1.4024 -1.9542
 2937TIP3   OH233005   7.424   2.786  11.049  0.4771  0.1086  0.3475
 2937TIP3    H133006   7.346   2.822  11.091 -0.0983  0.1196 -0.6975
 2937TIP3    H233007   7.496   2.814  11.105 -0.2976 -0.3505  1.6383
 2938TIP3   OH233008   5.808   6.719  12.124 -0.2088  0.3583 -0.3254
 2938TIP3    H133009   5.894   6.678  12.121  0.5555  1.6464  1.7223
 2938TIP3    H233010   5.797   6.758  12.037  1.4468  0.4448 -0.5264
 2939TIP3   OH233011   0.441   0.753  10.664  0.1914  0.5643 -0.0790
 2939TIP3    H133012   0.431   0.747  10.569  0.3135 -2.2216 -0.0110
 2939TIP3    H233013   0.533   0.776  10.677  0.0246  1.5886 -0.6036
 2940TIP3   OH233014   5.625   4.856  11.563  0.5298 -0.4993  0.1450
 2940TIP3    H133015   5.685   4.783  11.575 -1.2798 -1.8822  1.4058
 2940TIP3    H233016   5.551   4.819  11.515 -0.7035  0.3047  1.3369
 2941TIP3   OH233017   3.467   3.420  12.495  0.2143  0.4830  0.1732
 2941TIP3    H133018   3.546   3.382  12.456  0.3891  0.5173  0.4894
 2941TIP3    H233019   3.452   3.501  12.446 -0.5821 -0.3558 -0.9956
 2942TIP3   OH233020   2.132   2.793  12.337  0.1797  0.0778  0.2349
 2942TIP3    H133021   2.099   2.722  12.392 -1.0218 -1.9810 -2.8276
 2942TIP3    H233022   2.060   2.856  12.334 -0.7944 -1.0288 -0.8785
 2943TIP3   OH233023   1.379   2.692  10.090  0.1512 -0.7395 -0.4121
 2943TIP3    H133024   1.416   2.618  10.042 -2.2187 -2.2458 -0.1052
 2943TIP3    H233025   1.285   2.686  10.074 -0.3874  0.6318  1.8064
 2944TIP3   OH233026   6.297   1.658  10.069  0.1056 -0.0533 -0.0020
 2944TIP3    H133027   6.375   1.713  10.078 -0.0738 -0.1046  2.7954
 2944TIP3    H233028   6.326   1.571  10.100 -0.4718 -0.6905 -1.2023
 2945TIP3   OH233029   7.415   6.487  11.305  0.2415 -0.1385 -0.2055
 2945TIP3    H133030   7.509   6.473  11.307  0.6121  1.8816 -1.1016
 2945TIP3    H233031   7.379   6.419  11.361  2.0089 -2.6028 -1.8655
 2946TIP3   OH233032   3.638   0.780  11.531 -0.5770  0.4259 -0.3493
 2946TIP3    H133033   3.662   0.778  11.624 -0.5777  0.7531 -0.3416
 2946TIP3    H233034   3.687   0.854  11.495  0.7979 -0.7641 -0.9913
 2947TIP3   OH233035   0.718   6.786  11.485 -0.1342 -0.1059 -0.4160
 2947TIP3    H133036   0.645   6.774  11.424  0.0279 -1.5033 -0.3727
 2947TIP3    H233037   0.787   6.730  11.450 -0.1521 -1.2075  1.2052
 2948TIP3   OH233038   5.317   6.169  12.729  0.2935  0.4300  0.2206
 2948TIP3    H133039   5.264   6.240  12.691  1.5474  0.5425 -1.4254
 2948TIP3    H233040   5.276   6.089  12.697 -0.5750  0.4090  1.3299
 2949TIP3   OH233041   3.076   5.749  12.147 -0.4453  0.2615 -0.3982
 2949TIP3    H133042   3.112   5.729  12.061  1.2503 -1.0132  0.5378
 2949TIP3    H233043   3.058   5.843  12.145  0.4325  0.4254 -1.8260
 2950TIP3   OH233044   5.433   3.069  11.845 -0.3888  0.0604 -0.3006
 2950TIP3    H133045   5.380   3.148  11.847 -1.5145 -0.6696  1.1211
 2950TIP3    H233046   5.388   3.010  11.784 -0.5039 -0.0946 -0.0682
 2951TIP3   OH233047   1.345   2.760  12.328 -0.3017  0.3360  0.2999
 2951TIP3    H133048   1.324   2.676  12.287  0.5208 -0.1907  0.9229
 2951TIP3    H233049   1.390   2.810  12.260  1.7149 -0.8076  0.7159
 2952TIP3   OH233050   7.561   4.737  12.737  0.2586  0.5627  0.2254
 2952TIP3    H133051   7.631   4.767  12.678 -0.2040  0.5602 -0.3320
 2952TIP3    H233052   7.579   4.643  12.748  0.9217  0.7556  0.8942
 2953TIP3   OH233053   4.206   5.463  10.663  0.3654 -0.3922 -0.7755
 2953TIP3    H133054   4.238   5.375  10.645  0.3250 -0.3047 -1.2930
 2953TIP3    H233055   4.145   5.481  10.592  0.7642  0.2513 -0.9660
 2954TIP3   OH233056   7.366   3.436  10.949 -0.4118  0.9369 -0.0028
 2954TIP3    H133057   7.414   3.422  11.031  0.7820 -0.6668 -0.9334
 2954TIP3    H233058   7.421   3.496  10.899  0.1419 -0.1039 -0.6598
 2955TIP3   OH233059   1.730   5.517  10.753 -0.4461 -0.4021 -0.8665
 2955TIP3    H133060   1.778   5.518  10.669  0.1664 -4.0929 -0.7293
 2955TIP3    H233061   1.799   5.506  10.819 -1.0537  0.8899  0.0133
 2956TIP3   OH233062   7.176   1.297   9.921  0.2766 -0.0359 -0.3838
 2956TIP3    H133063   7.244   1.336   9.866  0.4490  0.2383  0.0223
 2956TIP3    H233064   7.118   1.252   9.859  1.6394 -1.5633 -0.6134
 2957TIP3   OH233065   7.153   0.322  12.241  0.4048 -0.2641  0.7614
 2957TIP3    H133066   7.241   0.334  12.207  0.7028  1.5336  2.0281
 2957TIP3    H233067   7.165   0.313  12.336 -0.7954  0.5685  1.0212
 2958TIP3   OH233068   0.423   5.466  11.342 -0.2235  0.1011 -0.0652
 2958TIP3    H133069   0.498   5.450  11.399 -0.8153  1.8569  1.2902
 2958TIP3    H233070   0.398   5.379  11.310 -0.1808 -1.0436  2.7832
 2959TIP3   OH233071   1.372   0.253  11.127 -0.4562 -0.1084 -0.0108
 2959TIP3    H133072   1.297   0.208  11.166 -0.4999 -0.1884 -0.1838
 2959TIP3    H233073   1.369   0.341  11.164  2.0560 -1.3321  3.6886
 2960TIP3   OH233074   7.568   5.906  12.452 -0.7872  0.0368  0.0305
 2960TIP3    H133075   7.553   6.000  12.442  0.3237  0.2866  0.4940
 2960TIP3    H233076   7.657   5.893  12.418  0.5262 -0.1955  3.2104
 2961TIP3   OH233077   0.805   0.926  12.044 -0.2014 -0.1994  0.2169
 2961TIP3    H133078   0.863   0.873  11.990 -1.2882 -2.5631  1.2453
 2961TIP3    H233079   0.863   0.987  12.089  1.3165 -1.5746  0.2063
 2962TIP3   OH233080   3.924   1.781  10.377 -0.4636  0.6678  0.3058
 2962TIP3    H133081   3.831   1.756  10.378 -0.2961  0.0413  1.7263
 2962TIP3    H233082   3.927   1.857  10.319 -1.8033  0.4612 -0.0687
 2963TIP3   OH233083   6.791   5.794  11.671 -0.1933 -0.0269 -0.4763
 2963TIP3    H133084   6.806   5.725  11.606 -0.4141 -0.7213  0.1937
 2963TIP3    H233085   6.748   5.864  11.623  0.8402  0.0266 -1.3721
 2964TIP3   OH233086   0.338   2.561  11.680  0.6979  0.3930 -0.2964
 2964TIP3    H133087   0.423   2.547  11.721  0.8144  0.3717 -0.5401
 2964TIP3    H233088   0.276   2.514  11.735  0.9424 -0.1876 -0.5151
 2965TIP3   OH233089   2.321   6.024  10.515 -0.0759  0.1882  0.0173
 2965TIP3    H133090   2.340   5.965  10.442 -1.5224  0.1746 -0.3839
 2965TIP3    H233091   2.323   6.111  10.476 -0.3027  0.2248  0.0883
 2966TIP3   OH233092   5.949   5.913  10.477  0.1461  0.2638 -0.0176
 2966TIP3    H133093   5.883   5.914  10.408  1.3449  1.6586 -1.2009
 2966TIP3    H233094   6.022   5.865  10.440  0.5687  0.4652  0.5416
 2967TIP3   OH233095   6.869   7.499  11.318 -0.2599 -0.4151  0.0312
 2967TIP3    H133096   6.876   7.591  11.296  1.4453 -0.3645  0.5864
 2967TIP3    H233097   6.873   7.496  11.414  0.6915 -1.0839 -0.0044
 2968TIP3   OH233098   6.994   0.002  10.779  0.2004 -0.2094 -0.0360
 2968TIP3    H133099   7.003   0.046  10.694 -0.0174  1.5858  0.8305
 2968TIP3    H233100   7.082   0.004  10.816 -0.0215  0.5293  0.4744
 2969TIP3   OH233101   4.039   6.438  11.739  0.5107  0.5734  0.6871
 2969TIP3    H133102   4.058   6.515  11.792 -1.0675  0.1918  1.8674
 2969TIP3    H233103   4.117   6.427  11.684  0.7208  3.0679  0.3856
 2970TIP3   OH233104   0.182   4.794  11.242 -0.1087 -0.1979  0.2853
 2970TIP3    H133105   0.185   4.715  11.189  0.0961 -0.7857  1.1451
 2970TIP3    H233106   0.124   4.853  11.195 -1.6889 -1.5228  0.4849
 2971TIP3   OH233107   3.984   6.443  12.900 -0.0737 -0.6205  0.3855
 2971TIP3    H133108   3.949   6.402  12.979 -1.3070 -0.3644 -0.0043
 2971TIP3    H233109   3.947   6.390  12.828 -0.3375  0.1671 -0.0667
 2972TIP3   OH233110   5.215   1.682  12.639 -0.1121 -0.5634  0.3714
 2972TIP3    H133111   5.261   1.766  12.639 -1.6213  0.3372 -1.1368
 2972TIP3    H233112   5.151   1.690  12.710 -0.4526 -0.2921  0.0424
 2973TIP3   OH233113   5.737   6.384  12.590  0.4702 -0.1975 -0.7796
 2973TIP3    H133114   5.691   6.393  12.674 -0.5476 -1.3278 -1.1844
 2973TIP3    H233115   5.713   6.463  12.541  0.6971  0.2466 -0.1874
 2974TIP3   OH233116   4.976   7.552  10.657  0.1326 -0.0786 -0.3971
 2974TIP3    H133117   4.892   7.542  10.612  0.4358 -0.7973 -0.8190
 2974TIP3    H233118   5.005   7.640  10.635 -1.7064  1.2026  1.8417
 2975TIP3   OH233119   5.042   1.503  10.527 -0.0935  0.0074  0.4237
 2975TIP3    H133120   5.092   1.582  10.504 -1.3455  0.2411 -1.6966
 2975TIP3    H233121   4.972   1.535  10.583 -1.0835  0.5699 -1.0985
 2976TIP3   OH233122   0.681   2.041  10.921  0.2554  0.3434 -0.1670
 2976TIP3    H133123   0.630   2.117  10.893 -0.6471  0.4366  1.6101
 2976TIP3    H233124   0.645   2.018  11.006  1.0844 -1.5685 -0.2875
 2977TIP3   OH233125   5.526   0.758  12.070 -0.0086 -0.2437 -0.7421
 2977TIP3    H133126   5.482   0.791  12.148 -0.3252 -0.9068 -0.6306
 2977TIP3    H233127   5.510   0.825  12.003 -2.2753 -0.9904 -1.0500
 2978TIP3   OH233128   1.829   6.298  12.165 -0.3677 -0.1578  1.3112
 2978TIP3    H133129   1.756   6.284  12.106 -0.6266 -0.4820  1.7004
 2978TIP3    H233130   1.903   6.254  12.124  0.2403  2.2268 -0.3089
 2979TIP3   OH233131   0.794   5.251  12.736  0.1233  0.2660  0.1147
 2979TIP3    H133132   0.885   5.259  12.708 -0.7021 -0.4716 -3.2992
 2979TIP3    H233133   0.787   5.164  12.774  0.7237  0.0670 -0.2249
 2980TIP3   OH233134   2.071   0.394  12.596 -0.0267 -0.3910  0.5767
 2980TIP3    H133135   2.111   0.468  12.549  1.0021 -0.1408  1.7716
 2980TIP3    H233136   1.994   0.431  12.638 -0.0357 -0.2148  0.4059
 2981TIP3   OH233137   3.548   2.372  11.779  0.2893  0.1664 -0.1720
 2981TIP3    H133138   3.611   2.423  11.830  0.3155  2.0304 -1.9388
 2981TIP3    H233139   3.468   2.423  11.781 -0.4980 -1.0387  0.1300
 2982TIP3   OH233140   4.570   6.281  10.642  0.4661 -0.1232  0.1607
 2982TIP3    H133141   4.496   6.222  10.634  1.2902 -0.9912 -1.6430
 2982TIP3    H233142   4.598   6.272  10.733 -0.0881 -1.6960  0.2095
 2983TIP3   OH233143   6.044   7.597  12.383 -0.5931  0.5922  0.3828
 2983TIP3    H133144   6.088   7.582  12.300 -2.3722  0.4162 -0.5709
 2983TIP3    H233145   6.115   7.607  12.446  0.8071  1.2376 -1.2218
 2984TIP3   OH233146   7.620   6.275  11.880 -0.3884  0.2041  0.3236
 2984TIP3    H133147   7.602   6.181  11.872 -0.5394  0.1747  0.9800
 2984TIP3    H233148   7.620   6.292  11.974  1.4740  0.5069  0.3182
 2985TIP3   OH233149   5.539   0.894  11.632  0.6125 -0.0367 -0.3681
 2985TIP3    H133150   5.609   0.924  11.690  0.6826 -2.5216  0.9628
 2985TIP3    H233151   5.564   0.926  11.545  4.0297 -1.7688 -0.1660
 2986TIP3   OH233152   1.350   6.590  11.183  0.1375 -0.1513  0.0234
 2986TIP3    H133153   1.405   6.518  11.153  0.8305  1.9240 -4.4789
 2986TIP3    H233154   1.260   6.561  11.163  0.0529 -1.0137  1.4772
 2987TIP3   OH233155   2.791   0.180  12.622  0.0166 -0.4179  0.0644
 2987TIP3    H133156   2.696   0.182  12.633 -0.5282  0.1189 -3.4956
 2987TIP3    H233157   2.824   0.246  12.683 -2.2178  1.5951 -0.7510
 2988TIP3   OH233158   4.783   6.463  12.461 -0.0217  0.6936 -0.7167
 2988TIP3    H133159   4.709   6.523  12.470 -0.8614 -0.2045 -1.3555
 2988TIP3    H233160   4.785   6.442  12.367  1.0403  0.6881 -0.6995
 2989TIP3   OH233161   4.622   3.038  12.034  0.1828  0.1253 -0.8898
 2989TIP3    H133162   4.612   3.133  12.029 -0.5655  0.3550  2.7207
 2989TIP3    H233163   4.716   3.024  12.045  0.2067  0.5014 -0.6051
 2990TIP3   OH233164   0.096   7.125  12.247 -0.0765 -0.3794  0.0846
 2990TIP3    H133165   0.119   7.035  12.222 -0.6709 -0.4875 -0.0941
 2990TIP3    H233166   0.120   7.177  12.170 -3.9587 -0.9926 -1.7989
 2991TIP3   OH233167   7.526   3.966  12.313  0.5176 -0.4340 -0.9528
 2991TIP3    H133168   7.527   3.877  12.350 -0.3643 -0.0353  0.0726
 2991TIP3    H233169   7.497   4.022  12.385  2.4847  0.9183 -1.1312
 2992TIP3   OH233170   5.994   2.186  10.673  0.1583  0.1270 -0.1802
 2992TIP3    H133171   6.006   2.271  10.714  0.6546 -0.3386  0.6833
 2992TIP3    H233172   5.899   2.175  10.666 -0.0938 -0.6580  2.8579
 2993TIP3   OH233173   5.485   3.259  11.126 -0.2751  0.1366  0.3985
 2993TIP3    H133174   5.538   3.321  11.176 -0.1557 -0.3016  0.8234
 2993TIP3    H233175   5.506   3.174  11.164 -1.2563 -0.0476  0.5467
 2994TIP3   OH233176   1.637   5.669  12.127  0.4658  0.1703  0.2876
 2994TIP3    H133177   1.722   5.704  12.153 -0.0191  0.9065  0.9071
 2994TIP3    H233178   1.596   5.643  12.209  0.2934 -0.6821 -0.0565
 2995TIP3   OH233179   3.999   5.187   9.927 -0.1252 -0.0443 -0.4742
 2995TIP3    H133180   3.911   5.222   9.917 -0.0203  0.1774 -0.6267
 2995TIP3    H233181   4.043   5.246   9.988  0.0583  0.1080 -0.7499
 2996TIP3   OH233182   2.454   3.631  11.206 -0.0064 -0.0478 -0.1584
 2996TIP3    H133183   2.374   3.626  11.153 -0.1706 -1.6124  0.1981
 2996TIP3    H233184   2.433   3.585  11.287  0.7785  0.8854  0.6094
 2997TIP3   OH233185   4.890   4.679  12.367  0.3609  0.1440  0.4914
 2997TIP3    H133186   4.869   4.593  12.402 -1.1158 -0.5543 -1.8821
 2997TIP3    H233187   4.986   4.682  12.367  0.4280 -0.7435  2.2138
 2998TIP3   OH233188   0.054   1.571  11.340  0.2233  0.5334 -0.0314
 2998TIP3    H133189   0.000   1.604  11.412  0.4868 -1.6308  1.2321
 2998TIP3    H233190   0.019   1.615  11.262  0.2237  3.3042  1.3967
 2999TIP3   OH233191   1.767   2.196  11.610  0.1465  0.1465  0.1009
 2999TIP3    H133192   1.862   2.210  11.612  0.1638  0.1610 -0.5500
 2999TIP3    H233193   1.757   2.102  11.596  0.0782  0.2537 -0.6129
 3000TIP3   OH233194   5.179   3.702  12.160 -0.1526 -0.2285 -0.1823
 3000TIP3    H133195   5.170   3.635  12.227 -0.5045 -1.9193 -1.8185
 3000TIP3    H233196   5.271   3.698  12.134 -0.0610  0.2818  0.0550
 3001TIP3   OH233197   1.443   1.911  11.254  0.1303 -0.0931 -0.0402
 3001TIP3    H133198   1.380   1.971  11.293 -1.2483 -1.2093 -0.5013
 3001TIP3    H233199   1.520   1.966  11.236 -1.0004  1.4792 -0.2394
 3002TIP3   OH233200   7.233   4.640  10.920  0.4159  0.1121  0.2868
 3002TIP3    H133201   7.225   4.734  10.907  0.0139  0.2027  1.0989
 3002TIP3    H233202   7.223   4.628  11.014 -1.1490 -0.8818  0.0358
 3003TIP3   OH233203   2.950   5.951  11.260  0.0834  0.6157  0.0891
 3003TIP3    H133204   2.906   6.021  11.212  1.1903  2.9834  2.2386
 3003TIP3    H233205   3.041   5.954  11.230  0.2123  0.3707  0.4411
 3004TIP3   OH233206   3.055   7.090  11.402  0.1515  0.0750  0.2687
 3004TIP3    H133207   3.005   7.165  11.371 -1.9189 -0.8603  1.1511
 3004TIP3    H233208   3.073   7.039  11.323 -0.8403  0.1305 -0.0032
 3005TIP3   OH233209   2.114   3.714  10.063  0.0878  0.0740  0.4188
 3005TIP3    H133210   2.086   3.628  10.096 -0.7491 -0.6497 -1.9722
 3005TIP3    H233211   2.208   3.705  10.052  0.1014 -0.3124  0.8084
 3006TIP3   OH233212   5.607   5.316  11.873 -0.5815  0.0177 -0.2688
 3006TIP3    H133213   5.538   5.256  11.900 -3.1472  3.0257  0.5028
 3006TIP3    H233214   5.688   5.272  11.898 -2.3047 -2.4999  1.4501
 3007TIP3   OH233215   5.329   3.893  11.865  0.4117  0.2407  0.3615
 3007TIP3    H133216   5.394   3.912  11.932  2.3170  3.7082 -2.1287
 3007TIP3    H233217   5.266   3.966  11.872 -0.1161 -0.0901 -0.7467
 3008TIP3   OH233218   5.672   0.944  12.412 -0.1963 -0.0510  0.7650
 3008TIP3    H133219   5.610   0.990  12.355  1.9190  0.3287 -1.3471
 3008TIP3    H233220   5.702   0.869  12.360  1.2862 -0.1005  1.6335
 3009TIP3   OH233221   6.410   1.424  11.655  0.2837  0.3492  0.4043
 3009TIP3    H133222   6.504   1.404  11.657  0.5845  1.4529 -1.0154
 3009TIP3    H233223   6.402   1.506  11.703 -0.0100  0.1190  0.7560
 3010TIP3   OH233224   1.820   2.445  11.109 -0.8411 -0.0469 -0.9076
 3010TIP3    H133225   1.864   2.510  11.164 -0.0907 -1.1022 -0.2131
 3010TIP3    H233226   1.834   2.477  11.019  0.9902 -0.1048 -0.6854
 3011TIP3   OH233227   6.675   4.671  10.837  0.2833 -0.1844  0.2724
 3011TIP3    H133228   6.657   4.578  10.821 -1.5462 -0.2131  2.1486
 3011TIP3    H233229   6.670   4.711  10.750  1.3178 -1.8338 -0.6081
 3012TIP3   OH233230   2.659   2.581  10.788 -0.2487  0.0916 -0.3151
 3012TIP3    H133231   2.739   2.627  10.813 -0.9794  0.9142  0.5836
 3012TIP3    H233232   2.602   2.650  10.753 -0.5946 -0.4737 -0.8924
 3013TIP3   OH233233   7.433   5.594  10.814  0.7903  0.4208 -0.0634
 3013TIP3    H133234   7.449   5.644  10.894 -1.6587  1.7520 -0.3089
 3013TIP3    H233235   7.373   5.649  10.763  4.0575  0.8036 -4.0118
 3014TIP3   OH233236   7.031   2.789  12.926 -0.0505 -0.0805 -0.7539
 3014TIP3    H133237   7.017   2.770  13.019 -0.1647  1.0235 -0.5324
 3014TIP3    H233238   6.959   2.848  12.902  0.3564  0.1768 -1.3688
 3015TIP3   OH233239   6.044   0.247  12.186  0.1249  0.7355  0.0686
 3015TIP3    H133240   6.069   0.331  12.226  0.0032  0.9456 -0.2869
 3015TIP3    H233241   5.949   0.242  12.199 -0.0290  1.1346 -0.7843
 3016TIP3   OH233242   4.577   6.203  10.938  0.2478  0.2673 -0.4050
 3016TIP3    H133243   4.492   6.201  10.981 -0.0743 -0.2163 -1.0517
 3016TIP3    H233244   4.616   6.286  10.966 -0.2411  0.2846  0.2480
 3017TIP3   OH233245   4.423   4.829  10.241  0.1254 -0.1141  0.2869
 3017TIP3    H133246   4.492   4.777  10.283  1.1647  1.3039  0.4158
 3017TIP3    H233247   4.451   4.834  10.149 -0.5718 -0.7068  0.0325
 3018TIP3   OH233248   2.688   3.456  11.204  0.0788  0.7364  0.0571
 3018TIP3    H133249   2.623   3.526  11.211 -2.1975 -1.3561  1.0331
 3018TIP3    H233250   2.675   3.420  11.116  0.7293  1.0108 -0.1599
 3019TIP3   OH233251   5.916   5.079  11.290  0.2157 -0.6947  0.0813
 3019TIP3    H133252   5.978   5.032  11.345  0.8378 -1.4225 -1.1893
 3019TIP3    H233253   5.848   5.109  11.350  1.5718 -0.2326  1.4468
 3020TIP3   OH233254   3.789   7.101  10.747 -0.0095 -0.1171 -0.0863
 3020TIP3    H133255   3.858   7.145  10.797 -0.0450  0.5086 -0.5697
 3020TIP3    H233256   3.722   7.080  10.812 -0.3159  1.2115  0.0599
 3021TIP3   OH233257   6.955   4.915  10.748  0.4739  0.1905 -0.1226
 3021TIP3    H133258   6.885   4.973  10.719 -0.3371 -0.5489  0.3086
 3021TIP3    H233259   6.932   4.830  10.711  2.3426  0.3719 -1.8690
 3022TIP3   OH233260   4.123   2.804  11.145 -0.2744 -0.2149  0.2360
 3022TIP3    H133261   4.216   2.784  11.137 -0.1570  0.6228 -0.8170
 3022TIP3    H233262   4.078   2.722  11.127  0.2282 -0.1247 -1.6381
 3023TIP3   OH233263   6.357   7.056  11.000 -0.3574  0.3684  0.1613
 3023TIP3    H133264   6.380   7.050  11.093  0.0914 -0.8556 -0.0159
 3023TIP3    H233265   6.279   7.001  10.991  0.3750 -0.5934 -0.4262
 3024TIP3   OH233266   7.186   5.443  11.509 -0.5863 -0.4585  0.2957
 3024TIP3    H133267   7.272   5.485  11.510  0.2205 -2.0522  1.6696
 3024TIP3    H233268   7.199   5.361  11.462 -1.7086 -0.0931 -0.7046
 3025TIP3   OH233269   7.048   0.389  10.154 -1.0065  0.1138  0.1284
 3025TIP3    H133270   7.043   0.325  10.083  1.1576 -1.2786  1.1203
 3025TIP3    H233271   7.040   0.474  10.111 -1.0584 -0.7289 -1.6115
 3026TIP3   OH233272   4.871   3.008  12.146 -0.2521  0.3704  0.7889
 3026TIP3    H133273   4.902   3.011  12.236  2.4274 -1.4291  0.0742
 3026TIP3    H233274   4.935   3.060  12.097 -0.8954  0.2259 -0.2505
 3027TIP3   OH233275   6.581   3.329  10.064  0.3694  0.6026 -0.0955
 3027TIP3    H133276   6.556   3.407  10.015 -2.3804  0.7008  1.2667
 3027TIP3    H233277   6.504   3.309  10.117  1.5096 -2.2306  0.6513
 3028TIP3   OH233278   6.089   5.152  12.182  0.2811 -0.5664 -0.1538
 3028TIP3    H133279   6.168   5.160  12.235 -0.4393  2.9564  0.6126
 3028TIP3    H233280   6.019   5.136  12.245 -0.0747 -0.2790 -0.4740
 3029TIP3   OH233281   2.088   6.056  12.572  0.0379 -0.4956 -0.4944
 3029TIP3    H133282   2.124   5.977  12.531 -0.4471 -0.9128 -0.1306
 3029TIP3    H233283   2.143   6.072  12.648  1.0036  0.3373 -1.3250
 3030TIP3   OH233284   5.265   3.501  12.616 -0.0464 -0.4461 -0.6055
 3030TIP3    H133285   5.265   3.422  12.670 -0.3445  0.4449  0.7312
 3030TIP3    H233286   5.279   3.468  12.527  0.3554 -1.9580 -0.0261
 3031TIP3   OH233287   0.761   2.819  11.388  0.0715 -0.0794 -0.5103
 3031TIP3    H133288   0.791   2.888  11.328 -1.1563  0.7472 -0.2184
 3031TIP3    H233289   0.666   2.831  11.393  0.2544  1.0820  2.9958
 3032TIP3   OH233290   5.685   3.635  11.423 -0.8541  0.2711  0.0841
 3032TIP3    H133291   5.629   3.564  11.455 -0.1358  0.1212  1.0470
 3032TIP3    H233292   5.624   3.706  11.401 -1.3950  0.4023  1.8524
 3033TIP3   OH233293   0.620   5.151  11.683 -0.5866 -0.2717  0.0009
 3033TIP3    H133294   0.583   5.180  11.766  0.2582  1.3215 -0.1402
 3033TIP3    H233295   0.569   5.073  11.659 -0.4307 -1.1475  2.3099
 3034TIP3   OH233296   0.752   6.780  11.195 -0.2515 -0.3745  0.3258
 3034TIP3    H133297   0.837   6.785  11.239  0.1247 -0.3127 -0.4013
 3034TIP3    H233298   0.708   6.706  11.238  0.2019 -0.4691  0.6424
 3035TIP3   OH233299   0.419   5.279  12.180  0.1182 -0.4760  0.1752
 3035TIP3    H133300   0.378   5.243  12.258 -1.8842 -1.1356 -1.1116
 3035TIP3    H233301   0.367   5.356  12.158 -0.2123 -1.0776 -1.2577
 3036TIP3   OH233302   4.259   3.260  11.476 -0.3548  0.0655 -0.3528
 3036TIP3    H133303   4.236   3.238  11.566  0.2930 -0.8997 -0.4087
 3036TIP3    H233304   4.262   3.175  11.431 -0.6247  0.5343 -1.2704
 3037TIP3   OH233305   3.379   7.587  11.627  0.7240  0.1767  0.4243
 3037TIP3    H133306   3.471   7.591  11.652  0.8230 -0.2372  0.1378
 3037TIP3    H233307   3.334   7.639  11.693  1.1130  0.0354  0.8077
 3038TIP3   OH233308   2.720   5.807  11.496  0.3860 -0.3347 -0.1323
 3038TIP3    H133309   2.679   5.755  11.426 -0.3118 -0.0221  0.0314
 3038TIP3    H233310   2.673   5.781  11.575 -0.1234  0.6948 -0.0768
 3039TIP3   OH233311   2.928   4.854  12.511  0.3016 -0.9130  0.7161
 3039TIP3    H133312   3.000   4.833  12.452  1.8226  0.5576  1.9633
 3039TIP3    H233313   2.966   4.911  12.577 -2.7620  3.4084 -0.7791
 3040TIP3   OH233314   5.545   0.943  12.805  0.4812  0.0231 -0.1238
 3040TIP3    H133315   5.468   0.956  12.750  0.5673  0.9495 -0.0282
 3040TIP3    H233316   5.555   0.847  12.808  0.8294 -0.0534 -2.1849
 3041TIP3   OH233317   6.984   0.105  12.231  0.0159  0.2351 -0.0261
 3041TIP3    H133318   6.929   0.083  12.157  0.1586  1.7583 -0.6106
 3041TIP3    H233319   7.024   0.189  12.208 -0.1083  0.8581  1.8618
 3042TIP3   OH233320   7.467   6.044  11.430  0.0616 -0.1218 -0.6888
 3042TIP3    H133321   7.497   5.954  11.414 -1.6148 -0.9614  0.5324
 3042TIP3    H233322   7.547   6.096  11.430  1.0702 -1.5800 -1.5582
 3043TIP3   OH233323   4.034   3.233  12.288 -0.0951  0.2423 -0.4788
 3043TIP3    H133324   4.002   3.176  12.219  0.0087  0.2466 -0.5306
 3043TIP3    H233325   4.106   3.185  12.328 -0.7897 -0.1956  0.2844
 3044TIP3   OH233326   6.469   7.035  12.392  0.5848  0.1948  0.1093
 3044TIP3    H133327   6.380   7.068  12.408  0.1761 -1.1743  0.7978
 3044TIP3    H233328   6.485   7.052  12.300 -0.7959 -0.4300 -0.2695
 3045TIP3   OH233329   2.688   6.356  11.492  0.4412 -0.1959 -0.0280
 3045TIP3    H133330   2.684   6.337  11.586 -1.0543 -0.3079 -0.0775
 3045TIP3    H233331   2.630   6.432  11.481 -0.6713 -1.1601 -1.0638
 3046TIP3   OH233332   3.649   1.584  12.479  0.2845  0.0452 -0.1469
 3046TIP3    H133333   3.732   1.607  12.437  1.1059  0.3218  1.5239
 3046TIP3    H233334   3.667   1.500  12.522 -0.0423  0.4976  0.8985
 3047TIP3   OH233335   3.644   2.648  10.857 -0.4083  0.0388  0.3147
 3047TIP3    H133336   3.596   2.723  10.824 -1.2103 -0.7347 -0.3053
 3047TIP3    H233337   3.687   2.610  10.780  3.1148  1.9680  1.1044
 3048TIP3   OH233338   5.183   1.773  11.498  0.0167 -0.0806  0.2977
 3048TIP3    H133339   5.265   1.750  11.454  2.0515  3.3217  1.9051
 3048TIP3    H233340   5.155   1.692  11.541  1.8352 -1.6576 -1.3341
 3049TIP3   OH233341   4.829   6.219  13.105 -0.2450 -0.0919  0.1870
 3049TIP3    H133342   4.871   6.256  13.182 -0.2278  0.8333 -0.2541
 3049TIP3    H233343   4.823   6.292  13.043 -2.5359 -0.1672  0.2324
 3050TIP3   OH233344   1.506   2.298  11.526  0.3604 -0.0736 -0.2256
 3050TIP3    H133345   1.580   2.243  11.554  1.1406  1.4777  0.9001
 3050TIP3    H233346   1.532   2.331  11.440 -0.6002 -2.2638 -1.4271
 3051TIP3   OH233347   6.980   3.353  12.245  0.1064  0.3076 -0.1010
 3051TIP3    H133348   7.001   3.321  12.157  0.8668  0.5636 -0.0237
 3051TIP3    H233349   7.060   3.339  12.295  0.2929  1.7974  0.0752
 3052TIP3   OH233350   5.664   0.905  10.770 -0.3661  0.1547 -0.0552
 3052TIP3    H133351   5.583   0.956  10.767  0.4041  1.5077  0.8878
 3052TIP3    H233352   5.726   0.956  10.718  0.4691  0.3210  1.0532
 3053TIP3   OH233353   1.071   5.045  12.533 -0.0770 -0.1609  0.0370
 3053TIP3    H133354   1.133   4.975  12.510 -0.4481 -0.3556 -0.3918
 3053TIP3    H233355   1.122   5.126  12.524  0.5878 -0.4202  1.3462
 3054TIP3   OH233356   0.095   5.032  11.104  0.4147  0.3719 -0.1603
 3054TIP3    H133357   0.049   4.981  11.037  0.4066  0.6344 -0.3554
 3054TIP3    H233358   0.175   5.061  11.061  0.4913  0.3952 -0.0006
 3055TIP3   OH233359   1.822   2.158  10.912  0.0582  0.2436  0.2856
 3055TIP3    H133360   1.854   2.116  10.992 -0.8946 -2.3803 -0.6045
 3055TIP3    H233361   1.897   2.154  10.852  0.3421  0.9556  0.5818
 3056TIP3   OH233362   7.628   4.909  10.886  0.1653 -0.1601 -0.0223
 3056TIP3    H133363   7.625   4.843  10.817 -0.2071  1.5940 -1.7707
 3056TIP3    H233364   7.570   4.978  10.856 -1.1070  0.1129  2.7440
 3057TIP3   OH233365   4.579   3.318  12.107  0.6276  0.2742  0.1510
 3057TIP3    H133366   4.494   3.308  12.150  0.3387  1.8982  0.0415
 3057TIP3    H233367   4.572   3.403  12.062  2.2521  0.3592  0.0253
 3058TIP3   OH233368   7.552   3.376  12.609  0.4183  0.0026  0.0811
 3058TIP3    H133369   7.621   3.367  12.543 -0.6159  0.0885 -1.0393
 3058TIP3    H233370   7.522   3.286  12.624 -2.5787  0.2487 -3.1664
 3059TIP3   OH233371   6.356   6.642  10.728  0.1495  0.3973  0.0489
 3059TIP3    H133372   6.367   6.547  10.736  1.1560  0.4920 -0.0950
 3059TIP3    H233373   6.440   6.678  10.753  0.2383  1.1806 -1.2827
 3060TIP3   OH233374   3.477   6.194  12.004 -0.4685  0.0324 -0.2157
 3060TIP3    H133375   3.489   6.108  11.962 -0.9574 -0.1142 -0.0654
 3060TIP3    H233376   3.387   6.191  12.037  0.2406 -0.2648  1.7804
 3061TIP3   OH233377   1.404   7.130  10.811  0.4764  0.1103 -0.7888
 3061TIP3    H133378   1.457   7.153  10.887  1.1277 -0.9674 -0.9003
 3061TIP3    H233379   1.467   7.122  10.739 -0.1463  1.3047 -1.5018
 3062TIP3   OH233380   4.278   1.072   9.801 -0.4992  0.2828 -0.2640
 3062TIP3    H133381   4.320   0.997   9.761  0.6173  0.9854 -0.4592
 3062TIP3    H233382   4.347   1.139   9.806 -0.9271  0.6435  1.6744
 3063TIP3   OH233383   4.597   0.854  11.406 -0.0778 -0.3938 -0.3498
 3063TIP3    H133384   4.557   0.835  11.321 -0.6270 -0.1664 -0.1462
 3063TIP3    H233385   4.526   0.841  11.469  0.6109 -1.6784  0.1969
 3064TIP3   OH233386   2.304   6.125  11.874 -0.3020 -0.0525  0.3244
 3064TIP3    H133387   2.303   6.173  11.957 -0.2410 -0.5049  0.5877
 3064TIP3    H233388   2.341   6.039  11.896  0.0683 -0.0461 -0.2397
 3065TIP3   OH233389   3.311   1.403  11.277  0.1547 -0.3895 -0.3423
 3065TIP3    H133390   3.407   1.410  11.270  0.0262 -0.0254 -2.4546
 3065TIP3    H233391   3.296   1.320  11.322  1.4516  0.8429  2.6601
 3066TIP3   OH233392   3.487   7.508  12.275 -0.2254  0.6044  0.7186
 3066TIP3    H133393   3.538   7.529  12.197 -1.9331  2.6281  0.0569
 3066TIP3    H233394   3.527   7.428  12.309  2.1199  1.0121 -0.8238
 3067TIP3   OH233395   2.337   0.369  12.678  0.0102  0.0287 -0.1270
 3067TIP3    H133396   2.367   0.315  12.605  0.7269  0.0443  0.1470
 3067TIP3    H233397   2.242   0.357  12.680  0.2936 -2.8218  1.1531
 3068TIP3   OH233398   0.215   6.681  12.654 -0.0167 -0.0497 -0.4559
 3068TIP3    H133399   0.127   6.688  12.690  0.5616 -0.1869  1.0608
 3068TIP3    H233400   0.211   6.608  12.592 -0.0202 -2.9166  2.6776
 3069TIP3   OH233401   5.882   2.860  10.311  0.3538  0.7873  0.0134
 3069TIP3    H133402   5.855   2.769  10.309 -0.9900  1.1794 -0.4709
 3069TIP3    H233403   5.969   2.860  10.272  0.4634 -0.3048  0.2295
 3070TIP3   OH233404   6.945   1.533  11.111  0.5722  0.1584  0.6810
 3070TIP3    H133405   6.891   1.587  11.053  0.9286 -1.1765 -0.9780
 3070TIP3    H233406   6.923   1.563  11.199 -1.6101  0.8102 -0.0138
 3071TIP3   OH233407   0.141   0.204  10.838 -0.1668 -0.3486 -0.0178
 3071TIP3    H133408   0.180   0.206  10.751  0.2445  0.3656  0.1780
 3071TIP3    H233409   0.209   0.166  10.894 -0.4446 -0.8445 -0.0123
 3072TIP3   OH233410   4.432   6.509  10.354  0.6780 -0.5380  0.0568
 3072TIP3    H133411   4.360   6.498  10.417 -1.1096 -0.0745 -1.8128
 3072TIP3    H233412   4.498   6.558  10.402 -0.0037 -1.3920  2.0013
 3073TIP3   OH233413   5.284   5.720  11.244 -0.1728  0.2192 -0.2115
 3073TIP3    H133414   5.189   5.717  11.251 -0.3509  1.4012 -1.7264
 3073TIP3    H233415   5.306   5.813  11.240  1.0821 -0.0262  0.3997
 3074TIP3   OH233416   5.639   5.338  12.348 -0.8256 -0.2846  0.0171
 3074TIP3    H133417   5.573   5.327  12.280  1.0675 -2.6825 -1.6102
 3074TIP3    H233418   5.654   5.250  12.382  3.0599 -0.3491 -1.3389
 3075TIP3   OH233419   3.090   6.210  12.397 -0.3977 -0.3000  0.3081
 3075TIP3    H133420   3.131   6.130  12.362  1.9101  0.9425 -0.0652
 3075TIP3    H233421   3.141   6.229  12.476 -1.7921  0.0961  1.1311
 3076TIP3   OH233422   3.085   2.496  12.588 -0.6026 -0.5133 -0.4868
 3076TIP3    H133423   2.997   2.459  12.591 -0.2927 -1.1858  0.8982
 3076TIP3    H233424   3.142   2.421  12.568 -0.0941 -0.5908  1.1395
 3077TIP3   OH233425   5.597   7.221  11.058 -0.3190  0.5119 -0.5301
 3077TIP3    H133426   5.667   7.265  11.105 -0.6107 -0.6511  1.0733
 3077TIP3    H233427   5.581   7.141  11.108 -1.5885 -0.1183 -1.8593
 3078TIP3   OH233428   1.810   4.012  11.314 -0.3120  0.1009  0.0910
 3078TIP3    H133429   1.855   3.934  11.283  1.0929  1.3727 -1.2566
 3078TIP3    H233430   1.862   4.042  11.388  0.0612  0.5897 -0.3595
 3079TIP3   OH233431   3.320   3.912  10.920 -0.2365 -0.5394  0.1478
 3079TIP3    H133432   3.236   3.952  10.944 -0.1404 -1.0458  1.3693
 3079TIP3    H233433   3.383   3.983  10.927 -0.1144 -0.7936  2.0351
 3080TIP3   OH233434   7.498   4.676  11.288  0.1721  0.3722 -0.0594
 3080TIP3    H133435   7.585   4.667  11.250  0.4514  0.0340  0.6412
 3080TIP3    H233436   7.513   4.684  11.382 -0.3974  2.8795 -0.1078
 3081TIP3   OH233437   1.961   0.669  11.804 -0.4498 -0.1038 -0.1626
 3081TIP3    H133438   2.041   0.710  11.773 -0.4940  0.0539 -0.0673
 3081TIP3    H233439   1.892   0.704  11.748 -0.4369 -0.3195 -0.3121
 3082TIP3   OH233440   5.471   0.303  10.774  0.3261  0.1018 -0.1145
 3082TIP3    H133441   5.531   0.343  10.711 -1.1876  1.6531 -0.6521
 3082TIP3    H233442   5.384   0.314  10.735 -0.3001 -2.9511  0.1613
 3083TIP3   OH233443   1.536   7.173  11.047 -0.3455 -0.5345 -0.1841
 3083TIP3    H133444   1.520   7.229  11.123 -1.5775 -0.5708 -0.4062
 3083TIP3    H233445   1.520   7.084  11.079 -1.2160 -0.5241 -0.5609
 3084TIP3   OH233446   4.314   0.696  12.580  0.0492  0.3875 -0.0905
 3084TIP3    H133447   4.246   0.648  12.628 -0.8761  2.1301  0.4533
 3084TIP3    H233448   4.373   0.629  12.547 -2.5678 -1.3662 -1.5943
 3085TIP3   OH233449   7.548   3.945  11.168  0.0256 -1.0182 -0.0079
 3085TIP3    H133450   7.537   3.912  11.257  0.6697 -0.8163  0.1538
 3085TIP3    H233451   7.463   3.983  11.145  0.0650 -0.4322  0.7851
 3086TIP3   OH233452   5.404   2.017  10.597  0.3328 -0.3855  0.3851
 3086TIP3    H133453   5.461   1.944  10.574  3.0201  1.8170 -0.5269
 3086TIP3    H233454   5.343   2.024  10.524  0.5546 -1.2088  0.1042
 3087TIP3   OH233455   6.034   2.656  10.588  0.0972 -0.2907  0.3882
 3087TIP3    H133456   6.103   2.720  10.570 -0.5832  0.3363 -0.0487
 3087TIP3    H233457   5.956   2.693  10.546 -0.3852 -1.2411  0.4334
 3088TIP3   OH233458   7.405   3.754  12.814 -0.4765  0.4303  0.4687
 3088TIP3    H133459   7.334   3.694  12.834 -0.1558  0.1471  0.7884
 3088TIP3    H233460   7.464   3.703  12.758 -1.2220  1.1243 -0.9927
 3089TIP3   OH233461   5.011   7.020  11.803  0.6953  0.1474 -0.1204
 3089TIP3    H133462   4.929   6.999  11.847  1.5026 -0.8484  0.9509
 3089TIP3    H233463   5.016   7.115  11.808 -0.2189  0.2013  0.1044
 3090TIP3   OH233464   6.555   5.872  10.888 -0.7781 -0.5496 -0.1834
 3090TIP3    H133465   6.488   5.911  10.833  0.3151 -2.0726 -2.7669
 3090TIP3    H233466   6.636   5.915  10.861 -0.3973 -0.1938  1.4265
 3091TIP3   OH233467   5.725   4.997  10.572  0.1177  0.1105  0.6084
 3091TIP3    H133468   5.755   4.931  10.635 -0.2989 -1.0584 -0.3651
 3091TIP3    H233469   5.661   4.951  10.518 -1.4967  1.8194  0.9718
 3092TIP3   OH233470   7.355   2.726  10.308 -0.0634  0.2645  0.8355
 3092TIP3    H133471   7.345   2.632  10.299 -0.7913  0.3983  0.1711
 3092TIP3    H233472   7.444   2.744  10.276 -0.7189  0.0683 -1.2436
 3093TIP3   OH233473   1.914   5.658  12.207  0.3289 -0.1191  0.3975
 3093TIP3    H133474   1.960   5.712  12.143 -0.8634  0.6181  0.1432
 3093TIP3    H233475   1.972   5.656  12.283  0.6546  1.0499  0.1977
 3094TIP3   OH233476   4.949   5.742  12.266 -0.0160 -0.4107 -0.5266
 3094TIP3    H133477   4.987   5.690  12.337  0.3325 -1.3259 -1.3569
 3094TIP3    H233478   5.020   5.749  12.201 -0.3888  0.2362 -0.8752
 3095TIP3   OH233479   4.455   6.631  11.263 -0.1327 -0.1089  0.6035
 3095TIP3    H133480   4.402   6.634  11.342 -0.1318 -0.1622  0.6062
 3095TIP3    H233481   4.489   6.720  11.253 -1.1382  0.2199 -0.0231
 3096TIP3   OH233482   2.845   5.331  12.196 -0.0934  0.6016  0.0320
 3096TIP3    H133483   2.872   5.239  12.196 -0.3379  0.5189 -1.3922
 3096TIP3    H233484   2.925   5.380  12.211  0.0402  0.1754  0.8023
 3097TIP3   OH233485   3.367   3.005  12.288  0.1480  0.5909 -0.3143
 3097TIP3    H133486   3.302   3.006  12.359 -0.9665 -1.2879 -1.2197
 3097TIP3    H233487   3.415   2.923  12.302  1.7903  1.5398 -0.1696
 3098TIP3   OH233488   6.899   7.293  12.586  0.1835  0.4921  0.1569
 3098TIP3    H133489   6.807   7.271  12.603 -0.3751  2.3180 -0.3279
 3098TIP3    H233490   6.904   7.388  12.598  2.4901  0.2149  2.3083
 3099TIP3   OH233491   7.556   0.942   9.812  0.4417  0.0511  0.4118
 3099TIP3    H133492   7.579   0.867   9.757  1.0429  0.4583  0.0945
 3099TIP3    H233493   7.494   0.907   9.876  1.3658 -0.9269  0.8137
 3100TIP3   OH233494   5.502   0.643  11.376  0.1328  0.2297 -0.1130
 3100TIP3    H133495   5.514   0.724  11.425  0.5419  0.2083 -0.1776
 3100TIP3    H233496   5.416   0.653  11.334 -0.4514  0.0379  0.9973
 3101TIP3   OH233497   4.509   2.539  11.332 -0.2151  0.1381  0.3176
 3101TIP3    H133498   4.451   2.464  11.319 -0.6771  0.3528  1.0497
 3101TIP3    H233499   4.566   2.513  11.405  0.1128  0.2180  0.0918
 3102TIP3   OH233500   2.851   4.282  10.149 -0.0690  0.1825 -0.0776
 3102TIP3    H133501   2.901   4.200  10.158 -0.1165 -0.0263 -1.5741
 3102TIP3    H233502   2.760   4.254  10.153 -0.1018  0.4005  1.2203
 3103TIP3   OH233503   5.674   7.585  10.716  0.2472 -0.1349  0.3399
 3103TIP3    H133504   5.604   7.530  10.750  0.4817  1.6296  4.2281
 3103TIP3    H233505   5.753   7.531  10.723 -0.1465 -0.7928 -0.2227
 3104TIP3   OH233506   7.590   2.524  10.493 -0.1855  0.3839 -0.7042
 3104TIP3    H133507   7.571   2.616  10.472  0.8129  1.1578  1.5054
 3104TIP3    H233508   7.518   2.475  10.453 -0.7278  2.1107 -1.9649
 3105TIP3   OH233509   4.595   0.582  11.625 -0.0058  0.3946  0.6142
 3105TIP3    H133510   4.513   0.621  11.595 -0.2201  0.4084  1.2076
 3105TIP3    H233511   4.573   0.489  11.639  0.0384  0.4284  0.9143
 3106TIP3   OH233512   4.277   0.381  11.980 -0.2463 -0.4421  0.2809
 3106TIP3    H133513   4.253   0.290  11.965 -0.1225 -0.3815 -0.3092
 3106TIP3    H233514   4.366   0.377  12.016 -0.7552 -0.6169  1.5689
 3107TIP3   OH233515   6.308   5.687  12.443  0.2861 -0.1908  0.2634
 3107TIP3    H133516   6.393   5.644  12.454  0.7869  0.8299  0.4070
 3107TIP3    H233517   6.277   5.658  12.357  0.1710 -1.5872  0.7400
 3108TIP3   OH233518   2.077   4.729  10.835 -0.1522  1.4515  0.5046
 3108TIP3    H133519   2.098   4.737  10.742  0.1409  0.7040  0.4929
 3108TIP3    H233520   1.982   4.727  10.839 -0.1938 -0.7135 -0.0306
 3109TIP3   OH233521   5.639   0.084  11.649  0.7244  0.2324  0.0250
 3109TIP3    H133522   5.639   0.166  11.698  0.8055  0.1252  0.2108
 3109TIP3    H233523   5.547   0.066  11.632  0.7584  0.8332 -0.8299
 3110TIP3   OH233524   7.067   5.347  11.759  0.4654 -0.6837  0.0409
 3110TIP3    H133525   7.133   5.378  11.697 -0.1077  1.6739  0.5309
 3110TIP3    H233526   7.111   5.347  11.844  0.2370 -0.4506  0.1621
 3111TIP3   OH233527   7.022   1.939  11.223 -0.4083 -0.1930  0.0491
 3111TIP3    H133528   6.969   2.013  11.193 -1.6350 -1.6513 -1.5306
 3111TIP3    H233529   6.967   1.894  11.287  1.3975  1.7098  3.2093
 3112TIP3   OH233530   3.773   1.336  10.695 -0.4910 -0.6919 -0.1763
 3112TIP3    H133531   3.692   1.345  10.645  0.0073 -0.0350 -0.8852
 3112TIP3    H233532   3.824   1.414  10.673  0.5460 -1.3371 -0.1207
 3113TIP3   OH233533   0.297   0.486  12.142 -0.0911 -0.3441  0.1109
 3113TIP3    H133534   0.319   0.575  12.114 -0.9746 -0.8105 -2.3582
 3113TIP3    H233535   0.201   0.486  12.147 -0.0752 -1.0421  0.5441
 3114TIP3   OH233536   4.930   5.816  10.825 -0.3328  0.0552  0.1032
 3114TIP3    H133537   4.910   5.901  10.785 -2.0896 -0.5497 -0.3743
 3114TIP3    H233538   4.865   5.806  10.895  1.6316  0.3320  2.1225
 3115TIP3   OH233539   0.836   7.027  12.482  0.0633  0.5470 -0.6898
 3115TIP3    H133540   0.797   7.104  12.522  0.8607  1.5927 -1.8555
 3115TIP3    H233541   0.821   6.957  12.545  0.4434  1.9172  0.9795
 3116TIP3   OH233542   5.472   2.520  11.444 -0.3017 -0.5363 -0.2141
 3116TIP3    H133543   5.394   2.574  11.429  1.1639  1.5722 -0.6669
 3116TIP3    H233544   5.438   2.431  11.447 -2.7389  0.2925 -0.3446
 3117TIP3   OH233545   2.734   2.694  11.197  0.6998  0.1684 -0.3408
 3117TIP3    H133546   2.674   2.632  11.156 -0.4820  0.5627  0.7234
 3117TIP3    H233547   2.709   2.779  11.161  0.8288  0.3020 -0.1154
 3118TIP3   OH233548   4.600   0.342  10.450  1.1866 -0.0782 -0.1452
 3118TIP3    H133549   4.591   0.247  10.444  1.5418 -0.1318  0.1223
 3118TIP3    H233550   4.605   0.371  10.359 -1.1353 -0.0730 -0.3485
 3119TIP3   OH233551   3.318   1.158  12.678 -0.2628  0.0975 -0.4410
 3119TIP3    H133552   3.351   1.190  12.594 -2.8898 -0.4414 -1.7849
 3119TIP3    H233553   3.318   1.063  12.669  0.7262 -0.0429  0.7493
 3120TIP3   OH233554   2.433   0.658  10.630 -0.0725  0.0741 -0.0803
 3120TIP3    H133555   2.515   0.707  10.627  1.7126 -2.6365  0.7150
 3120TIP3    H233556   2.411   0.653  10.723 -1.7736  1.6561 -0.3500
 3121TIP3   OH233557   6.993   6.827  11.182  0.2875  0.4623 -0.3856
 3121TIP3    H133558   7.047   6.748  11.176 -0.0174  0.2144  0.0938
 3121TIP3    H233559   7.033   6.888  11.120  2.8043  1.2914  1.8879
 3122TIP3   OH233560   3.271   2.818  12.795 -0.1505 -0.4648 -0.1087
 3122TIP3    H133561   3.261   2.895  12.851  2.8461 -0.6857  0.9177
 3122TIP3    H233562   3.215   2.752  12.834 -1.7429  0.7490 -0.2235
 3123TIP3   OH233563   3.998   0.197  11.671  0.0647 -0.1075 -0.5159
 3123TIP3    H133564   3.906   0.216  11.652 -0.1244 -1.1639 -0.7122
 3123TIP3    H233565   4.045   0.272  11.636 -0.6872  0.2403 -0.8090
 3124TIP3   OH233566   2.696   1.865  10.846  0.2933  0.6228 -0.6059
 3124TIP3    H133567   2.715   1.828  10.760 -0.1298  1.3325 -1.0161
 3124TIP3    H233568   2.621   1.923  10.831  1.7078  2.6591 -0.2704
 3125TIP3   OH233569   2.833   0.042  11.548 -0.5235 -0.1039  0.0814
 3125TIP3    H133570   2.816   0.106  11.479 -0.9998  0.5866  0.8254
 3125TIP3    H233571   2.831  -0.042  11.503 -0.7864  0.3434 -0.7611
 3126TIP3   OH233572   4.711   7.134  11.183  0.0727 -0.0394 -0.5035
 3126TIP3    H133573   4.783   7.185  11.220  0.7952 -1.2079 -0.2363
 3126TIP3    H233574   4.747   7.094  11.104 -0.0553 -1.1988  0.0103
 3127TIP3   OH233575   5.321   0.235  11.037  0.7038  0.2211 -0.5430
 3127TIP3    H133576   5.248   0.182  11.069  0.8215  0.5292  0.2655
 3127TIP3    H233577   5.398   0.179  11.047  0.5361 -0.2869 -1.8579
 3128TIP3   OH233578   1.251   2.490  11.397 -0.6043  0.1218  0.3212
 3128TIP3    H133579   1.331   2.511  11.349  0.1106 -0.0533  1.4135
 3128TIP3    H233580   1.238   2.565  11.455 -0.6304 -0.3427  0.9197
 3129TIP3   OH233581   0.466   2.832  11.416 -0.4355  0.4104 -0.5534
 3129TIP3    H133582   0.392   2.858  11.471 -0.8684 -0.1363 -0.8675
 3129TIP3    H233583   0.430   2.828  11.328 -0.4429 -1.3582 -0.5063
 3130TIP3   OH233584   2.959   0.804  11.076 -0.0137 -0.3769 -0.7531
 3130TIP3    H133585   2.872   0.811  11.113  0.6104 -1.7646  1.1142
 3130TIP3    H233586   3.009   0.752  11.139  2.5991  1.6128 -0.9671
 3131TIP3   OH233587   3.857   5.046  10.167 -0.1680 -0.5662  0.4311
 3131TIP3    H133588   3.802   4.988  10.220  0.2044 -0.0030  1.4696
 3131TIP3    H233589   3.816   5.046  10.080 -0.6009 -1.7787  0.6193
 3132TIP3   OH233590   0.469   2.113  11.504  0.3566 -0.3429  0.6523
 3132TIP3    H133591   0.487   2.170  11.579 -0.5761 -1.3481  1.6793
 3132TIP3    H233592   0.518   2.033  11.523  1.6489  0.0764 -0.7713
 3133TIP3   OH233593   7.164   6.530  12.558  0.3109  0.2808  0.1487
 3133TIP3    H133594   7.226   6.461  12.532 -0.5327 -0.3154 -0.3175
 3133TIP3    H233595   7.081   6.504  12.519 -0.3394  0.8661  1.1013
 3134TIP3   OH233596   4.729   1.333   9.995  0.1961  0.2976  0.1523
 3134TIP3    H133597   4.823   1.338  10.012  0.3282  1.5390 -0.8383
 3134TIP3    H233598   4.701   1.424   9.987 -0.7721 -0.0840 -1.1501
 3135TIP3   OH233599   0.595   6.221  12.780 -0.2959 -0.0243 -0.0968
 3135TIP3    H133600   0.564   6.298  12.731 -0.3953 -1.1893 -1.9525
 3135TIP3    H233601   0.554   6.147  12.736  0.9255 -1.2432  0.7507
 3136TIP3   OH233602   3.836   7.356  12.928  0.3583  0.9466 -0.2944
 3136TIP3    H133603   3.925   7.332  12.951  0.0419 -0.8149 -0.7150
 3136TIP3    H233604   3.801   7.278  12.884 -0.7581  2.2763 -1.8992
 3137TIP3   OH233605   6.503   0.020  12.441 -0.1442  0.2271  0.2417
 3137TIP3    H133606   6.513  -0.073  12.461  1.2358  0.4461  0.6165
 3137TIP3    H233607   6.471   0.022  12.351 -1.7660 -0.6372  0.7624
 3138TIP3   OH233608   0.876   4.172  10.151  0.3209 -0.4417  0.4536
 3138TIP3    H133609   0.958   4.126  10.134  1.0222  1.4764 -1.9389
 3138TIP3    H233610   0.809   4.120  10.107  0.8564 -0.0967 -0.8105
 3139TIP3   OH233611   0.909   2.991  12.302  0.5681  0.2213 -0.1962
 3139TIP3    H133612   0.933   2.934  12.229  0.4379  0.6597 -0.5904
 3139TIP3    H233613   0.854   2.936  12.359  0.7149 -0.1383 -0.4025
 3140TIP3   OH233614   4.680   5.093  12.262  0.1622  0.1354  0.2791
 3140TIP3    H133615   4.674   5.120  12.170 -0.7467  0.2091  0.3486
 3140TIP3    H233616   4.744   5.152  12.300  1.0912 -0.3671 -0.4708
 3141TIP3   OH233617   7.280   1.766  11.454 -0.1839  0.6297  0.0436
 3141TIP3    H133618   7.235   1.803  11.530 -1.7176  0.2570 -0.6318
 3141TIP3    H233619   7.266   1.832  11.385  0.5802  0.6418 -0.1006
 3142TIP3   OH233620   5.799   7.069  12.407 -0.2818  0.5424  0.0179
 3142TIP3    H133621   5.761   7.133  12.466  1.0466  0.3896  1.1059
 3142TIP3    H233622   5.844   7.121  12.340  2.1813  0.8726  1.7995
 3143TIP3   OH233623   2.657   3.913  11.689 -0.3587  0.4647  0.1052
 3143TIP3    H133624   2.632   3.922  11.781  1.1749 -0.6711  0.6707
 3143TIP3    H233625   2.674   4.003  11.660 -0.3550  0.7911  1.0875
 3144TIP3   OH233626   2.852   6.911  11.142 -1.1568  0.0540  0.2577
 3144TIP3    H133627   2.936   6.949  11.117 -1.1773 -0.6677 -1.0381
 3144TIP3    H233628   2.817   6.969  11.209 -0.3963  1.3209 -0.4168
 3145TIP3   OH233629   5.660   3.791  10.020  0.3834 -0.2487 -0.2168
 3145TIP3    H133630   5.588   3.731  10.040 -1.8427  1.7927 -1.4718
 3145TIP3    H233631   5.636   3.872  10.063  2.9324  0.0325  0.8278
 3146TIP3   OH233632   5.512   2.145  10.830 -0.0477  0.7363  0.4116
 3146TIP3    H133633   5.493   2.077  10.895  0.8622  0.1575  0.0933
 3146TIP3    H233634   5.450   2.128  10.759  0.3482  0.0577  0.2142
 3147TIP3   OH233635   1.303   3.690  11.619  0.0452 -0.4198  0.3279
 3147TIP3    H133636   1.382   3.636  11.630 -0.5309 -1.3002  0.2551
 3147TIP3    H233637   1.246   3.663  11.690 -0.8582 -1.0068 -0.5918
 3148TIP3   OH233638   5.363   2.884  11.629 -0.0391 -0.0907  0.2261
 3148TIP3    H133639   5.421   2.858  11.558 -0.3148 -1.3971  0.4502
 3148TIP3    H233640   5.366   2.811  11.691  0.7564  1.3280  1.9348
 3149TIP3   OH233641   3.337   5.390  12.405  0.0902 -0.6487  0.2597
 3149TIP3    H133642   3.396   5.370  12.477  0.9593 -1.4258 -0.6450
 3149TIP3    H233643   3.280   5.313  12.399  0.8075 -1.1225 -0.6407
 3150TIP3   OH233644   5.254   0.100  10.319  0.1567 -0.4745  0.2112
 3150TIP3    H133645   5.300   0.121  10.238  0.8887  2.7078  1.3033
 3150TIP3    H233646   5.166   0.134  10.306  0.3960  0.4370  0.8431
 3151TIP3   OH233647   6.152   0.590  10.718 -0.3700 -0.2472  0.3317
 3151TIP3    H133648   6.183   0.512  10.764 -0.0067 -1.5593 -1.9579
 3151TIP3    H233649   6.179   0.664  10.773 -1.6232 -1.7044  3.0993
 3152TIP3   OH233650   7.199   0.966  11.805  0.5429  0.4347  0.5128
 3152TIP3    H133651   7.255   0.940  11.733 -2.2705 -1.3634 -1.2136
 3152TIP3    H233652   7.129   1.018  11.765 -2.2846 -2.3472  1.3718
 3153TIP3   OH233653   3.532   6.424  11.651  0.5617 -0.1169  0.2498
 3153TIP3    H133654   3.509   6.450  11.741  3.6250  0.4752  0.9912
 3153TIP3    H233655   3.533   6.328  11.654 -0.9405 -0.1625  0.3331
 3154TIP3   OH233656   5.811   6.981  11.459  0.4226  0.5091  0.4532
 3154TIP3    H133657   5.770   7.033  11.390 -1.9930  0.0915  1.4321
 3154TIP3    H233658   5.830   7.043  11.529  2.1288  0.8041 -0.2382
 3155TIP3   OH233659   7.298   1.256  12.237  0.0879  0.1607  0.3971
 3155TIP3    H133660   7.230   1.211  12.287 -0.2397 -1.1790 -1.1777
 3155TIP3    H233661   7.289   1.221  12.148  1.1349  1.9100 -0.4342
 3156TIP3   OH233662   4.964   2.950  11.262 -1.0239 -0.1045 -0.1608
 3156TIP3    H133663   5.021   3.027  11.254 -1.2928  0.0667 -0.4858
 3156TIP3    H233664   4.882   2.976  11.219 -0.8223 -0.8651 -1.0400
 3157TIP3   OH233665   0.014   4.241  12.259 -0.6618 -0.0416  0.2714
 3157TIP3    H133666  -0.077   4.257  12.233 -0.3908 -0.8774 -1.3443
 3157TIP3    H233667   0.013   4.153  12.296 -0.7576  0.5319  1.6673
 3158TIP3   OH233668   2.895   3.656  10.626  0.2504  0.1962 -1.0584
 3158TIP3    H133669   2.855   3.736  10.592  0.0524  0.0258 -1.2294
 3158TIP3    H233670   2.867   3.653  10.718 -0.6496 -0.2404 -1.3335
 3159TIP3   OH233671   6.742   4.418  11.308  0.3710  0.1303 -0.6605
 3159TIP3    H133672   6.823   4.468  11.307  0.7828 -0.5048 -2.1808
 3159TIP3    H233673   6.761   4.340  11.256 -0.5948 -1.0640  0.6933
 3160TIP3   OH233674   7.662   4.222  12.784  0.3380  0.1141 -0.6638
 3160TIP3    H133675   7.744   4.176  12.800 -0.1482 -0.2369  1.0213
 3160TIP3    H233676   7.682   4.314  12.803  0.1208 -0.1126  0.8498
 3161TIP3   OH233677   1.213   5.477  11.266  0.4972 -0.3977  0.1389
 3161TIP3    H133678   1.258   5.487  11.182 -1.2134  0.2827 -0.7491
 3161TIP3    H233679   1.230   5.386  11.291  2.7742 -0.0247  0.1416
 3162TIP3   OH233680   6.093   2.794  12.324  0.6515 -0.2755 -0.6442
 3162TIP3    H133681   6.039   2.720  12.351  0.1719  0.0412 -0.7226
 3162TIP3    H233682   6.103   2.784  12.229 -2.2779  1.5592 -1.2919
 3163TIP3   OH233683   6.301   2.557  11.686  0.0226 -0.0344  0.2717
 3163TIP3    H133684   6.277   2.650  11.688 -0.5448 -0.1553 -0.5107
 3163TIP3    H233685   6.249   2.517  11.756 -1.4516 -0.1443 -0.8486
 3164TIP3   OH233686   6.978   3.147  11.226 -0.4555 -0.4081 -0.0217
 3164TIP3    H133687   6.920   3.201  11.171 -0.0295  0.3305  0.2313
 3164TIP3    H233688   6.921   3.117  11.297 -0.6671 -0.1407 -0.0720
 3165TIP3   OH233689   3.756   6.766  10.665 -0.1021 -0.2040  0.1748
 3165TIP3    H133690   3.691   6.787  10.597 -0.2886 -2.2183 -0.3542
 3165TIP3    H233691   3.810   6.697  10.625  2.1321  1.1009  0.7609
 3166TIP3   OH233692   2.931   7.269  11.220  0.0022 -0.0601  0.0588
 3166TIP3    H133693   2.876   7.335  11.177  0.2072  0.2458  0.2646
 3166TIP3    H233694   2.991   7.239  11.151 -0.5431 -0.5396 -0.2212
 3167TIP3   OH233695   6.005   3.172  12.538  0.1325  0.4504  0.1766
 3167TIP3    H133696   5.913   3.143  12.539  0.4986 -0.7802  0.7231
 3167TIP3    H233697   6.052   3.103  12.586  1.4399  0.7390 -0.6396
 3168TIP3   OH233698   0.482   4.689  12.575 -0.0700  0.3004 -0.0200
 3168TIP3    H133699   0.427   4.718  12.648 -1.5874 -2.8982  0.2820
 3168TIP3    H233700   0.421   4.644  12.517  1.8831 -1.4944 -0.7706
 3169TIP3   OH233701   5.371   0.801  10.662  0.1492 -0.2595  0.5053
 3169TIP3    H133702   5.425   0.817  10.585  0.3298 -1.4808  0.3693
 3169TIP3    H233703   5.310   0.876  10.664  0.1986 -0.1585 -0.7556
 3170TIP3   OH233704   5.350   6.437  10.754  0.1531  0.8088  0.0575
 3170TIP3    H133705   5.300   6.364  10.789  0.8550  0.5862  0.6067
 3170TIP3    H233706   5.289   6.511  10.755 -0.0469  0.6439  1.1028
 3171TIP3   OH233707   5.014   5.748   9.834 -0.0915 -0.1629  0.3074
 3171TIP3    H133708   4.964   5.667   9.823 -0.0163 -0.4040  1.6491
 3171TIP3    H233709   5.097   5.730   9.789 -0.9050  0.0041 -1.3605
 3172TIP3   OH233710   0.874   6.770  12.591  0.8755  0.0149 -0.0131
 3172TIP3    H133711   0.950   6.746  12.644  1.1839  0.8557 -0.0468
 3172TIP3    H233712   0.887   6.727  12.507  0.8926 -0.5176  0.2623
 3173TIP3   OH233713   5.471   4.083  11.225  0.5379  0.2915 -0.1692
 3173TIP3    H133714   5.387   4.128  11.215 -0.0383 -0.8071 -0.4387
 3173TIP3    H233715   5.534   4.140  11.180  0.0945  1.5294  0.7300
 3174TIP3   OH233716   0.126   2.399  11.802 -0.2965 -0.4987  0.4237
 3174TIP3    H133717   0.035   2.430  11.801 -0.5422 -1.2033 -0.9212
 3174TIP3    H233718   0.124   2.322  11.859 -0.4570 -0.2854  0.7101
 3175TIP3   OH233719   5.255   1.976  10.335  0.2416  0.1720 -0.2921
 3175TIP3    H133720   5.189   1.986  10.267 -1.1786 -2.5948  0.5474
 3175TIP3    H233721   5.282   1.885  10.329  0.9229  0.1552  2.1106
 3176TIP3   OH233722   4.082   0.024  10.113  0.7617 -0.4109 -0.0666
 3176TIP3    H133723   4.054  -0.052  10.165 -2.0913  0.8448  0.4158
 3176TIP3    H233724   4.034   0.015  10.031 -0.2615  1.2286  0.3064
 3177TIP3   OH233725   2.116   4.881  12.330  0.0264  0.4642 -0.3397
 3177TIP3    H133726   2.032   4.880  12.285 -1.8128  1.4653  2.7638
 3177TIP3    H233727   2.125   4.793  12.366 -1.9958  1.4019  2.9058
 3178TIP3   OH233728   3.881   6.648  10.882 -0.5443  0.3223 -0.0044
 3178TIP3    H133729   3.870   6.683  10.794  0.3401  0.3182 -0.1285
 3178TIP3    H233730   3.923   6.563  10.869 -0.9561  0.0461  0.3961
 3179TIP3   OH233731   5.825   2.483  11.654  0.2908  0.0148  0.2127
 3179TIP3    H133732   5.795   2.412  11.597  1.3364 -0.4672  0.2566
 3179TIP3    H233733   5.746   2.537  11.667 -0.5868 -1.2642  0.3871
 3180TIP3   OH233734   2.310   7.309  12.198  0.0344  0.2575  0.7900
 3180TIP3    H133735   2.305   7.346  12.109  1.0856 -0.5783  0.3649
 3180TIP3    H233736   2.247   7.361  12.248  3.3260  4.6727  0.9684
 3181TIP3   OH233737   4.968   3.499  12.521 -0.1004  0.1791  0.7234
 3181TIP3    H133738   5.039   3.482  12.584 -0.9668 -1.8427  1.2336
 3181TIP3    H233739   5.012   3.503  12.436  0.8151  0.6550  1.2059
 3182TIP3   OH233740   4.279   4.275  11.840 -0.3011 -0.3603 -0.3161
 3182TIP3    H133741   4.277   4.260  11.745  0.1567 -1.4107 -0.1689
 3182TIP3    H233742   4.196   4.239  11.871  0.0196 -0.9889 -0.1847
 3183TIP3   OH233743   3.719   7.232  11.895 -0.2209 -0.4492 -0.3638
 3183TIP3    H133744   3.636   7.270  11.867 -0.5201 -0.8078  0.0264
 3183TIP3    H233745   3.766   7.214  11.814 -0.4813 -0.1575 -0.5822
 3184TIP3   OH233746   6.124   3.592  10.759 -0.0457  0.4148  0.4956
 3184TIP3    H133747   6.130   3.633  10.845  0.0007 -0.1762  0.7810
 3184TIP3    H233748   6.214   3.570  10.737 -0.0779  0.4062  0.3745
 3185TIP3   OH233749   3.733   3.951  10.861 -0.0197 -0.3080  0.0470
 3185TIP3    H133750   3.731   4.033  10.812 -1.6207  1.0774  2.2190
 3185TIP3    H233751   3.825   3.939  10.884  0.7719 -0.9912 -3.0761
 3186TIP3   OH233752   5.655   3.134  11.409  0.1965 -0.2424  0.2120
 3186TIP3    H133753   5.683   3.212  11.363 -2.3475 -0.3792 -1.7948
 3186TIP3    H233754   5.613   3.167  11.489  0.3199  0.3637  0.0271
 3187TIP3   OH233755   5.412   1.194  11.081  0.0540  0.3500 -0.5143
 3187TIP3    H133756   5.344   1.257  11.060 -0.8113  0.0104  1.0739
 3187TIP3    H233757   5.425   1.144  11.000 -2.1448 -0.0671 -0.6750
 3188TIP3   OH233758   1.734   0.960  10.678  0.1183 -0.2054 -0.2602
 3188TIP3    H133759   1.763   0.959  10.587 -1.5422 -2.1576 -0.8511
 3188TIP3    H233760   1.739   0.868  10.705 -0.2743  0.2165  1.3267
 3189TIP3   OH233761   4.979   1.877  10.490 -0.7506 -0.9228  0.1824
 3189TIP3    H133762   5.061   1.830  10.482 -0.3843 -0.1656 -0.6715
 3189TIP3    H233763   4.915   1.810  10.515 -0.0404 -1.6620  0.0558
 3190TIP3   OH233764   2.538   2.827  10.729 -0.3442  0.6960 -0.1206
 3190TIP3    H133765   2.584   2.899  10.772 -0.0548 -0.8639  2.4328
 3190TIP3    H233766   2.453   2.823  10.774 -0.0432 -0.9781  0.3789
 3191TIP3   OH233767   5.696   3.059  10.329  0.2566 -0.5166 -0.3194
 3191TIP3    H133768   5.769   3.004  10.301  0.8480 -0.2963  0.7270
 3191TIP3    H233769   5.619   3.004  10.317  0.9637 -2.2613  2.2007
 3192TIP3   OH233770   5.707   0.115  10.559 -0.2651 -0.3812  0.4124
 3192TIP3    H133771   5.682   0.050  10.624 -1.4329 -0.6884 -0.3052
 3192TIP3    H233772   5.787   0.154  10.593 -0.4749 -1.0120  1.6819
 3193TIP3   OH233773   4.704   1.974  11.167 -0.0721 -0.0969  0.5516
 3193TIP3    H133774   4.745   2.061  11.169  0.8616 -0.5300  1.7725
 3193TIP3    H233775   4.626   1.983  11.221 -0.4997  0.2194 -0.1122
 3194TIP3   OH233776   3.326   1.764  10.717 -0.1841  0.1189 -0.4800
 3194TIP3    H133777   3.387   1.767  10.790  0.4855 -0.8671 -0.9866
 3194TIP3    H233778   3.239   1.771  10.759  0.1146 -1.6959  0.5437
 3195TIP3   OH233779   1.627   5.453  11.959 -0.5368 -0.0549  0.7929
 3195TIP3    H133780   1.608   5.382  12.020 -0.6864 -0.4504  0.2920
 3195TIP3    H233781   1.654   5.526  12.015  1.6724 -1.1312  1.2515
 3196TIP3   OH233782   6.090   1.113  11.789  0.6511  0.7309  0.8244
 3196TIP3    H133783   6.167   1.156  11.827  1.5453  0.7112 -0.8650
 3196TIP3    H233784   6.087   1.145  11.698 -0.1259 -0.8471  0.2547
 3197TIP3   OH233785   3.140   0.876  10.567 -0.5142  0.2942 -0.2262
 3197TIP3    H133786   3.091   0.832  10.497  0.3955 -1.2199  0.0492
 3197TIP3    H233787   3.201   0.810  10.599  0.0510  1.3961  1.0715
 3198TIP3   OH233788   6.904   6.223  12.619  0.7440 -0.1839  0.4124
 3198TIP3    H133789   6.979   6.203  12.563  0.3521 -0.9657  0.1615
 3198TIP3    H233790   6.864   6.138  12.638 -1.4792  0.3492 -1.4012
 3199TIP3   OH233791   4.120   1.223  12.656  0.5117 -0.5196 -0.6885
 3199TIP3    H133792   4.182   1.293  12.635  1.2963 -0.7725  0.6675
 3199TIP3    H233793   4.174   1.147  12.673 -0.2839 -1.1904 -1.1011
 3200TIP3   OH233794   3.970   3.031  10.484 -0.3559  0.2109 -0.1077
 3200TIP3    H133795   3.899   3.061  10.428 -0.0005 -0.0665 -0.7157
 3200TIP3    H233796   4.016   3.111  10.509 -1.3446  0.4736  0.9478
 3201TIP3   OH233797   6.016   3.623  12.201  0.2860  0.3413  0.0329
 3201TIP3    H133798   6.110   3.605  12.198  0.0879 -0.6984 -0.8030
 3201TIP3    H233799   6.001   3.663  12.286  1.5310  0.7873  0.0523
 3202TIP3   OH233800   6.509   7.487  10.525 -0.2207 -0.1765 -1.0547
 3202TIP3    H133801   6.551   7.404  10.501  0.3885 -0.3343  0.4108
 3202TIP3    H233802   6.565   7.554  10.486 -0.4056 -0.4346 -1.7806
 3203TIP3   OH233803   1.825   7.062  11.207  0.2612  0.2131 -0.2044
 3203TIP3    H133804   1.821   7.125  11.279  1.3943 -0.2697  0.2988
 3203TIP3    H233805   1.734   7.036  11.194  0.1443 -0.5243  1.8128
 3204TIP3   OH233806   0.771   6.472  11.230 -0.5608 -0.0625  0.0644
 3204TIP3    H133807   0.829   6.501  11.160 -0.0732 -0.9740  0.0698
 3204TIP3    H233808   0.737   6.387  11.200  1.6604 -1.7558  1.9718
 3205TIP3   OH233809   3.273   0.374  12.621 -0.2167  0.0164 -0.3157
 3205TIP3    H133810   3.302   0.387  12.531 -0.4433  0.2835 -0.3530
 3205TIP3    H233811   3.292   0.282  12.640 -0.0107  0.0058 -0.5780
 3206TIP3   OH233812   7.166   7.471  10.592  0.4009 -0.1031  0.5168
 3206TIP3    H133813   7.204   7.462  10.504 -0.1364  1.1945  0.1297
 3206TIP3    H233814   7.107   7.546  10.585 -0.4352 -0.6181  1.7332
 3207TIP3   OH233815   3.238   4.989  11.986  0.4803 -0.4435  0.6856
 3207TIP3    H133816   3.211   5.036  11.906 -0.1062  0.5637  1.4550
 3207TIP3    H233817   3.328   4.963  11.968 -0.1081 -1.5647 -0.9068
 3208TIP3   OH233818   3.439   1.660  11.937  0.7779 -0.2069  0.3382
 3208TIP3    H133819   3.401   1.740  11.973  0.0455 -0.0340 -0.7420
 3208TIP3    H233820   3.504   1.691  11.873 -0.0337 -0.4372 -0.6260
 3209TIP3   OH233821   4.009   3.755  11.092 -0.1230  0.2882 -0.1606
 3209TIP3    H133822   4.021   3.838  11.138 -0.0793  0.3070 -0.2069
 3209TIP3    H233823   4.005   3.779  11.000  0.9774  0.1231 -0.2534
 3210TIP3   OH233824   1.022   1.873   9.659 -0.5075  0.0462  0.0591
 3210TIP3    H133825   0.973   1.791   9.671  0.8487 -1.0801 -1.6156
 3210TIP3    H233826   1.047   1.873   9.566  1.5280  1.1932  0.5354
 3211TIP3   OH233827   0.724   6.833  10.003  0.8708 -0.0412 -0.0873
 3211TIP3    H133828   0.777   6.755  10.022 -0.3779 -0.9687 -0.2905
 3211TIP3    H233829   0.750   6.897  10.069 -0.4218 -1.7586  2.2394
 3212TIP3   OH233830   7.361   5.563   9.911 -0.2234  0.4746  0.3756
 3212TIP3    H133831   7.423   5.585   9.841  1.0983  0.8740  1.6059
 3212TIP3    H233832   7.327   5.648   9.940 -0.2916  0.3677  0.6106
 3213TIP3   OH233833   6.476   4.643  12.174 -0.9018  0.0955 -0.1676
 3213TIP3    H133834   6.395   4.657  12.125  1.2761  2.5371 -3.4478
 3213TIP3    H233835   6.497   4.728  12.212  1.3281  0.2591 -1.5658
 3214TIP3   OH233836   1.576   0.104  11.920 -0.2469  0.0619  0.2403
 3214TIP3    H133837   1.547   0.086  12.010 -2.7800  1.0091 -0.2958
 3214TIP3    H233838   1.518   0.174  11.890  0.8799  0.1279 -1.9810
 3215TIP3   OH233839   3.226   3.212  10.615 -0.6910 -0.4425 -0.3315
 3215TIP3    H133840   3.177   3.183  10.538 -0.7394 -0.6001 -0.2439
 3215TIP3    H233841   3.271   3.133  10.645 -0.7296 -0.4001 -0.1577
 3216TIP3   OH233842   2.984   4.736  11.304  0.5887  0.0976 -0.4648
 3216TIP3    H133843   2.946   4.664  11.253  2.1646  0.4478 -2.2371
 3216TIP3    H233844   3.045   4.693  11.364  0.2044 -0.1741 -0.2664
 3217TIP3   OH233845   6.320   4.133  10.586 -0.3639  0.0253  0.5540
 3217TIP3    H133846   6.265   4.204  10.554  1.6530  2.7091  2.6025
 3217TIP3    H233847   6.311   4.137  10.681  1.7798 -0.7710  0.8403
 3218TIP3   OH233848   0.149   2.197  12.295  0.4317  0.5490  0.1168
 3218TIP3    H133849   0.135   2.267  12.232  1.3788  0.9621  0.3366
 3218TIP3    H233850   0.146   2.117  12.243 -0.4702  0.7584 -0.1657
 3219TIP3   OH233851   5.483   2.912  10.250 -0.1119  0.0671  0.0380
 3219TIP3    H133852   5.408   2.972  10.257 -0.7516 -0.6261 -0.7362
 3219TIP3    H233853   5.444   2.826  10.239  0.8090 -0.3864  0.2573
 3220TIP3   OH233854   6.263   0.781  10.878 -0.9110  0.2501 -0.3466
 3220TIP3    H133855   6.205   0.816  10.946  1.1255 -0.0519  1.6492
 3220TIP3    H233856   6.338   0.746  10.926 -1.7857 -5.1452 -2.2385
 3221TIP3   OH233857   1.954   2.900  10.586 -0.0925 -0.2629 -0.0552
 3221TIP3    H133858   2.000   2.912  10.503  0.1733  1.1719  0.2691
 3221TIP3    H233859   2.023   2.875  10.647  0.2969  1.6497  0.3754
 3222TIP3   OH233860   3.815   4.547  11.084  0.8132  0.0791 -0.0051
 3222TIP3    H133861   3.881   4.599  11.040 -0.0297  0.9628 -0.2596
 3222TIP3    H233862   3.751   4.525  11.016 -0.0862  0.7807  0.5799
 3223TIP3   OH233863   4.611   4.611  11.142 -0.0013  0.0379 -0.4242
 3223TIP3    H133864   4.628   4.702  11.168  1.3108 -0.1443 -0.5986
 3223TIP3    H233865   4.523   4.614  11.104  0.8588  1.7137 -2.5045
 3224TIP3   OH233866   7.389   5.786  11.007 -0.2889 -0.1819  0.1598
 3224TIP3    H133867   7.326   5.754  11.071 -1.3030 -0.3405 -0.8933
 3224TIP3    H233868   7.336   5.813  10.932  0.8275  0.5062 -0.4121
 3225TIP3   OH233869   1.368   5.934  10.728  0.6904  0.1213  0.0695
 3225TIP3    H133870   1.350   5.883  10.649 -1.0837 -1.5111  1.4201
 3225TIP3    H233871   1.463   5.929  10.738  0.6647 -2.2698 -0.3307
 3226TIP3   OH233872   6.154   4.024  11.984  0.5704  0.2579  0.3927
 3226TIP3    H133873   6.071   4.020  12.032  0.8219  1.9775  1.0599
 3226TIP3    H233874   6.130   4.009  11.892 -0.6580  1.6657  0.4427
 3227TIP3   OH233875   4.378   0.101  11.166  0.7112  0.7568 -0.1358
 3227TIP3    H133876   4.370   0.006  11.171  1.2288  0.6557 -0.9755
 3227TIP3    H233877   4.324   0.126  11.091  0.7777  1.0995 -0.0705
 3228TIP3   OH233878   5.838   7.341  12.210  0.4976 -0.6446  0.0719
 3228TIP3    H133879   5.932   7.324  12.205  0.4807 -0.3922 -1.7227
 3228TIP3    H233880   5.822   7.405  12.141 -0.9352 -0.4016  0.6086
 3229TIP3   OH233881   1.310   5.885  12.577  0.0091 -0.5252  0.5528
 3229TIP3    H133882   1.223   5.904  12.613  0.7685 -0.8842  2.7191
 3229TIP3    H233883   1.351   5.971  12.568 -0.6879 -0.3180 -0.8898
 3230TIP3   OH233884   3.183   3.945  12.695  0.3883  0.4561  0.0264
 3230TIP3    H133885   3.231   3.873  12.735  0.3819  0.8005  0.6818
 3230TIP3    H233886   3.116   3.903  12.641  1.4953 -0.0373 -1.0239
 3231TIP3   OH233887   7.377   3.031  11.639 -0.4318  0.0366  0.2678
 3231TIP3    H133888   7.386   2.941  11.669 -0.0230 -0.0417 -0.0897
 3231TIP3    H233889   7.335   3.024  11.553  0.9483  0.0873 -0.4361
 3232TIP3   OH233890   3.785   6.874  12.123  0.1017  0.4723  0.3895
 3232TIP3    H133891   3.837   6.799  12.095 -0.3567  0.5878 -0.8310
 3232TIP3    H233892   3.848   6.945  12.134  0.3739  0.2446  0.2843
 3233TIP3   OH233893   6.273   6.850  10.323  0.2368  0.1871 -0.2777
 3233TIP3    H133894   6.189   6.894  10.313 -0.0648 -0.3898 -0.2887
 3233TIP3    H233895   6.257   6.759  10.297  0.6016 -0.1791  0.6969
 3234TIP3   OH233896   4.744   1.564  12.727 -0.2888 -0.3984 -0.5272
 3234TIP3    H133897   4.702   1.577  12.642 -2.3426 -1.0196  0.3218
 3234TIP3    H233898   4.722   1.642  12.777  0.0319 -0.4975 -0.2268
 3235TIP3   OH233899   0.480   1.302  11.926 -0.1256  0.0629 -0.5480
 3235TIP3    H133900   0.469   1.226  11.984  1.7580  0.0347 -0.1597
 3235TIP3    H233901   0.501   1.374  11.986 -1.7203  0.8981 -0.9293
 3236TIP3   OH233902   1.453   6.700  10.937 -0.0462  0.4500 -0.5913
 3236TIP3    H133903   1.530   6.741  10.976 -0.5338  2.0950 -1.2974
 3236TIP3    H233904   1.412   6.652  11.009  0.8591  0.7188  0.1145
 3237TIP3   OH233905   0.576   0.286  11.226  0.7487 -0.2056  0.5187
 3237TIP3    H133906   0.576   0.380  11.245  0.9433  0.0216 -0.5599
 3237TIP3    H233907   0.493   0.255  11.262 -0.1704  0.7311 -0.6992
 3238TIP3   OH233908   7.462   4.984  12.165 -0.2035 -0.1625  0.0183
 3238TIP3    H133909   7.487   4.983  12.257 -0.4232 -1.3106  0.0762
 3238TIP3    H233910   7.540   4.953  12.118  0.1177  1.0129 -0.2503
 3239TIP3   OH233911   7.644   4.211  10.248  0.4095  0.1846  0.2945
 3239TIP3    H133912   7.566   4.165  10.216  1.0711 -0.1892 -0.8168
 3239TIP3    H233913   7.609   4.275  10.310 -0.8328  0.2943 -0.4717
 3240TIP3   OH233914   7.051   1.246  10.152 -0.0996  0.4310  0.0944
 3240TIP3    H133915   7.106   1.267  10.076  0.4114  0.3863  0.4525
 3240TIP3    H233916   7.000   1.325  10.167  0.6735  0.8739  0.4560
 3241TIP3   OH233917   3.895   1.355  12.546  0.5394 -0.0812  0.7050
 3241TIP3    H133918   3.959   1.303  12.596  0.3114 -0.3653  0.6966
 3241TIP3    H233919   3.877   1.304  12.468  0.9183  0.3793  0.3072
 3242TIP3   OH233920   3.601   5.070  10.540 -0.2858 -0.0605  0.1503
 3242TIP3    H133921   3.643   4.995  10.583  0.6400 -0.2834 -1.0973
 3242TIP3    H233922   3.595   5.044  10.448  1.3340  1.9391 -0.5764
 3243TIP3   OH233923   0.660   4.420  12.693  0.1675  0.2927  0.2805
 3243TIP3    H133924   0.620   4.461  12.770 -0.1357  0.1037  0.2236
 3243TIP3    H233925   0.637   4.478  12.620 -1.2377 -0.5523  0.0074
 3244TIP3   OH233926   5.375   6.532  12.595  0.1363 -0.4134  0.6844
 3244TIP3    H133927   5.446   6.561  12.539 -1.0763 -1.9864 -1.8355
 3244TIP3    H233928   5.341   6.613  12.634  0.0171  1.0124 -2.1418
 3245TIP3   OH233929   3.164   3.071  11.230  0.5668 -0.0923 -0.1037
 3245TIP3    H133930   3.130   3.149  11.273  0.2780 -0.0866 -0.3421
 3245TIP3    H233931   3.184   3.010  11.301 -0.9213 -0.5020 -0.0039
 3246TIP3   OH233932   3.391   6.935  11.086 -0.1949 -0.4463 -0.6366
 3246TIP3    H133933   3.439   7.003  11.132 -0.4802 -0.0513 -0.9115
 3246TIP3    H233934   3.431   6.853  11.115 -1.1126 -0.3001  1.1887
 3247TIP3   OH233935   3.113   1.544  11.369 -0.3892 -0.0157  0.5226
 3247TIP3    H133936   3.147   1.534  11.459 -0.9882  0.9128  0.8650
 3247TIP3    H233937   3.170   1.488  11.316  0.3968 -0.0671  1.3834
 3248TIP3   OH233938   0.978   2.396  11.414  0.0210 -0.1125  0.0005
 3248TIP3    H133939   0.950   2.433  11.330  0.4362 -0.6811 -0.3897
 3248TIP3    H233940   1.070   2.420  11.422 -0.3332  1.0399  0.8990
 3249TIP3   OH233941   6.135   2.062  11.276  0.6319 -0.4187  0.6024
 3249TIP3    H133942   6.203   1.995  11.277 -0.6561 -1.8454 -0.9607
 3249TIP3    H233943   6.183   2.144  11.269  2.2305 -1.2345  1.3451
 3250TIP3   OH233944   6.864   1.325  12.360  0.6275 -0.1663 -0.9875
 3250TIP3    H133945   6.884   1.408  12.315 -0.8543  0.7791  0.0016
 3250TIP3    H233946   6.771   1.310  12.341  0.8968 -1.6908 -1.2372
 3251TIP3   OH233947   6.355   5.984  10.672  0.3206  0.2353  0.2422
 3251TIP3    H133948   6.289   6.035  10.624 -0.2818  0.0187  0.8241
 3251TIP3    H233949   6.437   6.029  10.655  0.0104  0.5785 -0.4050
 3252TIP3   OH233950   1.722   5.119  10.014 -0.4429 -0.1993 -0.2253
 3252TIP3    H133951   1.632   5.091   9.999 -0.0492 -0.5297 -2.2485
 3252TIP3    H233952   1.775   5.041   9.998  0.2366  0.0310  0.7901
 3253TIP3   OH233953   0.887   4.845  11.634  0.0347  0.2497  0.2319
 3253TIP3    H133954   0.889   4.906  11.561  0.2190 -0.9117 -0.7812
 3253TIP3    H233955   0.841   4.891  11.704 -2.4509  0.5152 -1.4487
 3254TIP3   OH233956   0.612   4.605  12.196  0.4820 -0.0712  0.0472
 3254TIP3    H133957   0.700   4.573  12.213  0.4415 -1.0863 -1.3916
 3254TIP3    H233958   0.556   4.553  12.254  0.8130  0.6515  1.0429
 3255TIP3   OH233959   6.461   0.024  11.416 -0.0407  0.5170 -0.3320
 3255TIP3    H133960   6.417  -0.061  11.415 -0.8134  0.8614  1.6130
 3255TIP3    H233961   6.523   0.019  11.343  1.5130 -2.5451  0.9978
 3256TIP3   OH233962   3.798   0.960  12.000 -0.0398  0.0431 -0.1584
 3256TIP3    H133963   3.785   0.997  12.088 -0.4828 -1.4089  0.4041
 3256TIP3    H233964   3.894   0.958  11.990  0.0636 -1.0450  0.8592
 3257TIP3   OH233965   6.572   7.002  12.135  0.5586 -0.4401 -0.0559
 3257TIP3    H133966   6.654   7.029  12.094 -0.6388  0.0399 -2.3593
 3257TIP3    H233967   6.566   6.908  12.117  1.5660 -0.9452  2.0217
 3258TIP3   OH233968   4.990   0.810  10.849  0.1811  0.2465 -0.0694
 3258TIP3    H133969   5.008   0.742  10.915  1.4391 -0.6612 -1.2896
 3258TIP3    H233970   4.902   0.841  10.871 -0.4509 -1.7908  0.5471
 3259TIP3   OH233971   2.712   2.415  11.990 -0.1970 -0.5558  0.3100
 3259TIP3    H133972   2.719   2.482  11.923  2.3601 -0.2480  0.7573
 3259TIP3    H233973   2.758   2.339  11.953  0.7468 -0.5674  1.4199
 3260TIP3   OH233974   2.386   6.514  11.088  0.3808  0.2997  0.0546
 3260TIP3    H133975   2.317   6.541  11.027 -0.2503  1.2228  1.1198
 3260TIP3    H233976   2.423   6.435  11.050 -0.6396  0.3164 -1.0260
 3261TIP3   OH233977   4.822   2.190  12.605  0.1367 -0.0941  0.1326
 3261TIP3    H133978   4.877   2.227  12.674 -1.4345  1.2577  0.7232
 3261TIP3    H233979   4.746   2.248  12.600 -2.1303 -2.7652  0.5522
 3262TIP3   OH233980   5.572   6.662  10.487 -0.1444  0.2321  0.1141
 3262TIP3    H133981   5.621   6.739  10.459 -0.7584  0.1713 -1.2032
 3262TIP3    H233982   5.608   6.590  10.435 -0.6575 -0.0686  0.1635
 3263TIP3   OH233983   5.620   3.295  12.472 -0.1081 -0.1511 -0.0932
 3263TIP3    H133984   5.700   3.344  12.458 -0.3266 -0.3275 -2.3750
 3263TIP3    H233985   5.649   3.205  12.485  0.0815 -0.4220 -2.0745
 3264TIP3   OH233986   2.949   1.997  11.009 -0.1549 -0.1790  0.1521
 3264TIP3    H133987   3.023   1.945  10.979 -0.2511  0.5193 -1.4031
 3264TIP3    H233988   2.981   2.044  11.086  0.7234 -0.5486  0.0157
 3265TIP3   OH233989   1.901   3.776  10.772  0.7993 -0.3149  0.3951
 3265TIP3    H133990   1.937   3.822  10.847  0.1015  0.4679  0.2583
 3265TIP3    H233991   1.806   3.778  10.786  0.4731  1.9165 -1.6635
 3266TIP3   OH233992   5.936   6.733   9.406  0.3877  0.0163  0.2951
 3266TIP3    H133993   5.862   6.673   9.393 -0.0396  0.3763  1.0293
 3266TIP3    H233994   5.895   6.818   9.425  0.9612  0.7549 -1.4632
 3267TIP3   OH233995   2.224   3.583  12.920  0.0487  0.3583  0.2605
 3267TIP3    H133996   2.304   3.538  12.948 -0.8047  0.1352  2.5743
 3267TIP3    H233997   2.162   3.568  12.991 -2.5244 -0.5774 -2.0094
 3268TIP3   OH233998   0.729   4.655  11.057 -0.5924 -0.2559  0.9204
 3268TIP3    H133999   0.657   4.717  11.048 -0.8100 -0.3722  1.7484
 3268TIP3    H234000   0.757   4.637  10.968 -1.4254 -0.0144  0.6008
 3269TIP3   OH234001   2.820   2.460  12.535 -0.3737  0.3203  0.2540
 3269TIP3    H134002   2.758   2.495  12.600 -2.1732  0.8997 -1.6531
 3269TIP3    H234003   2.768   2.398  12.484  1.6895 -2.1785  0.9370
 3270TIP3   OH234004   4.302   4.908  12.016  0.6164 -0.2340 -0.2165
 3270TIP3    H134005   4.368   4.852  12.057 -0.8881 -1.9468 -0.0169
 3270TIP3    H234006   4.302   4.883  11.924 -0.9801 -1.6153  0.1047
 3271TIP3   OH234007   4.836   1.618  11.531 -0.0263 -0.0281  0.5627
 3271TIP3    H134008   4.866   1.536  11.491  0.6349  0.5697 -0.2182
 3271TIP3    H234009   4.746   1.601  11.558  0.4729 -1.3775  1.4787
 3272TIP3   OH234010   5.460   3.812  11.075  0.3641  0.8585  0.1907
 3272TIP3    H134011   5.526   3.764  11.025  1.7798  0.4844  2.2997
 3272TIP3    H234012   5.504   3.893  11.102  0.1510  0.4453  1.9288
 3273TIP3   OH234013   6.900   2.830  10.409  0.1429  0.9700 -0.5032
 3273TIP3    H134014   6.811   2.801  10.429  0.5241  0.0626 -0.0827
 3273TIP3    H234015   6.898   2.849  10.315  0.1072 -1.4651 -1.0745
 3274TIP3   OH234016   1.788   1.039  11.212  0.0808 -0.3348  0.3117
 3274TIP3    H134017   1.704   1.030  11.167  1.0206 -0.7432 -1.4782
 3274TIP3    H234018   1.846   1.080  11.147  1.0408  0.7689  1.8003
 3275TIP3   OH234019   6.441   6.770  12.654  0.3438 -0.1467  0.0150
 3275TIP3    H134020   6.520   6.793  12.605 -0.4730 -1.0650 -1.8129
 3275TIP3    H234021   6.401   6.699  12.603 -0.8124 -0.8147  1.7781
 3276TIP3   OH234022   1.118   0.509  11.448  0.2897 -0.1876 -0.3323
 3276TIP3    H134023   1.208   0.485  11.425  0.1241 -1.3071  0.1457
 3276TIP3    H234024   1.066   0.487  11.371  0.7661  3.1939 -1.8132
 3277TIP3   OH234025   7.116   5.824  10.906  0.5182 -0.5025  0.0027
 3277TIP3    H134026   7.105   5.751  10.844 -1.0957  0.0276 -0.3872
 3277TIP3    H234027   7.037   5.821  10.960  0.6728  0.6639  0.3093
 3278TIP3   OH234028   7.282   2.707  11.393  0.1789 -0.7457  0.1899
 3278TIP3    H134029   7.240   2.652  11.460  0.4255 -0.3262  0.6940
 3278TIP3    H234030   7.323   2.644  11.334  1.7750 -1.1027  1.6101
 3279TIP3   OH234031   1.100   1.614  12.770 -0.2345  0.5834  0.1793
 3279TIP3    H134032   1.062   1.573  12.847  0.8793 -0.4071  0.2292
 3279TIP3    H234033   1.056   1.573  12.696  0.6334 -0.5210  0.2390
 3280TIP3   OH234034   5.452   6.690  12.279 -0.2032 -0.0275 -0.0006
 3280TIP3    H134035   5.481   6.774  12.316 -1.3071 -0.0755  1.0294
 3280TIP3    H234036   5.441   6.708  12.186  1.2537  0.4897 -0.0969
 3281TIP3   OH234037   2.818   7.300  10.507 -0.0910 -0.2996 -0.4233
 3281TIP3    H134038   2.760   7.374  10.489 -1.8527 -1.4722  0.1044
 3281TIP3    H234039   2.906   7.337  10.507 -0.7806  1.4670 -1.8273
 3282TIP3   OH234040   4.137   3.999  11.115 -0.1512 -0.3782 -0.0565
 3282TIP3    H134041   4.111   4.085  11.081 -1.0604 -1.2841 -1.7648
 3282TIP3    H234042   4.233   4.004  11.119 -0.0950  0.2959 -1.4137
 3283TIP3   OH234043   4.792   3.175  10.990 -0.1394 -0.5563  0.0343
 3283TIP3    H134044   4.774   3.123  11.069  0.7338 -1.2382 -0.1935
 3283TIP3    H234045   4.883   3.154  10.968  0.0511  0.6470 -0.4051
 3284TIP3   OH234046   4.219   0.051  10.569 -0.2100  0.1616 -0.5128
 3284TIP3    H134047   4.183   0.061  10.481 -1.4301 -0.0941 -0.0581
 3284TIP3    H234048   4.212   0.138  10.608  2.1499  0.7767 -1.2954
 3285TIP3   OH234049   5.536   6.975  12.311 -0.3509 -0.3925 -0.8487
 3285TIP3    H134050   5.601   7.011  12.372 -0.0696  1.0801 -1.9727
 3285TIP3    H234051   5.562   7.008  12.225 -2.3324 -0.1183 -1.3932
 3286TIP3   OH234052   5.044   1.556  11.971 -0.0998 -0.2109 -0.0996
 3286TIP3    H134053   5.010   1.596  11.891 -1.2125 -1.1072 -0.1065
 3286TIP3    H234054   5.044   1.627  12.035 -0.4408  0.2056 -0.5466
 3287TIP3   OH234055   0.968   5.646  12.333  0.2509 -0.5090 -0.1695
 3287TIP3    H134056   1.017   5.645  12.251  1.1546 -0.1702  0.3434
 3287TIP3    H234057   1.029   5.686  12.396 -0.4103 -0.8008  0.6682
 3288TIP3   OH234058   2.819   4.920  11.459 -0.0296  0.2008  0.3336
 3288TIP3    H134059   2.837   5.011  11.436 -2.4369  1.0902  1.6230
 3288TIP3    H234060   2.881   4.869  11.407  2.8087  2.6436  1.0814
 3289TIP3   OH234061   6.396   0.597  11.659  0.1766 -0.1587 -0.5191
 3289TIP3    H134062   6.359   0.605  11.572  0.1333 -3.0610 -0.8710
 3289TIP3    H234063   6.340   0.533  11.703  1.4591 -0.3784  0.8922
 3290TIP3   OH234064   1.959   6.365  11.916  0.0741 -0.1655 -1.1656
 3290TIP3    H134065   1.901   6.441  11.906 -0.7159 -0.5779  0.0409
 3290TIP3    H234066   2.039   6.401  11.955 -1.4571 -0.2824  2.4999
 3291TIP3   OH234067   6.386   2.256  11.033 -0.1696 -0.4080  0.4546
 3291TIP3    H134068   6.326   2.294  11.098 -0.9021  0.7220 -0.8016
 3291TIP3    H234069   6.433   2.332  10.998  0.0260 -0.9529 -0.4875
 3292TIP3   OH234070   4.768   5.654  10.454 -0.3518  0.0688 -0.4233
 3292TIP3    H134071   4.715   5.701  10.518  2.2600  1.0718  1.1620
 3292TIP3    H234072   4.775   5.714  10.379  1.6129  1.6574  0.9275
 3293TIP3   OH234073   3.641   5.975  10.297 -0.4288 -0.4815 -0.3436
 3293TIP3    H134074   3.580   5.925  10.351 -0.4598 -0.7253 -0.6073
 3293TIP3    H234075   3.593   5.993  10.216  0.3743 -2.0172 -1.2006
 3294TIP3   OH234076   2.969   2.834  11.634  0.2227  0.4988 -0.0405
 3294TIP3    H134077   2.955   2.928  11.621  1.1829  0.8222  1.0302
 3294TIP3    H234078   3.044   2.829  11.694 -0.0879 -0.9435  0.2741
 3295TIP3   OH234079   6.521   5.241  10.751 -0.1032  0.0342  0.0986
 3295TIP3    H134080   6.519   5.181  10.825  0.8760  1.3341  1.2437
 3295TIP3    H234081   6.580   5.199  10.688  0.2345 -0.4076  0.6969
 3296TIP3   OH234082   4.956   1.053  11.168 -0.7802 -0.3767  0.4453
 3296TIP3    H134083   4.999   1.136  11.188 -3.1021  0.9900  0.0756
 3296TIP3    H234084   5.028   0.993  11.148  0.9607  1.5430  0.6409
 3297TIP3   OH234085   3.182   5.624  10.568  0.1793  0.0131 -0.0420
 3297TIP3    H134086   3.166   5.718  10.558 -0.4240 -0.0823 -0.0065
 3297TIP3    H234087   3.192   5.592  10.478 -1.2992 -0.1669 -0.1661
 3298TIP3   OH234088   3.434   3.656  12.371  0.0599 -0.2500  0.3202
 3298TIP3    H134089   3.467   3.620  12.289  1.5120  1.6541 -0.0130
 3298TIP3    H234090   3.354   3.703  12.346  0.6793  0.6086 -0.1067
 3299TIP3   OH234091   2.247   2.728  11.381 -0.3145  0.0365  0.3320
 3299TIP3    H134092   2.287   2.658  11.432 -1.2967 -0.9058 -0.1377
 3299TIP3    H234093   2.221   2.794  11.445 -0.6083 -0.6621  0.9421
 3300TIP3   OH234094   0.558   2.321  11.298  0.7232  0.1862  0.2517
 3300TIP3    H134095   0.568   2.385  11.369  2.4930  0.3383 -0.0897
 3300TIP3    H234096   0.632   2.261  11.310 -0.6227 -1.5340  0.2585
 3301TIP3   OH234097   6.837   3.460  11.447 -0.0224 -0.8536  0.7116
 3301TIP3    H134098   6.838   3.540  11.500  0.1484  0.2702 -0.9175
 3301TIP3    H234099   6.754   3.419  11.468 -0.9206  0.6635  0.2952
 3302TIP3   OH234100   4.983   6.213  11.524  0.7524 -0.1610 -0.4123
 3302TIP3    H134101   5.071   6.249  11.531 -0.2639  3.1576 -2.6525
 3302TIP3    H234102   4.925   6.285  11.547 -1.4484 -1.7672 -0.5951
 3303TIP3   OH234103   2.148   4.565  11.070  0.0731 -0.4774  0.1352
 3303TIP3    H134104   2.096   4.507  11.126  0.4671 -0.8102  0.1630
 3303TIP3    H234105   2.084   4.617  11.023 -0.2630  0.1534  1.2530
 3304TIP3   OH234106   2.129   2.136  11.462 -0.1390  0.1502 -0.0617
 3304TIP3    H134107   2.054   2.191  11.441 -1.0046 -0.6649  0.8158
 3304TIP3    H234108   2.105   2.049  11.430 -1.3370 -1.0589  3.6219
 3305TIP3   OH234109   5.319   5.421  10.437  0.0333 -0.3649 -0.3817
 3305TIP3    H134110   5.321   5.440  10.530  3.4894 -0.5903 -0.2653
 3305TIP3    H234111   5.378   5.486  10.398  0.8062 -1.9335 -1.9918
 3306TIP3   OH234112   0.642   6.399  12.458 -0.0559  0.4586 -0.4350
 3306TIP3    H134113   0.641   6.453  12.537  3.2947  0.8386 -0.4932
 3306TIP3    H234114   0.663   6.460  12.388 -0.3320 -0.2848 -1.1729
 3307TIP3   OH234115   0.689   6.219  12.162 -0.0039 -0.6693 -0.0820
 3307TIP3    H134116   0.623   6.153  12.180  0.6650 -1.5917 -0.9490
 3307TIP3    H234117   0.755   6.207  12.230  0.4829 -1.4009 -0.6737
 3308TIP3   OH234118   3.320   5.355  11.541  0.5395  0.3945 -0.3073
 3308TIP3    H134119   3.386   5.379  11.606  0.8229 -0.7283 -0.1681
 3308TIP3    H234120   3.329   5.260  11.531 -0.5859  0.3255 -0.7998
 3309TIP3   OH234121   7.491   3.963  10.826 -0.9545  0.2157 -0.0273
 3309TIP3    H134122   7.478   3.894  10.761  2.0744  0.9816 -1.6723
 3309TIP3    H234123   7.452   4.041  10.787  0.7932  0.6573 -0.9959
 3310TIP3   OH234124   6.462   3.810  11.825 -0.4110 -0.5847  0.5355
 3310TIP3    H134125   6.502   3.895  11.845 -1.0111 -0.3338  0.7083
 3310TIP3    H234126   6.522   3.746  11.863  0.4905 -0.2798 -0.3483
 3311TIP3   OH234127   5.286   6.785  12.677 -0.5527 -0.9151  0.4833
 3311TIP3    H134128   5.254   6.776  12.587 -0.5160 -2.0855  0.5673
 3311TIP3    H234129   5.327   6.871  12.679  0.1026 -1.1585 -0.8456
 3312TIP3   OH234130   1.821   0.189  11.203  0.4421  0.1783  0.3284
 3312TIP3    H134131   1.825   0.284  11.210 -0.2430  0.3212 -1.0451
 3312TIP3    H234132   1.826   0.171  11.110  2.2639 -1.2408  0.6432
 3313TIP3   OH234133   7.485   7.037  12.641 -0.4106  0.6058  0.1963
 3313TIP3    H134134   7.507   6.961  12.694  1.4003  0.4550 -0.6666
 3313TIP3    H234135   7.390   7.043  12.644 -0.7920 -2.7271 -1.0513
 3314TIP3   OH234136   3.314   1.157  11.389 -0.6337 -0.3674  0.5841
 3314TIP3    H134137   3.272   1.096  11.328 -1.7457 -0.0971  1.0453
 3314TIP3    H234138   3.280   1.131  11.475  1.6449 -1.3625  1.2626
 3315TIP3   OH234139   0.319   1.106  10.711 -0.1945  0.0070  0.0935
 3315TIP3    H134140   0.302   1.048  10.637 -0.0920 -0.2964  0.3042
 3315TIP3    H234141   0.401   1.150  10.689  0.0604 -0.4016  0.2182
 3316TIP3   OH234142   7.341   6.927  12.196  0.2839  0.3245 -0.3494
 3316TIP3    H134143   7.278   6.906  12.127  0.8400 -0.0272 -0.7593
 3316TIP3    H234144   7.293   6.985  12.255 -0.0852  0.9410 -1.2328
 3317TIP3   OH234145   5.338   0.431  11.587 -0.0613  0.2695 -0.1532
 3317TIP3    H134146   5.259   0.484  11.586 -0.2649 -0.0207  0.2519
 3317TIP3    H234147   5.409   0.494  11.570 -0.4691  0.3397 -1.7133
 3318TIP3   OH234148   2.624   6.638  10.831  0.3122  0.4222 -0.5659
 3318TIP3    H134149   2.538   6.615  10.796 -0.0243  0.0264  0.4791
 3318TIP3    H234150   2.686   6.591  10.775 -0.2004 -0.1063 -0.6941
 3319TIP3   OH234151   1.902   2.030  12.235 -0.0082 -0.4516 -0.4915
 3319TIP3    H134152   1.813   2.037  12.199  0.0835 -2.1373 -1.1421
 3319TIP3    H234153   1.908   1.940  12.265  1.5753 -0.4444 -0.7071
 3320TIP3   OH234154   5.858   4.646  11.117  0.2682 -0.5247 -0.0232
 3320TIP3    H134155   5.910   4.599  11.182  0.4017 -0.4465 -0.0724
 3320TIP3    H234156   5.792   4.693  11.168  0.7446  0.0118  0.1062
 3321TIP3   OH234157   5.786   2.696  12.587 -0.1179  0.5283  0.2076
 3321TIP3    H134158   5.874   2.708  12.550 -0.7000  0.0336 -1.4386
 3321TIP3    H234159   5.735   2.657  12.515 -1.8490  1.3750  0.9207
 3322TIP3   OH234160   5.555   2.634  12.380 -0.0555  0.1531 -0.4841
 3322TIP3    H134161   5.461   2.613  12.374  0.1168 -0.3576 -1.8123
 3322TIP3    H234162   5.559   2.729  12.367 -0.5313  0.5252  1.7161
 3323TIP3   OH234163   4.676   6.661  10.768  0.3066  0.2235 -0.0707
 3323TIP3    H134164   4.684   6.603  10.692  0.2101  2.0769 -1.5840
 3323TIP3    H234165   4.581   6.674  10.778  0.3618  1.1597 -0.6210
 3324TIP3   OH234166   5.287   4.200  11.780 -0.0825 -0.4846 -0.8543
 3324TIP3    H134167   5.377   4.180  11.754  0.0661 -0.7307 -0.1759
 3324TIP3    H234168   5.289   4.199  11.876 -0.7724 -0.3301 -0.8331
 3325TIP3   OH234169   1.638   3.604  12.645  0.4651 -0.0825  0.1121
 3325TIP3    H134170   1.599   3.677  12.597  1.0324 -1.1604 -2.1590
 3325TIP3    H234171   1.726   3.634  12.667  0.8817 -0.1914 -1.2631
 3326TIP3   OH234172   4.227   6.744  12.071  0.5053 -0.4151 -0.3647
 3326TIP3    H134173   4.288   6.801  12.023  0.8361  0.5591  1.1642
 3326TIP3    H234174   4.142   6.759  12.029  0.9382 -0.2536 -1.2040
 3327TIP3   OH234175   4.204   2.201  12.047  0.2617  0.7274 -0.6912
 3327TIP3    H134176   4.279   2.259  12.031  1.1614  0.4333  2.0264
 3327TIP3    H234177   4.180   2.217  12.138 -1.7534 -0.6355 -0.9202
 3328TIP3   OH234178   2.928   4.098  10.747 -0.2293 -0.3837 -0.0014
 3328TIP3    H134179   2.930   4.002  10.742 -2.1951 -0.7427  3.3850
 3328TIP3    H234180   2.843   4.121  10.709  1.3374  0.4280 -3.3947
 3329TIP3   OH234181   6.962   0.109  12.510 -0.1473  0.5968 -0.0619
 3329TIP3    H134182   6.942   0.109  12.416 -0.3165  0.1992 -0.0279
 3329TIP3    H234183   7.044   0.158  12.517 -0.2527  0.8246 -0.3908
 3330TIP3   OH234184   0.913   7.100  12.118 -0.1515  0.4581  0.2165
 3330TIP3    H134185   0.836   7.103  12.174 -1.9789 -3.1437 -1.7593
 3330TIP3    H234186   0.969   7.033  12.157 -1.5921 -2.3348 -2.1285
 3331TIP3   OH234187   6.349   5.092  11.888 -0.0866 -0.4593  0.0614
 3331TIP3    H134188   6.298   5.169  11.915 -0.2066 -0.2868 -0.6334
 3331TIP3    H234189   6.440   5.115  11.911 -0.3626 -1.0602  1.9652
 3332TIP3   OH234190   3.789   4.262  12.151  0.4335  0.3802  0.4894
 3332TIP3    H134191   3.804   4.253  12.245  0.3897 -0.3093  0.4371
 3332TIP3    H234192   3.861   4.317  12.119  0.3625  0.7414  0.9480
 3333TIP3   OH234193   1.945   6.767  10.285  0.0401  0.8185  0.7019
 3333TIP3    H134194   2.037   6.775  10.312 -0.1055 -0.1883  1.5702
 3333TIP3    H234195   1.945   6.695  10.223 -0.2163  0.6028  0.9546
 3334TIP3   OH234196   3.250   5.342  11.840  0.1794 -0.2180  0.1166
 3334TIP3    H134197   3.345   5.329  11.842  0.0078 -1.8721 -0.6635
 3334TIP3    H234198   3.214   5.256  11.817 -1.5439  0.2502  0.8527
 3335TIP3   OH234199   5.665   6.172  12.402 -0.5111 -0.6408  0.4835
 3335TIP3    H134200   5.651   6.116  12.479 -4.1351  1.2770  1.4282
 3335TIP3    H234201   5.692   6.256  12.438  1.6072 -0.7464 -0.7061
 3336TIP3   OH234202   4.245   2.584  11.809  0.0604  0.3946 -0.6419
 3336TIP3    H134203   4.299   2.659  11.783 -0.1639  1.1196  0.8419
 3336TIP3    H234204   4.299   2.537  11.873 -0.3517  0.0875 -0.5138
 3337TIP3   OH234205   2.099   2.810  10.294  0.0452 -0.1469  0.4564
 3337TIP3    H134206   2.060   2.884  10.247 -0.2789  0.1496  1.1826
 3337TIP3    H234207   2.026   2.748  10.304  0.0415 -0.0839  0.8185
 3338TIP3   OH234208   4.859   2.088  10.710 -0.8142  0.5513 -0.7065
 3338TIP3    H134209   4.946   2.118  10.682 -0.2456 -0.0979  0.3179
 3338TIP3    H234210   4.876   2.011  10.764 -2.0043  0.7032 -0.0846
 3339TIP3   OH234211   1.517   1.639   9.828 -1.4530  0.2393 -0.2191
 3339TIP3    H134212   1.440   1.684   9.791  0.1666  1.9947 -1.6470
 3339TIP3    H234213   1.538   1.571   9.764  0.8422  2.7366 -2.3558
 3340TIP3   OH234214   5.828   5.436  12.124 -0.4621  0.3233  0.4182
 3340TIP3    H134215   5.862   5.366  12.068  0.6833  1.8607 -0.9211
 3340TIP3    H234216   5.775   5.391  12.189  1.4282 -1.9336  0.5434
 3341TIP3   OH234217   5.170   4.702  12.085  0.2293  0.6290  0.5652
 3341TIP3    H134218   5.075   4.705  12.095  0.3795  1.3302  1.9613
 3341TIP3    H234219   5.187   4.615  12.048 -0.9021  0.2725  0.8504
 3342TIP3   OH234220   4.053   1.479  10.847  0.3665 -0.1916 -0.2769
 3342TIP3    H134221   4.130   1.453  10.796  0.8355 -0.5733  0.6050
 3342TIP3    H234222   4.041   1.572  10.826  0.2970 -0.4487 -1.3902
 3343TIP3   OH234223   6.798   7.399  11.634  0.2681 -0.4680 -0.3609
 3343TIP3    H134224   6.870   7.462  11.626  1.3375 -1.0453  3.1657
 3343TIP3    H234225   6.833   7.317  11.598  1.4864 -0.7580  1.3754
 3344TIP3   OH234226   0.910   1.599  10.015 -0.0992 -0.0206 -0.1407
 3344TIP3    H134227   0.817   1.605  10.034 -0.5588 -0.8450 -1.9573
 3344TIP3    H234228   0.939   1.520  10.060 -0.5257 -0.3578 -0.4481
 3345TIP3   OH234229   4.233   0.709  11.049  0.4302  0.4560  0.5577
 3345TIP3    H134230   4.193   0.784  11.005 -0.5684 -0.9264 -1.0453
 3345TIP3    H234231   4.190   0.705  11.134 -0.0951  1.2269  0.3391
 3346TIP3   OH234232   0.768   7.433   9.902 -0.7400 -0.0562 -0.4427
 3346TIP3    H134233   0.826   7.509   9.910  0.4378 -1.0138  0.3939
 3346TIP3    H234234   0.715   7.452   9.824 -1.6477  2.3816  0.6475
 3347TIP3   OH234235   4.056   2.005  12.502  0.6356 -0.4733  0.1730
 3347TIP3    H134236   4.058   1.973  12.412  0.2503 -0.0887  0.0234
 3347TIP3    H234237   4.127   1.958  12.546 -0.4445 -2.1839  0.1971
 3348TIP3   OH234238   3.789   5.371   9.962  0.0966 -0.0783 -0.1624
 3348TIP3    H134239   3.714   5.400  10.014 -0.2895  3.2027 -2.2472
 3348TIP3    H234240   3.862   5.425   9.993  0.7858 -0.7690 -0.5295
 3349TIP3   OH234241   1.755   1.130  12.380  0.3724 -0.0071 -0.3928
 3349TIP3    H134242   1.709   1.158  12.459 -0.7402  1.3447 -1.4634
 3349TIP3    H234243   1.847   1.130  12.404 -0.0369 -1.3927  1.4008
 3350TIP3   OH234244   4.938   7.454  11.505 -0.5526 -0.3067 -0.2947
 3350TIP3    H134245   4.992   7.426  11.432  2.5141  0.5420  1.4597
 3350TIP3    H234246   4.948   7.549  11.508 -1.1298 -0.2580  0.8482
 3351TIP3   OH234247   2.025   1.254  11.496  0.1195  0.2020 -0.7371
 3351TIP3    H134248   1.949   1.252  11.554 -1.4935 -0.9098 -2.7498
 3351TIP3    H234249   2.100   1.235  11.553 -0.8242  2.9746  1.6084
 3352TIP3   OH234250   6.235   4.301  11.821 -0.0137  0.4219 -0.3547
 3352TIP3    H134251   6.186   4.220  11.836 -0.2401  0.3019 -1.5667
 3352TIP3    H234252   6.249   4.338  11.908 -0.4235 -0.6159  0.1728
 3353TIP3   OH234253   2.423   0.281  11.909  0.1793  0.0484 -0.5530
 3353TIP3    H134254   2.429   0.331  11.827  2.8270  0.8613  0.0526
 3353TIP3    H234255   2.370   0.337  11.966 -1.6835 -0.5212 -1.6321
 3354TIP3   OH234256   3.900   3.870  11.670 -0.6731 -0.4002  0.1153
 3354TIP3    H134257   3.892   3.805  11.600  0.0298 -0.4260  0.0530
 3354TIP3    H234258   3.925   3.820  11.747  2.2766  0.0164 -0.4589
 3355TIP3   OH234259   4.777   0.583  11.106  0.1443  0.3447  0.0084
 3355TIP3    H134260   4.743   0.663  11.067 -2.0093 -1.1192 -1.4102
 3355TIP3    H234261   4.870   0.584  11.087  0.4010  3.0129  1.0693
 3356TIP3   OH234262   7.087   4.648  12.355  0.1357  0.2114 -0.3172
 3356TIP3    H134263   7.011   4.631  12.411 -0.6660  2.0918 -0.7361
 3356TIP3    H234264   7.091   4.573  12.296 -0.0714 -0.9561  1.0909
 3357TIP3   OH234265   4.923   7.171  12.101 -0.3446 -0.2621  0.2428
 3357TIP3    H134266   4.863   7.180  12.027 -0.6562 -2.1579  0.2209
 3357TIP3    H234267   4.905   7.084  12.136  1.5053 -0.3606  1.0524
 3358TIP3   OH234268   2.282   1.027  12.563  0.4479 -0.4646 -0.1697
 3358TIP3    H134269   2.367   1.002  12.599  0.8746  0.6495 -0.3647
 3358TIP3    H234270   2.271   0.970  12.487  1.2801 -0.2520 -0.4630
 3359TIP3   OH234271   2.881   7.448  11.434 -0.6980  0.5815 -0.1345
 3359TIP3    H134272   2.951   7.417  11.491 -1.0868  0.8854  0.5126
 3359TIP3    H234273   2.880   7.386  11.361  1.3059  1.4447 -0.9676
 3360TIP3   OH234274   7.018   6.295  12.144 -0.2630 -0.1760 -0.1213
 3360TIP3    H134275   7.045   6.384  12.165  0.7056 -0.1480 -1.3628
 3360TIP3    H234276   7.097   6.242  12.156 -0.5327 -0.6737 -0.4973
 3361TIP3   OH234277   6.366   5.268  10.473 -0.2829  0.1206  0.0737
 3361TIP3    H134278   6.437   5.259  10.409 -0.6605  1.2572 -0.5463
 3361TIP3    H234279   6.410   5.292  10.554  0.2048 -1.3275  0.2617
 3362TIP3   OH234280   4.414   1.541  11.196 -0.0260 -0.9147 -0.0101
 3362TIP3    H134281   4.323   1.563  11.174  0.8684  1.6840 -1.5484
 3362TIP3    H234282   4.453   1.515  11.113  1.3102  0.8181  0.0118
 3363TIP3   OH234283   7.241   5.909  12.380 -0.8298  0.8401 -0.1122
 3363TIP3    H134284   7.272   5.849  12.312  0.3558  1.0410  0.2306
 3363TIP3    H234285   7.148   5.920  12.362 -1.1781 -1.3808  0.0086
 3364TIP3   OH234286   5.824   4.864  12.593  0.2564  0.0755  0.0249
 3364TIP3    H134287   5.886   4.923  12.549 -0.6174  0.9189 -0.0943
 3364TIP3    H234288   5.751   4.855  12.532 -0.4672  0.3700  0.8263
 3365TIP3   OH234289   1.161   7.515  11.301  0.1075 -0.1521  0.8015
 3365TIP3    H134290   1.133   7.525  11.392 -1.4171 -0.1040  0.3524
 3365TIP3    H234291   1.249   7.552  11.299  0.2873 -0.4340  2.3191
 3366TIP3   OH234292   4.912   2.237   9.901 -0.2750  0.1345 -0.0067
 3366TIP3    H134293   4.838   2.224   9.960 -0.9397 -0.4478 -0.9528
 3366TIP3    H234294   4.885   2.309   9.844 -0.5179 -0.6936 -0.9612
 3367TIP3   OH234295   5.616   6.383  10.823 -0.1252  0.1361  0.4468
 3367TIP3    H134296   5.528   6.412  10.799  0.1384  0.0599 -0.6479
 3367TIP3    H234297   5.668   6.463  10.822  0.0182  0.0398  0.1448
 3368TIP3   OH234298   2.814   3.575  11.529 -0.1772 -0.2821 -0.0001
 3368TIP3    H134299   2.882   3.590  11.462 -0.1280 -1.5978 -0.2728
 3368TIP3    H234300   2.787   3.484  11.515 -1.4531 -0.0140  0.6194
 3369TIP3   OH234301   6.375   6.741  11.974  0.3509 -0.3627  0.1741
 3369TIP3    H134302   6.322   6.819  11.962 -0.7336 -1.1255 -0.1908
 3369TIP3    H234303   6.370   6.721  12.067  0.6518  0.0085  0.2718
 3370TIP3   OH234304   6.567   5.595  10.881 -0.4462  0.1585  0.0451
 3370TIP3    H134305   6.557   5.687  10.908 -0.8730  0.2047 -0.2679
 3370TIP3    H234306   6.616   5.600  10.799  1.0260  0.0086  0.8680
 3371TIP3   OH234307   3.789   5.887  12.078  0.7447 -0.2371  0.1194
 3371TIP3    H134308   3.814   5.799  12.106  0.8686  0.4977  2.5369
 3371TIP3    H234309   3.719   5.913  12.137  2.2037  2.1055  0.9719
 3372TIP3   OH234310   5.282   1.435  12.548 -0.7475 -0.2587 -0.4691
 3372TIP3    H134311   5.265   1.525  12.575  1.2817  0.6999 -2.1484
 3372TIP3    H234312   5.363   1.411  12.594 -0.3401 -0.5995 -1.3516
 3373TIP3   OH234313   1.380   6.742  12.071  0.5200 -0.1352  0.4200
 3373TIP3    H134314   1.328   6.694  12.007 -0.6907  1.1852  0.3575
 3373TIP3    H234315   1.425   6.810  12.021  2.8905 -1.6250  0.3726
 3374TIP3   OH234316   7.096   7.363  12.327  0.4094 -0.2659 -0.2329
 3374TIP3    H134317   7.144   7.429  12.277  0.4675 -0.3054 -0.2291
 3374TIP3    H234318   7.011   7.404  12.344  1.1284  0.6268  1.4771
 3375TIP3   OH234319   7.016   2.402  11.040  0.1921  0.2070 -0.4064
 3375TIP3    H134320   6.981   2.380  10.954 -0.2091 -1.3405  0.1248
 3375TIP3    H234321   7.002   2.497  11.048 -1.5044  0.0672 -1.2890
 3376TIP3   OH234322   6.986   0.585  10.370  0.3258  0.2987 -0.0666
 3376TIP3    H134323   7.014   0.535  10.293 -1.0933  0.9561 -1.0496
 3376TIP3    H234324   6.890   0.576  10.371 -0.3288  4.8183 -1.6816
 3377TIP3   OH234325   7.202   1.455  11.994 -0.3558 -0.2477  0.2451
 3377TIP3    H134326   7.222   1.476  11.902 -1.4565  1.4355  0.3423
 3377TIP3    H234327   7.229   1.364  12.004 -0.2000 -0.4734 -1.7579
 3378TIP3   OH234328   6.260   6.650  12.878  0.1734  0.0727 -0.4760
 3378TIP3    H134329   6.177   6.692  12.857 -0.3016 -0.8300 -0.4326
 3378TIP3    H234330   6.326   6.705  12.835 -0.2633  1.8232  0.9308
 3379TIP3   OH234331   2.475   4.359  10.677  0.3104  0.3074 -0.1979
 3379TIP3    H134332   2.409   4.327  10.615 -2.5613 -2.0349  3.6016
 3379TIP3    H234333   2.430   4.429  10.725  1.6559  0.6404  0.6295
 3380TIP3   OH234334   6.035   0.561  12.819  0.3591 -0.0848  0.4753
 3380TIP3    H134335   6.054   0.486  12.875 -1.3855  0.3818  1.7623
 3380TIP3    H234336   5.964   0.532  12.763 -0.0889  0.4800  0.7384
 3381TIP3   OH234337   2.189   6.510  12.629  0.8478  0.4181 -0.0605
 3381TIP3    H134338   2.133   6.587  12.618  1.0652  0.4833 -0.7030
 3381TIP3    H234339   2.232   6.524  12.714  0.1030  0.4987  0.3090
 3382TIP3   OH234340   1.864   3.767  11.763  0.4000 -0.3934  0.4644
 3382TIP3    H134341   1.863   3.763  11.859 -1.0185 -0.3098  0.4827
 3382TIP3    H234342   1.956   3.778  11.740  0.5593  1.9835  1.9250
 3383TIP3   OH234343   6.712   2.632  10.956 -0.3741  0.4119  0.5345
 3383TIP3    H134344   6.698   2.719  10.918 -0.8031  0.3809  0.6145
 3383TIP3    H234345   6.807   2.624  10.963 -0.3273  0.8264  0.4135
 3384TIP3   OH234346   5.142   3.477  12.298 -0.5233 -0.1808 -0.3200
 3384TIP3    H134347   5.216   3.417  12.296 -0.5628 -0.3393  1.2803
 3384TIP3    H234348   5.068   3.427  12.264 -0.6572 -1.2499  1.4128
 3385TIP3   OH234349   5.438   2.366  10.646  0.3408  0.4189  0.2555
 3385TIP3    H134350   5.471   2.447  10.607  2.0932  0.0623  0.8944
 3385TIP3    H234351   5.495   2.351  10.722 -0.1937 -1.2024  0.3820
 3386TIP3   OH234352   3.518   4.019  12.149  0.3428  0.1000 -0.1756
 3386TIP3    H134353   3.479   4.094  12.104 -0.3839 -0.1761 -0.0192
 3386TIP3    H234354   3.485   4.026  12.239 -0.7261 -1.0759 -0.4492
 3387TIP3   OH234355   0.435   3.302  11.201 -0.2217  0.4546 -0.0509
 3387TIP3    H134356   0.474   3.386  11.176 -1.5910  1.2379  0.3157
 3387TIP3    H234357   0.422   3.309  11.296  2.1759 -1.3105  0.5075
 3388TIP3   OH234358   4.013   2.556  10.773  0.3530 -0.3962 -0.0259
 3388TIP3    H134359   3.939   2.548  10.712  0.0109  0.8251  0.2150
 3388TIP3    H234360   4.070   2.621  10.733  0.2690  0.2027  0.7944
 3389TIP3   OH234361   5.848   4.787  10.734 -0.0798 -0.3277 -0.8391
 3389TIP3    H134362   5.814   4.726  10.799 -0.1686  0.0700 -0.5131
 3389TIP3    H234363   5.914   4.736  10.686 -0.0839 -0.6485 -0.5069
 3390TIP3   OH234364   0.845   4.662  10.379 -0.2021 -0.1783  0.5131
 3390TIP3    H134365   0.925   4.677  10.429 -0.9647 -1.8501  2.3939
 3390TIP3    H234366   0.849   4.569  10.356 -1.9274 -0.5086  1.3648
 3391TIP3   OH234367   2.914   7.529  12.901 -0.0406 -0.0565  0.1825
 3391TIP3    H134368   2.998   7.572  12.886  0.5444 -0.9888  0.7082
 3391TIP3    H234369   2.924   7.483  12.984 -1.6143  1.1093  1.0853
 3392TIP3   OH234370   2.982   1.982  12.425  0.8118  0.1330 -0.3210
 3392TIP3    H134371   2.987   1.887  12.423  0.2899  0.1124 -1.9614
 3392TIP3    H234372   3.069   2.012  12.399  0.6016  0.0804 -1.1007
 3393TIP3   OH234373   4.936   6.352  11.916 -0.0245  0.1789 -0.5481
 3393TIP3    H134374   4.879   6.296  11.864 -0.1737 -1.4179  1.2341
 3393TIP3    H234375   5.025   6.330  11.888 -0.0864 -0.9556  0.0886
 3394TIP3   OH234376   7.191   5.958  10.084  0.2080  0.5345  0.0045
 3394TIP3    H134377   7.199   5.863  10.083  0.7995  0.5543  1.2544
 3394TIP3    H234378   7.239   5.987  10.006  1.9298 -0.0872  0.7865
 3395TIP3   OH234379   0.493   3.657  12.838  0.3458  0.1924  0.1608
 3395TIP3    H134380   0.550   3.609  12.777  2.7867  1.7719  1.0643
 3395TIP3    H234381   0.491   3.746  12.804 -0.6416  0.4497  0.8485
 3396TIP3   OH234382   1.289   0.940  11.171  0.2535 -0.2591  0.2238
 3396TIP3    H134383   1.205   0.894  11.163 -0.4942  1.0935  0.1003
 3396TIP3    H234384   1.310   0.934  11.265  0.0505 -0.6300  0.2495
 3397TIP3   OH234385   1.147   4.819  11.719  0.5016 -0.2485  0.0686
 3397TIP3    H134386   1.052   4.819  11.703 -0.1112 -1.5874  3.0398
 3397TIP3    H234387   1.179   4.741  11.674  0.0523 -0.2612 -0.2335
 3398TIP3   OH234388   1.052   4.644  12.195 -0.0397 -0.3813  0.1447
 3398TIP3    H134389   1.116   4.702  12.153  2.4619 -2.3291  1.0279
 3398TIP3    H234390   1.013   4.698  12.264  1.4869  0.5871  0.3102
 3399TIP3   OH234391   3.827   7.071  10.481  0.5062  0.2211  0.4536
 3399TIP3    H134392   3.833   7.112  10.567  2.7981  1.8100 -0.3816
 3399TIP3    H234393   3.761   7.121  10.435  0.3824  0.3460  0.7629
 3400TIP3   OH234394   1.892   3.699  12.828 -0.0014  0.1182 -0.0425
 3400TIP3    H134395   1.914   3.608  12.849  1.1047  0.4518  0.3100
 3400TIP3    H234396   1.951   3.751  12.882 -0.7658  1.0551 -0.0947
 3401TIP3   OH234397   0.563   4.005  11.488  0.3094  0.2869 -0.6749
 3401TIP3    H134398   0.471   3.996  11.466  0.1187  0.9446 -0.1995
 3401TIP3    H234399   0.583   3.930  11.543 -0.1472  0.5544 -0.1426
 3402TIP3   OH234400   0.872   7.214  11.221  0.1252  0.0881 -0.2661
 3402TIP3    H134401   0.785   7.176  11.237 -1.1671  2.7135 -0.5178
 3402TIP3    H234402   0.855   7.307  11.208  3.0425  0.7150 -0.1654
 3403TIP3   OH234403   1.774   5.294  11.024  0.3593  0.0058 -0.2568
 3403TIP3    H134404   1.708   5.322  11.087  0.6668  0.2454 -0.0339
 3403TIP3    H234405   1.826   5.373  11.007  2.1778 -0.7275  1.5202
 3404TIP3   OH234406   2.867   6.670  11.956  0.0994  0.0310  0.3060
 3404TIP3    H134407   2.793   6.717  11.994  0.0199 -2.0454  3.0176
 3404TIP3    H234408   2.944   6.705  12.001  0.2703 -0.8599  0.7248
 3405TIP3   OH234409   7.201   5.781  11.221  0.3846 -0.1605 -0.1017
 3405TIP3    H134410   7.178   5.733  11.301  1.4092  0.2681  0.4668
 3405TIP3    H234411   7.181   5.872  11.242  0.2999 -0.0933 -0.4760
 3406TIP3   OH234412   5.166   2.215  10.002 -0.4814  0.4134  0.6009
 3406TIP3    H134413   5.084   2.236   9.956  0.1328  0.0086 -0.6987
 3406TIP3    H234414   5.149   2.131  10.044 -2.1054  2.1138  3.8005
 3407TIP3   OH234415   2.441   7.446  11.228  0.0032 -0.4344  0.6351
 3407TIP3    H134416   2.422   7.469  11.137  1.6315  1.4620  0.7189
 3407TIP3    H234417   2.356   7.420  11.264 -1.0169  0.5659 -0.9267
 3408TIP3   OH234418   5.978   1.435  11.403 -0.2878  0.0565 -0.3899
 3408TIP3    H134419   5.989   1.393  11.317 -0.3252  0.2742 -0.5009
 3408TIP3    H234420   5.925   1.513  11.385  0.7147  0.7615 -0.3699
 3409TIP3   OH234421   2.930   1.082  12.342 -0.1945  0.1446  0.1519
 3409TIP3    H134422   2.875   1.119  12.411  1.2139  0.2399  1.2615
 3409TIP3    H234423   2.948   1.156  12.283  0.2374  0.5437  0.7804
 3410TIP3   OH234424   5.902   4.079  10.767  0.3273  0.2700  0.0297
 3410TIP3    H134425   5.865   4.031  10.693  0.7129 -0.8620  0.5383
 3410TIP3    H234426   5.963   4.017  10.807  0.2323  0.9038  1.2053
 3411TIP3   OH234427   7.024   3.714  12.893  0.2731 -0.8596 -0.7297
 3411TIP3    H134428   6.996   3.727  12.984  2.4678  0.3702 -0.1720
 3411TIP3    H234429   7.026   3.619  12.882 -1.5311 -1.0150 -0.0271
 3412TIP3   OH234430   2.666   4.707  11.145  0.6512 -0.6833 -0.3026
 3412TIP3    H134431   2.591   4.667  11.099  0.3833 -1.0041  0.4008
 3412TIP3    H234432   2.682   4.648  11.218  0.1335  0.5930  0.8745
 3413TIP3   OH234433   4.420   7.000  10.043 -0.8502 -0.3205 -1.1287
 3413TIP3    H134434   4.410   6.905  10.049 -1.6498 -0.2244 -0.6688
 3413TIP3    H234435   4.332   7.034  10.063  0.0598  0.6078  1.8980
 3414TIP3   OH234436   0.145   0.814  10.957  0.3526 -0.0710 -0.3523
 3414TIP3    H134437   0.124   0.773  10.873 -0.1219 -1.4010  0.3758
 3414TIP3    H234438   0.097   0.897  10.957 -0.8627 -0.7540 -0.7934
 3415TIP3   OH234439   0.199   6.792  12.317  0.2287  0.0904 -0.0577
 3415TIP3    H134440   0.288   6.826  12.324 -0.5819  2.6724 -0.9902
 3415TIP3    H234441   0.147   6.851  12.372 -1.0637 -0.7332 -0.3527
 3416TIP3   OH234442   4.437   6.884  11.881 -0.2206 -0.2166  0.5325
 3416TIP3    H134443   4.526   6.914  11.865  0.2405 -1.6876  0.2027
 3416TIP3    H234444   4.388   6.912  11.804  0.1759 -0.2547  0.2660
 3417TIP3   OH234445   6.266   1.027  10.778 -0.3359  0.1956  0.5876
 3417TIP3    H134446   6.193   1.069  10.822 -0.6646 -0.3272  0.5518
 3417TIP3    H234447   6.257   0.934  10.799  0.2738  0.1155  0.5194
 3418TIP3   OH234448   2.012   1.302  11.865 -0.1050  0.0782 -0.4364
 3418TIP3    H134449   2.072   1.357  11.814  1.0188 -0.1331  0.6044
 3418TIP3    H234450   2.056   1.217  11.870 -0.5797 -0.1375  0.1836
 3419TIP3   OH234451   2.021   2.525  12.781  0.1072  0.2837  0.0932
 3419TIP3    H134452   2.047   2.459  12.846 -1.3594 -1.1786 -0.6911
 3419TIP3    H234453   1.958   2.580  12.827 -1.1456 -0.9238 -0.1018
 3420TIP3   OH234454   7.402   3.626   9.997 -0.4750 -0.0756  0.1366
 3420TIP3    H134455   7.391   3.698   9.935  1.4359  1.0848  1.0756
 3420TIP3    H234456   7.437   3.554   9.944  0.6068  0.7197 -0.2648
 3421TIP3   OH234457   2.434   4.126  12.667 -0.8486 -0.4104  0.1229
 3421TIP3    H134458   2.409   4.059  12.604 -1.6321 -0.4430  0.4477
 3421TIP3    H234459   2.356   4.138  12.721 -0.8308  0.9858 -0.1188
 3422TIP3   OH234460   0.697   3.593  12.566 -0.0457 -0.5202  0.3422
 3422TIP3    H134461   0.737   3.676  12.542  1.3157 -1.4937 -0.9560
 3422TIP3    H234462   0.619   3.588  12.512  0.8800 -0.8935 -1.0227
 3423TIP3   OH234463   1.389   2.491  11.689 -0.2162 -0.3330  0.0553
 3423TIP3    H134464   1.435   2.451  11.763 -0.6697 -0.6634  0.1572
 3423TIP3    H234465   1.423   2.445  11.612 -0.3493 -0.5510  0.1270
 3424TIP3   OH234466   6.334   6.796   9.808 -0.3328  0.3726  0.2081
 3424TIP3    H134467   6.261   6.740   9.833 -1.2663  0.9201 -1.1541
 3424TIP3    H234468   6.318   6.817   9.716  1.0007  1.3380  0.1607
 3425TIP3   OH234469   5.269   5.232  10.247  0.3172 -0.0691 -0.3610
 3425TIP3    H134470   5.291   5.313  10.294  1.0657 -0.3881 -0.1574
 3425TIP3    H234471   5.342   5.173  10.264 -0.6210 -1.1088  0.2107
 3426TIP3   OH234472   0.362   5.803  12.331  0.1333 -0.0075 -0.0923
 3426TIP3    H134473   0.413   5.788  12.411 -0.0681  1.3616  0.3296
 3426TIP3    H234474   0.414   5.866  12.282 -0.0893 -0.3051 -0.7154
 3427TIP3   OH234475   6.448   2.174  12.072  0.2599  0.0143  0.1666
 3427TIP3    H134476   6.491   2.233  12.134  0.1218 -0.0462  0.3209
 3427TIP3    H234477   6.458   2.087  12.111  1.8887 -0.2947 -0.8348
 3428TIP3   OH234478   1.565   5.431  11.141 -0.5487 -0.1744  0.1257
 3428TIP3    H134479   1.632   5.497  11.163 -1.7742  0.3243  2.6708
 3428TIP3    H234480   1.507   5.476  11.079 -0.5433  0.6525  0.7067
 3429TIP3   OH234481   0.030   6.158  10.670  0.4364  0.3716  0.2394
 3429TIP3    H134482   0.065   6.085  10.619  1.0167  0.2221  0.8415
 3429TIP3    H234483   0.047   6.134  10.761 -1.4057  0.2102  0.5801
 3430TIP3   OH234484   0.595   3.548  12.225  0.6678 -0.1486 -0.1715
 3430TIP3    H134485   0.580   3.633  12.184 -0.6967 -0.8329 -1.1706
 3430TIP3    H234486   0.519   3.534  12.281  0.9775 -0.6226  0.1435
 3431TIP3   OH234487   2.309   2.471  12.576  0.4165  0.0429  0.7220
 3431TIP3    H134488   2.347   2.509  12.655  2.3684  2.1556 -1.0753
 3431TIP3    H234489   2.382   2.464  12.515 -1.4584  1.2034 -1.8437
 3432TIP3   OH234490   4.619   1.084  12.077 -0.6922 -0.1251 -0.1144
 3432TIP3    H134491   4.595   1.093  12.169  1.5678  0.1258  0.5018
 3432TIP3    H234492   4.541   1.046  12.035 -1.4030 -1.2169  2.0801
 3433TIP3   OH234493   0.358   1.032  12.496 -0.2918  0.0428 -0.1306
 3433TIP3    H134494   0.289   0.975  12.464  0.2816 -1.2789  0.9079
 3433TIP3    H234495   0.315   1.087  12.562 -0.1534 -1.6702  1.4848
 3434TIP3   OH234496   2.978   1.222  11.351  0.4090 -0.2748  0.3831
 3434TIP3    H134497   2.999   1.133  11.379  0.7311 -0.0777  0.7868
 3434TIP3    H234498   2.949   1.213  11.261 -1.5979 -1.0669  1.0562
 3435TIP3   OH234499   2.383   3.294   9.986 -0.3103 -0.3421  0.5514
 3435TIP3    H134500   2.359   3.219   9.932 -1.9144  0.8528 -0.4982
 3435TIP3    H234501   2.312   3.303  10.049 -0.2750  0.4517  0.4857
 3436TIP3   OH234502   3.586   0.327  11.173  0.0949  0.2312 -0.1521
 3436TIP3    H134503   3.588   0.382  11.251  0.3160 -0.6008  0.4472
 3436TIP3    H234504   3.495   0.332  11.143 -0.0398  0.4125  0.2706
 3437TIP3   OH234505   7.495   7.558  10.940 -0.1144  0.2411  0.0521
 3437TIP3    H134506   7.540   7.623  10.887 -0.2510 -0.2295 -0.6649
 3437TIP3    H234507   7.527   7.474  10.907 -0.3739 -0.0647  0.5683
 3438TIP3   OH234508   4.896   0.453  11.335  0.3071 -0.0621 -0.4345
 3438TIP3    H134509   4.867   0.534  11.376 -1.2186 -0.1181 -1.3158
 3438TIP3    H234510   4.829   0.435  11.269 -1.4633 -3.9430  2.0763
 3439TIP3   OH234511   5.367   3.119  10.629 -0.3235  0.0857 -0.0872
 3439TIP3    H134512   5.345   3.211  10.636  1.0083  0.3200  1.6101
 3439TIP3    H234513   5.284   3.075  10.609 -1.3492  1.4264  1.0782
 3440TIP3   OH234514   3.096   2.609  12.851 -0.3276 -0.3653 -0.5475
 3440TIP3    H134515   3.074   2.536  12.909  1.2679 -0.9695 -0.6492
 3440TIP3    H234516   3.091   2.572  12.763  0.8036 -0.4605 -0.5843
 3441TIP3   OH234517   6.552   6.251  12.113 -0.6596 -0.2908 -0.8420
 3441TIP3    H134518   6.466   6.293  12.114 -0.6188 -0.1321  1.3401
 3441TIP3    H234519   6.542   6.175  12.170  0.4961 -0.6084 -1.0474
 3442TIP3   OH234520   0.931   0.002   9.854  0.2185  0.4418 -0.3177
 3442TIP3    H134521   0.946  -0.074   9.798 -0.9314  0.8774 -1.2693
 3442TIP3    H234522   1.011   0.053   9.847  0.3163  0.2024 -1.1244
 3443TIP3   OH234523   3.930   3.806  12.241  0.4714 -0.3831 -0.2103
 3443TIP3    H134524   3.994   3.861  12.196  0.0538 -0.1023 -0.4727
 3443TIP3    H234525   3.923   3.845  12.329 -0.7499  0.7994 -0.7783
 3444TIP3   OH234526   3.047   2.843  12.350  0.4518  0.0245 -0.1009
 3444TIP3    H134527   3.130   2.820  12.392  0.8842  2.1246  0.3230
 3444TIP3    H234528   2.994   2.763  12.355  2.6458 -1.5931 -0.9552
 3445TIP3   OH234529   5.353   6.991  11.038 -0.2441 -0.6414 -0.0797
 3445TIP3    H134530   5.282   7.055  11.027 -0.1509 -0.6010 -0.4904
 3445TIP3    H234531   5.319   6.926  11.099 -0.4041 -0.2883  0.2077
 3446TIP3   OH234532   1.730   0.277  12.454 -0.2682  0.6724 -0.0005
 3446TIP3    H134533   1.748   0.186  12.476  0.7391  0.7577 -0.4595
 3446TIP3    H234534   1.634   0.283  12.455 -0.3670 -0.5344 -0.5604
 3447TIP3   OH234535   0.712   4.017   9.997 -0.7098  0.5799  0.3860
 3447TIP3    H134536   0.712   4.091   9.936 -1.0478  1.3904  1.3341
 3447TIP3    H234537   0.622   3.985   9.997 -0.5686  0.1726 -0.0080
 3448TIP3   OH234538   5.929   0.942  11.654  0.6489  0.2036 -0.5675
 3448TIP3    H134539   5.985   0.972  11.726 -0.9232 -0.6670  1.1251
 3448TIP3    H234540   5.926   0.847  11.664  0.3820  0.0631 -1.8011
 3449TIP3   OH234541   7.244   6.141  12.198 -0.0573  0.4071 -0.3484
 3449TIP3    H134542   7.279   6.076  12.259  0.5595  1.9112  1.0064
 3449TIP3    H234543   7.322   6.188  12.166 -0.5888  2.4504  1.1164
 3450TIP3   OH234544   1.676   6.922  12.232 -0.2355 -0.2460 -0.1739
 3450TIP3    H134545   1.648   6.833  12.254 -1.8767  0.0256 -1.0469
 3450TIP3    H234546   1.595   6.969  12.213  0.6231  1.3932  0.0673
 3451TIP3   OH234547   2.681   6.923  11.647  0.1058  0.3787 -0.1434
 3451TIP3    H134548   2.649   6.849  11.698  0.3031  0.4882  0.1344
 3451TIP3    H234549   2.773   6.904  11.631  0.2944  0.8338  0.4006
 3452TIP3   OH234550   3.255   3.980  11.349  0.1104  0.7270  0.2125
 3452TIP3    H134551   3.321   3.914  11.373  1.0137  1.2246 -0.7969
 3452TIP3    H234552   3.179   3.958  11.402  0.8516 -0.3028  0.8990
 3453TIP3   OH234553   4.007   4.536  12.583 -0.3676  0.1868 -0.0023
 3453TIP3    H134554   3.989   4.442  12.586  0.4098  0.0317 -0.0481
 3453TIP3    H234555   3.934   4.573  12.534 -0.6749 -0.3902  0.0076
 3454TIP3   OH234556   4.431   7.108  10.454  0.0150  0.3009 -0.3710
 3454TIP3    H134557   4.475   7.085  10.372  0.3906 -0.4910  0.0499
 3454TIP3    H234558   4.463   7.196  10.475  1.5328 -0.3286  0.0175
 3455TIP3   OH234559   7.569   0.074  11.693 -0.2275  0.1515  0.2958
 3455TIP3    H134560   7.526   0.142  11.642  0.9867  1.0645  0.4413
 3455TIP3    H234561   7.631   0.033  11.632 -0.9138 -0.8071  0.2223
 3456TIP3   OH234562   0.778   0.922  11.116  0.1458 -0.3546 -0.7037
 3456TIP3    H134563   0.748   0.980  11.046  1.8692  0.4116 -0.8585
 3456TIP3    H234564   0.745   0.835  11.092  0.6866 -0.1013 -2.4694
 3457TIP3   OH234565   2.841   0.815  12.668 -0.3501 -0.3518 -0.1678
 3457TIP3    H134566   2.837   0.733  12.618  0.5832 -0.2901 -0.3701
 3457TIP3    H234567   2.888   0.792  12.748 -0.0258 -0.0036 -0.2561
 3458TIP3   OH234568   5.434   3.529  10.894  0.0582 -0.6773  0.7344
 3458TIP3    H134569   5.440   3.594  10.824 -1.9404 -0.5791  0.5986
 3458TIP3    H234570   5.493   3.561  10.962 -0.1784  0.7751  0.2888
 3459TIP3   OH234571   5.514   1.291  12.095  0.2335 -0.1552 -0.1673
 3459TIP3    H134572   5.458   1.215  12.111 -0.6757  0.5673  0.1927
 3459TIP3    H234573   5.470   1.363  12.139  1.2670  0.5207 -0.1966
 3460TIP3   OH234574   6.878   0.947  11.110  0.7565 -0.2597 -0.0098
 3460TIP3    H134575   6.862   0.930  11.203  0.6970 -0.5315 -0.0686
 3460TIP3    H234576   6.828   1.026  11.091  0.3813 -0.4762  0.0739
 3461TIP3   OH234577   6.867   7.154  10.360 -0.1124  0.4746  0.3983
 3461TIP3    H134578   6.855   7.116  10.273 -0.8328 -0.6549  0.9724
 3461TIP3    H234579   6.935   7.100  10.401 -0.0330  0.7777  0.6767
 3462TIP3   OH234580   3.942   1.626  12.524  0.3485 -0.1608 -0.7544
 3462TIP3    H134581   3.943   1.530  12.519 -0.2019 -0.4081  1.9954
 3462TIP3    H234582   4.006   1.647  12.592  1.3859  1.5435 -2.1939
 3463TIP3   OH234583   6.401   4.313  10.270 -0.2519 -0.3363  0.1489
 3463TIP3    H134584   6.318   4.325  10.317 -0.3602  1.4510 -0.3989
 3463TIP3    H234585   6.384   4.242  10.208 -2.2294  1.4990 -1.6091
 3464TIP3   OH234586   0.984   2.131  10.692  0.4160  0.6570 -0.2037
 3464TIP3    H134587   0.907   2.119  10.638  0.5381  1.1736 -0.5004
 3464TIP3    H234588   0.954   2.112  10.781 -0.3549  1.9756 -0.1601
 3465TIP3   OH234589   5.274   6.909  13.175 -0.3979 -0.5952 -0.4449
 3465TIP3    H134590   5.287   6.998  13.143 -1.2585  0.3490  1.6229
 3465TIP3    H234591   5.362   6.874  13.185 -0.0338  0.1397 -0.9400
 3466TIP3   OH234592   5.551   6.849  11.441  0.5416 -0.2748 -0.2339
 3466TIP3    H134593   5.632   6.884  11.478 -0.1979  0.3122  0.9126
 3466TIP3    H234594   5.567   6.843  11.347  1.8822 -0.1055 -0.0281
 3467TIP3   OH234595   0.993   5.044  10.074  0.2999 -0.1693 -0.1833
 3467TIP3    H134596   0.904   5.011  10.089 -0.0059 -0.1556 -1.7644
 3467TIP3    H234597   1.031   5.051  10.161 -0.9426 -1.0441  0.4648
 3468TIP3   OH234598   6.392   4.847  11.731  0.3136 -0.2439 -0.4015
 3468TIP3    H134599   6.347   4.872  11.650  0.1957 -1.7488 -0.8389
 3468TIP3    H234600   6.385   4.923  11.788 -0.5672  0.4476 -1.4072
 3469TIP3   OH234601   4.279   3.736  11.017  0.1038 -0.0737  0.8233
 3469TIP3    H134602   4.326   3.816  11.041 -0.1907  0.6700 -0.9580
 3469TIP3    H234603   4.192   3.766  10.988 -0.3834 -1.1389  1.1164
 3470TIP3   OH234604   6.737   2.396  12.539 -0.3562 -0.0747 -0.0980
 3470TIP3    H134605   6.703   2.337  12.471  1.9805 -0.8817 -0.6619
 3470TIP3    H234606   6.771   2.337  12.606  1.8043  0.5690 -0.5587
 3471TIP3   OH234607   4.458   5.238  12.130  0.0362 -0.4407  0.2333
 3471TIP3    H134608   4.397   5.173  12.162 -1.3706  1.4478  1.6629
 3471TIP3    H234609   4.456   5.229  12.034 -0.1279 -2.3994  0.3848
 3472TIP3   OH234610   6.275   5.754  11.089  0.3606  0.4344 -0.0809
 3472TIP3    H134611   6.226   5.819  11.139  0.1220  0.6298 -0.5746
 3472TIP3    H234612   6.364   5.759  11.126 -0.0484 -0.1739  1.0599
 3473TIP3   OH234613   4.431   6.887  12.890  0.2198  0.7103  0.0427
 3473TIP3    H134614   4.487   6.822  12.847  0.2471  1.1186 -0.5504
 3473TIP3    H234615   4.342   6.858  12.870  0.1907 -0.0866  1.2043
 3474TIP3   OH234616   2.543   3.551  10.091 -0.0259  0.5207  0.5451
 3474TIP3    H134617   2.562   3.462  10.062 -0.9466  1.0010 -1.6856
 3474TIP3    H234618   2.614   3.571  10.152  1.7675 -0.7708 -0.9942
 3475TIP3   OH234619   3.564   0.756  10.153  0.3424  0.0129  0.0269
 3475TIP3    H134620   3.587   0.753  10.246  0.4372 -0.1783 -0.0004
 3475TIP3    H234621   3.470   0.769  10.151  0.3263 -0.0892  0.1512
 3476TIP3   OH234622   2.750   7.024  11.363 -0.0304  0.6987 -0.4228
 3476TIP3    H134623   2.778   6.958  11.427 -1.0348 -0.0895 -0.7804
 3476TIP3    H234624   2.695   7.084  11.414 -0.7622  0.1179 -0.5034
 3477TIP3   OH234625   3.335   1.420  11.839 -0.7375  0.5202 -0.2931
 3477TIP3    H134626   3.378   1.357  11.896 -0.7243 -0.0828 -0.9491
 3477TIP3    H234627   3.373   1.504  11.862  0.9092 -0.0034 -0.9364
 3478TIP3   OH234628   5.082   4.719  10.671  0.1754 -0.3898 -0.3975
 3478TIP3    H134629   5.046   4.795  10.625  1.2084  0.9445  0.9049
 3478TIP3    H234630   5.164   4.701  10.624 -0.2813 -0.9841 -0.9748
 3479TIP3   OH234631   0.629   6.294  11.896  0.5986 -0.2253 -0.0550
 3479TIP3    H134632   0.537   6.276  11.875  0.7051 -0.7278 -0.0836
 3479TIP3    H234633   0.642   6.255  11.982  0.5517  0.6121  0.3476
 3480TIP3   OH234634   6.228   5.612  12.187 -0.1121  0.1176 -0.0297
 3480TIP3    H134635   6.315   5.587  12.157  0.9375  3.0081  0.2602
 3480TIP3    H234636   6.191   5.661  12.113 -1.3225 -0.6458  0.0399
 3481TIP3   OH234637   2.952   1.239  11.657  0.2141 -0.3842 -0.0050
 3481TIP3    H134638   2.947   1.272  11.567  5.2790  1.4238  0.0218
 3481TIP3    H234639   2.975   1.146  11.647  0.9147 -0.1533 -0.6146
 3482TIP3   OH234640   3.383   2.521  10.690 -0.4960 -0.0041  0.3196
 3482TIP3    H134641   3.437   2.514  10.611 -1.3616 -0.4466 -0.2529
 3482TIP3    H234642   3.389   2.613  10.715 -0.8092  0.3074 -0.6986
 3483TIP3   OH234643   6.695   1.646  10.695  0.1622 -0.3775 -0.5393
 3483TIP3    H134644   6.647   1.727  10.676  2.1127  0.8875 -0.3860
 3483TIP3    H234645   6.742   1.626  10.615  1.0949 -0.3291 -0.0159
 3484TIP3   OH234646   1.155   1.386  11.676  0.2016  0.0766  0.1010
 3484TIP3    H134647   1.245   1.405  11.705  1.0463 -1.1471 -1.5315
 3484TIP3    H234648   1.166   1.328  11.600 -1.9554  0.6962 -0.7652
 3485TIP3   OH234649   5.860   2.783  12.854 -0.1076  0.3571  0.4483
 3485TIP3    H134650   5.821   2.743  12.776  1.5016  0.3284 -0.3743
 3485TIP3    H234651   5.858   2.877  12.837  0.5403  0.3332  0.2147
 3486TIP3   OH234652   3.116   1.935  11.417  0.2337  0.1795  0.4178
 3486TIP3    H134653   3.120   1.896  11.504 -0.2006 -0.7538  0.0431
 3486TIP3    H234654   3.024   1.962  11.408  0.1481 -0.2192  0.0580
 3487TIP3   OH234655   5.910   2.258  12.742  1.0515 -0.5461  0.1609
 3487TIP3    H134656   5.904   2.164  12.725  1.9434 -0.7132  0.7138
 3487TIP3    H234657   5.821   2.285  12.763  1.0006 -1.5123  1.2108
 3488TIP3   OH234658   6.865   7.189  11.467 -0.6943 -0.1084 -0.0724
 3488TIP3    H134659   6.816   7.233  11.398 -0.1144 -2.1834 -1.8978
 3488TIP3    H234660   6.844   7.097  11.456  2.1082 -0.8740  0.2817
 3489TIP3   OH234661   1.270   1.615  12.415  0.0623  0.3430  0.1630
 3489TIP3    H134662   1.225   1.698  12.403 -1.8746 -0.7161 -0.3400
 3489TIP3    H234663   1.276   1.577  12.327  0.0670 -0.4579  0.4973
 3490TIP3   OH234664   6.558   1.717  11.070  0.0198 -0.2985 -0.1882
 3490TIP3    H134665   6.555   1.622  11.074 -0.2890 -0.3873 -1.8770
 3490TIP3    H234666   6.640   1.737  11.026 -0.1067  0.2133 -0.2005
 3491TIP3   OH234667   3.982   7.475  11.351  0.8010 -0.1818  0.3674
 3491TIP3    H134668   4.025   7.550  11.311  0.5190 -0.1392  0.1351
 3491TIP3    H234669   4.011   7.475  11.442 -2.2894  2.6577  1.5639
 3492TIP3   OH234670   4.505   1.037  12.303 -0.0886 -0.1479 -0.4294
 3492TIP3    H134671   4.497   1.075  12.391 -1.3131  1.1626 -1.0728
 3492TIP3    H234672   4.502   0.942  12.318  1.1156 -0.0007  1.0420
 3493TIP3   OH234673   0.173   3.939  12.655 -0.1472 -0.0325  0.4829
 3493TIP3    H134674   0.228   4.002  12.701  0.3453 -0.1079  0.0128
 3493TIP3    H234675   0.093   3.933  12.708  0.7664 -0.8100  1.8406
 3494TIP3   OH234676   2.581   6.312  10.666 -0.1483 -0.1517  0.4744
 3494TIP3    H134677   2.576   6.319  10.570 -1.1419 -1.0074  0.4419
 3494TIP3    H234678   2.670   6.340  10.688  0.4468 -0.9732 -0.7983
 3495TIP3   OH234679   2.633   2.700  11.478  0.0846  0.7406 -0.2180
 3495TIP3    H134680   2.658   2.700  11.386 -1.9377 -0.6524 -0.8449
 3495TIP3    H234681   2.584   2.619  11.489  1.8564 -0.0801  2.5879
 3496TIP3   OH234682   0.537   5.956  11.932  0.3501  0.3180  0.0845
 3496TIP3    H134683   0.482   6.026  11.897  0.8170  0.9144  0.5448
 3496TIP3    H234684   0.612   5.952  11.873  0.1283 -0.0696 -0.1753
 3497TIP3   OH234685   7.489   5.763  11.879 -0.3663  0.0690  0.3067
 3497TIP3    H134686   7.540   5.684  11.896  0.3931  0.3347 -0.7003
 3497TIP3    H234687   7.399   5.738  11.901  0.0268 -0.7091  1.1225
 3498TIP3   OH234688   1.082   1.809  10.872 -0.6226  0.0102 -0.0283
 3498TIP3    H134689   1.039   1.895  10.879  0.0175  0.3365  0.0267
 3498TIP3    H234690   1.020   1.755  10.824 -1.4745  0.1989  0.8344
 3499TIP3   OH234691   3.645   2.135  11.360 -0.4063 -0.5674 -0.7952
 3499TIP3    H134692   3.555   2.148  11.331 -0.2915 -0.8213 -1.2668
 3499TIP3    H234693   3.691   2.103  11.282  0.0273 -0.7136 -0.4794
 3500TIP3   OH234694   4.874   5.913   9.995  0.3243  0.5120  0.1676
 3500TIP3    H134695   4.921   5.869   9.924  1.0741  0.4826  0.6669
 3500TIP3    H234696   4.889   6.006   9.980 -0.6943  0.5869 -0.5010
 3501TIP3   OH234697   3.440   4.261  12.511 -0.1135  0.0315 -0.1113
 3501TIP3    H134698   3.378   4.328  12.482  1.5534  2.3349  1.2139
 3501TIP3    H234699   3.414   4.240  12.601 -1.5018 -2.3151 -0.9895
 3502TIP3   OH234700   4.100   2.497  10.475  0.1264 -0.2834  0.1763
 3502TIP3    H134701   4.126   2.562  10.410  0.5486 -1.1694 -0.5688
 3502TIP3    H234702   4.005   2.500  10.475  0.0890 -0.9779 -1.2380
 3503TIP3   OH234703   2.257   5.954  10.783 -0.2566  0.4298 -0.1690
 3503TIP3    H134704   2.161   5.960  10.776 -0.2383  0.1159 -0.7718
 3503TIP3    H234705   2.288   5.971  10.695  0.2233  0.0667 -0.0704
 3504TIP3   OH234706   0.281   3.976  12.171  0.4273 -0.9048 -0.1432
 3504TIP3    H134707   0.338   3.987  12.094  0.2276 -0.2776 -0.2091
 3504TIP3    H234708   0.231   4.057  12.175 -1.4385 -1.9511 -0.8807
 3505TIP3   OH234709   3.248   7.326  11.153  0.4811 -0.6988 -0.1426
 3505TIP3    H134710   3.246   7.408  11.104  2.2289 -0.3976  0.2282
 3505TIP3    H234711   3.341   7.306  11.163  0.0886 -2.7378 -0.2098
 3506TIP3   OH234712   5.552   5.629  10.856  0.2107 -0.1628  0.1011
 3506TIP3    H134713   5.632   5.610  10.905  0.9203  0.0232 -0.9534
 3506TIP3    H234714   5.530   5.719  10.881  1.2320  0.3543 -0.7776
 3507TIP3   OH234715   0.942   5.063  10.959  0.3049  0.3239  0.3337
 3507TIP3    H134716   0.979   5.021  11.036  2.0377  0.4514 -0.3646
 3507TIP3    H234717   0.985   5.149  10.955 -0.0427  0.4756 -0.5462
 3508TIP3   OH234718   4.678   0.424  10.040  0.3219 -0.0135 -0.3306
 3508TIP3    H134719   4.679   0.336  10.078 -1.1807 -1.1352 -2.6236
 3508TIP3    H234720   4.770   0.446  10.027  0.9063  0.1655  3.0561
 3509TIP3   OH234721   0.020   3.954  10.425  0.3459 -0.0266  0.1519
 3509TIP3    H134722  -0.024   3.878  10.386  0.1739  0.7052 -1.1744
 3509TIP3    H234723  -0.040   4.027  10.409  0.4381  0.3773  1.5337
 3510TIP3   OH234724   2.563   3.172  11.007 -0.4101 -0.1694 -0.0626
 3510TIP3    H134725   2.488   3.197  10.953 -1.2469 -1.2937  0.5167
 3510TIP3    H234726   2.637   3.217  10.968 -0.6287 -2.2558 -3.2917
 3511TIP3   OH234727   6.138   0.875  11.103 -0.3354  0.8269  0.0862
 3511TIP3    H134728   6.172   0.958  11.138 -0.7119  1.2144 -0.4541
 3511TIP3    H234729   6.043   0.886  11.104 -0.3455  1.3930 -2.3082
 3512TIP3   OH234730   6.684   2.055  10.291 -0.1961 -0.0966 -0.2512
 3512TIP3    H134731   6.762   2.107  10.273  0.4435 -0.6138  0.8959
 3512TIP3    H234732   6.613   2.103  10.248  0.5102  1.2428  0.0012
 3513TIP3   OH234733   1.471   2.852  10.555 -0.0331  0.5292 -0.3640
 3513TIP3    H134734   1.425   2.927  10.592 -0.5529 -0.4088  0.9785
 3513TIP3    H234735   1.468   2.867  10.460  1.1516  2.8965 -0.0928
 3514TIP3   OH234736   1.889   4.143  11.795  0.3397 -0.4006  0.0085
 3514TIP3    H134737   1.878   4.177  11.706 -1.5711 -0.8433  0.0286
 3514TIP3    H234738   1.861   4.215  11.851 -0.0317 -0.6831  0.1883
 3515TIP3   OH234739   3.058   4.527  12.108  0.8689  0.2735  0.4328
 3515TIP3    H134740   2.983   4.474  12.136  0.1700  1.7850  1.6095
 3515TIP3    H234741   3.106   4.472  12.046 -2.7884  0.2531 -2.7420
 3516TIP3   OH234742   3.980   5.649  11.609  0.2354  0.4494 -0.4741
 3516TIP3    H134743   3.985   5.720  11.673  0.9260 -0.4111  0.4337
 3516TIP3    H234744   4.058   5.660  11.554 -0.6035  1.4783 -1.5108
 3517TIP3   OH234745   2.182   7.668  11.268  0.3120  0.4427  0.6451
 3517TIP3    H134746   2.244   7.623  11.326 -1.3099 -0.9263  1.4185
 3517TIP3    H234747   2.231   7.682  11.187  1.2749 -1.7270  0.7754
 3518TIP3   OH234748   6.484   2.787  12.638  0.4665 -0.0822  0.5656
 3518TIP3    H134749   6.394   2.764  12.614 -0.1144  0.9456  1.6180
 3518TIP3    H234750   6.526   2.811  12.556 -0.1719 -0.7338  0.0374
 3519TIP3   OH234751   1.679   6.692  11.133  0.6307 -0.3572 -0.2918
 3519TIP3    H134752   1.668   6.621  11.070  2.8942 -1.3513  0.3212
 3519TIP3    H234753   1.670   6.650  11.219  0.2388  0.4628  0.0835
 3520TIP3   OH234754   1.626   0.893  12.484 -0.1056 -0.1269 -0.1084
 3520TIP3    H134755   1.669   0.971  12.448 -0.2421  0.3559  0.7634
 3520TIP3    H234756   1.548   0.926  12.528 -1.0707 -0.9352 -1.1502
 3521TIP3   OH234757   3.354   6.946  11.824 -0.4114 -0.1023 -0.1151
 3521TIP3    H134758   3.374   6.879  11.889 -1.5142  1.1222  1.5476
 3521TIP3    H234759   3.431   6.947  11.767  1.4219 -0.0200  2.2007
 3522TIP3   OH234760   6.859   1.305  10.950  0.0736 -0.2145 -0.0982
 3522TIP3    H134761   6.797   1.257  11.005 -1.4026  0.4213 -1.1281
 3522TIP3    H234762   6.890   1.377  11.005 -1.8482  0.7757 -0.2324
 3523TIP3   OH234763   0.616   1.505  12.390  0.0755 -0.2694 -0.2253
 3523TIP3    H134764   0.575   1.587  12.416  2.1720  0.8283 -0.2341
 3523TIP3    H234765   0.613   1.451  12.469  0.4440  0.5582  0.3690
 3524TIP3   OH234766   0.013   4.111  11.853 -0.0429 -0.0975 -0.3313
 3524TIP3    H134767  -0.059   4.148  11.802 -1.2734  0.2634  1.5765
 3524TIP3    H234768  -0.029   4.070  11.928  1.7794  0.8175  1.2748
 3525TIP3   OH234769   5.193   7.538  12.403 -0.2629 -0.3369 -0.1496
 3525TIP3    H134770   5.241   7.618  12.382 -1.5142  0.8704  1.3244
 3525TIP3    H234771   5.109   7.569  12.437 -1.4110 -2.3333 -1.0197
 3526TIP3   OH234772   1.047   2.314  12.509 -0.1780  0.1664  0.1264
 3526TIP3    H134773   1.026   2.221  12.513  0.3708  0.0387  0.0520
 3526TIP3    H234774   1.040   2.336  12.417  0.7074 -0.0379  0.0093
 3527TIP3   OH234775   4.808   7.068  10.634 -0.0364 -0.6486  0.6066
 3527TIP3    H134776   4.857   7.142  10.598  0.2508 -0.6676  0.9517
 3527TIP3    H234777   4.863   6.992  10.616 -0.6619 -0.8807 -0.3869
 3528TIP3   OH234778   7.640   0.488  11.533 -0.3615  0.2623 -0.1355
 3528TIP3    H134779   7.581   0.546  11.485  0.4903  0.9048 -0.4370
 3528TIP3    H234780   7.588   0.410  11.552 -1.3703  0.9076 -0.1919
 3529TIP3   OH234781   0.212   6.973  11.617  0.3419  0.3887 -0.0365
 3529TIP3    H134782   0.264   7.028  11.676  1.3605 -1.2983  0.7481
 3529TIP3    H234783   0.154   7.033  11.572  2.0489  2.2046  0.0634
 3530TIP3   OH234784   7.228   0.866  10.573 -0.1761 -0.5249 -0.5408
 3530TIP3    H134785   7.281   0.807  10.520 -0.2306 -1.5620  0.5052
 3530TIP3    H234786   7.290   0.901  10.638 -0.2332  0.2595 -0.9026
 3531TIP3   OH234787   1.610   1.390  11.235 -0.3529  0.0434  0.1422
 3531TIP3    H134788   1.704   1.376  11.244 -0.2407  1.0521  0.6784
 3531TIP3    H234789   1.600   1.484  11.224 -1.3133 -0.0310  0.2538
 3532TIP3   OH234790   5.088   6.635  11.330 -0.0780 -0.6464  0.0101
 3532TIP3    H134791   5.083   6.722  11.371  1.7344 -0.4349 -0.1604
 3532TIP3    H234792   4.996   6.611  11.316 -0.6702  0.5450  1.4950
 3533TIP3   OH234793   3.338   3.068  11.881 -0.7939  0.2498  0.1448
 3533TIP3    H134794   3.412   3.124  11.904  1.4643 -2.6204  0.4523
 3533TIP3    H234795   3.281   3.071  11.958 -0.0815  1.1033  0.6579
 3534TIP3   OH234796   2.352   5.047  11.263  0.7487  0.3094  0.2830
 3534TIP3    H134797   2.360   4.953  11.279 -0.7820  0.0757 -0.2208
 3534TIP3    H234798   2.431   5.085  11.304 -0.7155 -0.6747  4.5663
 3535TIP3   OH234799   0.456   7.056  10.627 -0.1304 -0.0105  0.3532
 3535TIP3    H134800   0.414   7.018  10.550  0.1976  0.3305  0.0063
 3535TIP3    H234801   0.383   7.074  10.687 -0.3231 -0.8406  0.3777
 3536TIP3   OH234802   6.970   0.675  12.124 -0.0496  0.0752  0.0462
 3536TIP3    H134803   7.026   0.692  12.049  0.5130  1.6611  0.7735
 3536TIP3    H234804   6.902   0.743  12.119 -1.2141 -1.0442 -0.1235
 3537TIP3   OH234805   2.556   6.732  12.760 -0.1383 -0.1844  0.3424
 3537TIP3    H134806   2.613   6.785  12.814  0.3120 -0.9105  0.5884
 3537TIP3    H234807   2.611   6.705  12.686 -0.3863 -0.2425  0.1765
 3538TIP3   OH234808   6.199   7.175  11.445 -0.1429 -0.6283  0.7024
 3538TIP3    H134809   6.282   7.199  11.487  0.0238 -0.4834  0.2927
 3538TIP3    H234810   6.156   7.119  11.510 -0.4240  0.5336  1.5545
 3539TIP3   OH234811   7.614   5.735  10.518 -0.1276 -1.1526  0.0013
 3539TIP3    H134812   7.569   5.653  10.537  1.7262 -1.7976  1.8723
 3539TIP3    H234813   7.681   5.712  10.454 -0.9615 -0.6350 -1.0887
 3540TIP3   OH234814   4.519   1.195  11.273  0.1225  0.1423 -1.2363
 3540TIP3    H134815   4.424   1.185  11.270  0.2075 -1.8635  0.6355
 3540TIP3    H234816   4.535   1.252  11.348  0.4414 -0.3046 -0.9633
 3541TIP3   OH234817   6.758   6.015  10.796  0.3106 -0.3233  0.1295
 3541TIP3    H134818   6.787   6.085  10.854 -0.9541  2.1269 -1.9773
 3541TIP3    H234819   6.838   5.966  10.776  1.1563  0.1659  2.0403
 3542TIP3   OH234820   2.603   1.821  11.793 -0.2491 -0.0445 -0.6583
 3542TIP3    H134821   2.533   1.859  11.848  0.5348 -0.3431  0.5927
 3542TIP3    H234822   2.564   1.741  11.757 -0.8915  0.3269 -0.8093
 3543TIP3   OH234823   5.812   7.550  12.058  0.1651  0.3051  0.5199
 3543TIP3    H134824   5.872   7.554  11.984  0.7983  0.9329  1.0561
 3543TIP3    H234825   5.749   7.620  12.043 -0.3091 -0.2040  0.0773
 3544TIP3   OH234826   0.332   2.147  10.264  0.3245  0.4894  0.0641
 3544TIP3    H134827   0.260   2.197  10.227 -1.0320 -0.1961  1.6439
 3544TIP3    H234828   0.395   2.137  10.192 -1.1313  1.1259 -1.3431
 3545TIP3   OH234829   5.060   4.371  10.451  0.2791 -0.1538  0.7097
 3545TIP3    H134830   5.106   4.443  10.407  1.4609 -1.0258  0.4592
 3545TIP3    H234831   4.969   4.381  10.426  0.5883  0.6840 -0.1258
 3546TIP3   OH234832   6.645   6.061  12.586  0.4875  0.0484 -0.1611
 3546TIP3    H134833   6.606   5.973  12.578 -2.8974  1.4975 -1.4351
 3546TIP3    H234834   6.619   6.090  12.674  1.2947 -0.0350  0.1155
 3547TIP3   OH234835   0.861   4.999  12.712  0.2050  0.3341 -0.2853
 3547TIP3    H134836   0.925   5.006  12.641  0.9028  1.1695  0.3990
 3547TIP3    H234837   0.853   4.905  12.727 -0.8507  0.0524 -2.2276
 3548TIP3   OH234838   7.080   4.287  11.495  0.2289  0.1971  0.1877
 3548TIP3    H134839   7.067   4.378  11.522  2.3540  0.4697  0.4335
 3548TIP3    H234840   7.003   4.241  11.528 -0.4637  1.7459  0.8150
 3549TIP3   OH234841   3.784   2.766  11.092  0.2288  0.5229  0.5536
 3549TIP3    H134842   3.831   2.726  11.165 -0.6079 -1.6652 -0.0204
 3549TIP3    H234843   3.822   2.727  11.014 -0.9493  0.4720 -0.0193
 3550TIP3   OH234844   2.997   2.368  10.999  0.0424  0.1507 -0.1997
 3550TIP3    H134845   3.048   2.302  11.045  1.0240  0.8972 -0.1689
 3550TIP3    H234846   3.060   2.438  10.980 -0.3229 -0.0907 -2.6267
 3551TIP3   OH234847   0.260   5.526  12.292 -0.5140 -0.0262  0.4515
 3551TIP3    H134848   0.168   5.543  12.273 -0.6612 -0.6478  0.5631
 3551TIP3    H234849   0.299   5.612  12.304 -0.9634  0.2710 -0.1392
 3552TIP3   OH234850   3.176   7.276  10.618 -0.1880  0.1495 -0.0122
 3552TIP3    H134851   3.195   7.356  10.667  0.9405  0.3422 -0.7048
 3552TIP3    H234852   3.262   7.248  10.584 -1.0233  0.7603 -2.9545
 3553TIP3   OH234853   6.626   6.245   9.879 -0.0094 -0.2218 -0.6079
 3553TIP3    H134854   6.672   6.178   9.929  0.2820 -0.0315 -0.6192
 3553TIP3    H234855   6.695   6.293   9.833 -0.1823  0.2948 -0.3404
 3554TIP3   OH234856   3.284   3.471  12.041  0.1813  0.1266  0.2610
 3554TIP3    H134857   3.290   3.392  12.094 -1.8459 -0.7564 -0.7316
 3554TIP3    H234858   3.372   3.509  12.045  0.6615 -1.0438  2.4325
 3555TIP3   OH234859   2.404   5.606  12.274 -0.1756  0.7448 -0.2938
 3555TIP3    H134860   2.446   5.683  12.312 -1.8877  2.1845 -1.1799
 3555TIP3    H234861   2.316   5.606  12.312  0.1283 -1.4480  0.5419
 3556TIP3   OH234862   3.446   6.620  11.471 -0.0572 -0.6132  1.1807
 3556TIP3    H134863   3.471   6.543  11.524 -1.1766 -0.5423  1.8251
 3556TIP3    H234864   3.353   6.633  11.489 -0.2750 -0.0829 -0.1906
 3557TIP3   OH234865   0.188   6.841  11.976 -0.0574 -0.1058  0.6027
 3557TIP3    H134866   0.134   6.810  12.049 -1.0458  0.3681  0.0960
 3557TIP3    H234867   0.139   6.914  11.940  1.9086  1.7176  1.4039
 3558TIP3   OH234868   6.505   7.533  11.905  0.0665 -0.5256 -0.2401
 3558TIP3    H134869   6.589   7.493  11.927 -0.2511 -0.3427  1.4240
 3558TIP3    H234870   6.511   7.551  11.811  2.0540 -0.1250 -0.0830
 3559TIP3   OH234871   0.212   2.720  10.627  0.2249  0.4614  0.0130
 3559TIP3    H134872   0.233   2.801  10.579  1.0649 -1.0715 -2.3905
 3559TIP3    H234873   0.151   2.673  10.570 -0.0341 -0.7591  1.2332
 3560TIP3   OH234874   0.012   7.135  11.471  0.6561  0.4045 -0.3086
 3560TIP3    H134875  -0.038   7.150  11.391  0.3567  2.3418  0.1956
 3560TIP3    H234876  -0.017   7.204  11.531  0.8303 -1.0312  1.5071
 3561TIP3   OH234877   2.734   3.156  12.436  0.2108  0.1537  0.5138
 3561TIP3    H134878   2.697   3.120  12.355 -1.9023 -1.3774  2.0468
 3561TIP3    H234879   2.659   3.194  12.482  0.7414 -1.4956  2.9852
 3562TIP3   OH234880   3.872   5.730  10.232 -0.0769  0.1966  0.2130
 3562TIP3    H134881   3.921   5.648  10.227 -0.9282 -0.3667  0.6934
 3562TIP3    H234882   3.863   5.746  10.326  0.6902  1.2229  0.1154
 3563TIP3   OH234883   7.516   0.607  10.934  0.1048 -0.1717 -0.1292
 3563TIP3    H134884   7.421   0.593  10.933  0.1983 -0.8120  0.0284
 3563TIP3    H234885   7.527   0.687  10.985 -0.2999 -0.5038  0.4889
 3564TIP3   OH234886   6.575   2.908  12.871 -0.2682 -0.6520  0.4251
 3564TIP3    H134887   6.492   2.941  12.907 -0.0766  0.3232 -0.0060
 3564TIP3    H234888   6.549   2.855  12.796 -0.4291  2.1075 -1.6313
 3565TIP3   OH234889   3.371   0.290  11.473 -0.2104  0.2231  0.0930
 3565TIP3    H134890   3.416   0.341  11.541  1.4667 -0.5611 -0.3743
 3565TIP3    H234891   3.306   0.239  11.521 -0.3881  1.1139  0.8440
 3566TIP3   OH234892   5.722   7.471  11.157  0.2621  0.2763  0.0484
 3566TIP3    H134893   5.779   7.446  11.085  0.2143  0.3544 -0.0163
 3566TIP3    H234894   5.772   7.537  11.206 -0.6740  2.1372 -1.3611
 3567TIP3   OH234895   2.861   4.926  10.814  0.0415 -0.2393 -0.0799
 3567TIP3    H134896   2.884   4.932  10.907 -1.1618  0.5110  0.1880
 3567TIP3    H234897   2.945   4.926  10.769  0.6431  2.3174  0.8723
 3568TIP3   OH234898   2.379   1.287  11.831 -0.7222 -0.4640 -0.2613
 3568TIP3    H134899   2.455   1.289  11.773 -0.2117 -0.2310  0.4096
 3568TIP3    H234900   2.410   1.326  11.913 -2.0608  1.3981 -0.5714
 3569TIP3   OH234901   4.416   2.017  11.434 -0.3726 -0.5880  0.4711
 3569TIP3    H134902   4.491   1.994  11.489 -0.7309  1.2100  1.8048
 3569TIP3    H234903   4.429   2.109  11.413 -0.8163 -0.9495 -1.6119
 3570TIP3   OH234904   0.859   0.089  11.283 -0.3035  0.4937  0.2160
 3570TIP3    H134905   0.778   0.123  11.245 -0.3266  1.3339  0.9641
 3570TIP3    H234906   0.832   0.010  11.329 -0.7852  0.9623  0.7628
 3571TIP3   OH234907   5.674   6.241  10.161  0.0538 -0.3099 -0.1057
 3571TIP3    H134908   5.748   6.254  10.220 -1.6177  0.5811  1.8839
 3571TIP3    H234909   5.659   6.326  10.120 -0.5239 -0.2140  0.2989
 3572TIP3   OH234910   4.857   6.700  12.989 -0.5633 -0.0152  0.0423
 3572TIP3    H134911   4.779   6.645  12.981 -0.6359  0.2146 -0.9840
 3572TIP3    H234912   4.884   6.716  12.899 -0.1704  1.0902  0.3398
 3573TIP3   OH234913   2.799   2.624  11.758  0.1267 -0.0860  0.1351
 3573TIP3    H134914   2.846   2.691  11.708 -3.1782  0.0787 -3.1410
 3573TIP3    H234915   2.721   2.670  11.791  0.0259 -1.3204  1.7088
 3574TIP3   OH234916   3.937   4.219  11.274  0.5258 -0.4949 -0.2206
 3574TIP3    H134917   3.966   4.201  11.184 -0.2291  0.4893 -0.6868
 3574TIP3    H234918   3.866   4.157  11.289 -1.3976  1.3102 -1.4483
 3575TIP3   OH234919   6.063   7.057  12.650 -0.5321 -0.3481 -0.9358
 3575TIP3    H134920   6.019   7.134  12.687  1.1765  0.4805 -0.5167
 3575TIP3    H234921   6.008   6.984  12.678 -1.7805  0.6332 -0.6672
 3576TIP3   OH234922   5.578   5.455  11.274  0.3025  0.8088  0.0739
 3576TIP3    H134923   5.663   5.439  11.233 -0.1329  1.0256 -0.9434
 3576TIP3    H234924   5.599   5.510  11.350  0.9783  1.7319 -0.7418
 3577TIP3   OH234925   3.573   4.309  11.390 -0.0086  0.4896 -0.5793
 3577TIP3    H134926   3.534   4.288  11.475 -1.7791  1.5728 -1.0513
 3577TIP3    H234927   3.543   4.239  11.332 -2.1657  1.7623 -1.1417
 3578TIP3   OH234928   4.971   1.594  11.113  0.0268 -0.2448  0.0198
 3578TIP3    H134929   5.040   1.563  11.172  0.7889 -1.2827 -1.3556
 3578TIP3    H234930   4.903   1.527  11.117 -0.7042  0.5349  1.0000
 3579TIP3   OH234931   4.944   1.387  12.598 -0.3397 -0.4609  0.3791
 3579TIP3    H134932   5.026   1.437  12.601  1.0671 -2.5945 -0.4848
 3579TIP3    H234933   4.890   1.427  12.667  1.3486  1.0893  0.9042
 3580TIP3   OH234934   4.298   0.665  12.132 -0.5757 -0.3203 -0.0207
 3580TIP3    H134935   4.383   0.622  12.128 -0.6207 -0.5414  1.2043
 3580TIP3    H234936   4.266   0.663  12.041  0.9152  0.1905 -0.5786
 3581TIP3   OH234937   6.803   1.685  10.950  0.7794 -0.3600 -0.4377
 3581TIP3    H134938   6.844   1.771  10.946  2.5014 -1.1825 -1.7451
 3581TIP3    H234939   6.775   1.668  10.860  0.3261 -1.1106 -0.1618
 3582TIP3   OH234940   5.591   5.557  12.479 -0.0038 -0.5866  0.9019
 3582TIP3    H134941   5.623   5.492  12.416 -0.4653  1.3784 -1.5326
 3582TIP3    H234942   5.668   5.581  12.529  1.5543  0.8792 -1.9128
 3583TIP3   OH234943   5.272   3.038  12.104 -0.1104 -0.4511  0.3108
 3583TIP3    H134944   5.271   2.962  12.046  0.2848  0.9288 -1.5834
 3583TIP3    H234945   5.211   3.100  12.065  1.1013  1.0212  0.6334
 3584TIP3   OH234946   4.933   4.898  12.203  0.0710 -0.2889  0.1816
 3584TIP3    H134947   4.902   4.834  12.267  0.1991  1.1605  1.7700
 3584TIP3    H234948   4.876   4.974  12.216  0.6741  0.3618 -0.8373
 3585TIP3   OH234949   2.565   5.390  12.206  0.5641 -0.4028  0.5401
 3585TIP3    H134950   2.660   5.390  12.217  0.4232  0.6659  1.8878
 3585TIP3    H234951   2.538   5.479  12.227 -0.8507 -0.9626  1.2192
 3586TIP3   OH234952   7.377   0.812  11.598 -0.0105  0.4855 -0.0159
 3586TIP3    H134953   7.348   0.722  11.609 -1.2571  0.9841  1.0089
 3586TIP3    H234954   7.472   0.809  11.612  0.0622 -0.7535 -0.6678
 3587TIP3   OH234955   4.132   5.250  12.472  0.0103  0.1183  0.1235
 3587TIP3    H134956   4.196   5.184  12.497 -0.6993 -0.7525 -0.3117
 3587TIP3    H234957   4.102   5.287  12.556  0.4625 -0.0567  0.3650
 3588TIP3   OH234958   5.532   1.445  11.179 -0.1619  0.6354 -0.0200
 3588TIP3    H134959   5.534   1.360  11.136  1.0197  0.0938  1.0383
 3588TIP3    H234960   5.498   1.428  11.266 -0.5680  1.3665 -0.0259
 3589TIP3   OH234961   0.519   7.285   9.970  0.0414  0.3563  0.1419
 3589TIP3    H134962   0.457   7.213   9.960 -1.2704  0.9781  2.7466
 3589TIP3    H234963   0.511   7.336   9.889 -1.7385 -0.4242 -0.2087
 3590TIP3   OH234964   4.454   4.297  12.588  0.0720  0.4402  0.0131
 3590TIP3    H134965   4.477   4.384  12.557  1.1694 -0.6702 -2.6727
 3590TIP3    H234966   4.478   4.239  12.515  1.8943 -2.4154  2.6209
 3591TIP3   OH234967   0.928   6.357  12.002 -0.4895 -0.1292  0.0102
 3591TIP3    H134968   0.852   6.410  11.979 -0.5271 -0.5255 -0.7992
 3591TIP3    H234969   0.894   6.268  12.011  0.0610 -0.5257 -1.5265
 3592TIP3   OH234970   0.505   2.492  10.698 -0.0368 -0.1698  0.1022
 3592TIP3    H134971   0.488   2.576  10.740  0.5588 -0.9660  2.0915
 3592TIP3    H234972   0.590   2.502  10.655 -0.4096  0.5165 -0.4787
 3593TIP3   OH234973   0.723   6.118  11.615  0.5388  0.3235 -0.1881
 3593TIP3    H134974   0.756   6.124  11.525  0.5788  1.6008 -0.1026
 3593TIP3    H234975   0.640   6.165  11.614  0.0657 -0.4695  0.2495
 3594TIP3   OH234976   7.598   5.216  12.095  0.1499 -0.7072 -0.2021
 3594TIP3    H134977   7.534   5.280  12.066  1.1104 -0.0427 -0.8788
 3594TIP3    H234978   7.545   5.141  12.124 -0.9732  0.2981  0.4383
 3595TIP3   OH234979   4.836   4.266  11.459 -0.5792 -0.1372  0.4059
 3595TIP3    H134980   4.800   4.178  11.455 -2.4336  0.5905  0.1408
 3595TIP3    H234981   4.884   4.276  11.376  1.2986 -1.5027  1.2423
 3596TIP3   OH234982   1.471   4.234  12.216  0.0862 -0.3007  0.2114
 3596TIP3    H134983   1.453   4.303  12.151  2.0243 -0.5941 -0.7018
 3596TIP3    H234984   1.520   4.167  12.167 -0.4417 -1.6415  1.4425
 3597TIP3   OH234985   2.260   0.977  10.411 -0.3369  0.3992 -0.5269
 3597TIP3    H134986   2.263   0.898  10.357  0.5637  0.5670 -0.7350
 3597TIP3    H234987   2.351   0.992  10.438 -0.9040 -0.3660  2.0543
 3598TIP3   OH234988   3.050   1.812  10.816  0.2011 -0.1094 -0.5161
 3598TIP3    H134989   2.990   1.750  10.858  0.2115  0.4223  0.3075
 3598TIP3    H234990   3.005   1.838  10.736 -0.9587  0.7421  0.3807
 3599TIP3   OH234991   7.223   3.558  11.861 -0.5478 -0.0499  0.2044
 3599TIP3    H134992   7.313   3.527  11.853 -0.4440 -0.1758  1.6038
 3599TIP3    H234993   7.203   3.599  11.776  0.7048 -0.3089 -0.2248
 3600TIP3   OH234994   0.799   4.719  12.716 -0.2093 -0.3464 -0.4215
 3600TIP3    H134995   0.864   4.657  12.683  0.6060 -0.5024  1.3694
 3600TIP3    H234996   0.718   4.668  12.719  0.0730 -0.8126 -0.5541
 3601TIP3   OH234997   5.452   7.016  12.732 -0.0089 -0.6794 -0.0132
 3601TIP3    H134998   5.517   6.995  12.799  0.2688  0.9933  0.3064
 3601TIP3    H234999   5.435   7.110  12.745 -2.0477 -0.9542 -0.4926
 3602TIP3   OH235000   1.020   5.940  12.633 -0.5644 -0.6347  0.5227
 3602TIP3    H135001   0.972   5.940  12.550  0.9893  0.8001 -0.4370
 3602TIP3    H235002   0.988   6.018  12.679  1.4334  0.8857 -0.5442
 3603TIP3   OH235003   3.283   6.513  10.724 -0.0257  0.5032  0.3517
 3603TIP3    H135004   3.244   6.565  10.654 -1.7295  0.2412  1.0499
 3603TIP3    H235005   3.282   6.423  10.691  1.8752  0.7178 -0.4055
 3604TIP3   OH235006   5.609   2.274  11.605  0.3303  0.3344  0.6151
 3604TIP3    H135007   5.517   2.299  11.599  0.1123 -0.3567  1.0262
 3604TIP3    H235008   5.622   2.211  11.534  0.3293 -0.0262  0.9306
 3605TIP3   OH235009   3.464   3.282  10.783 -0.1478  0.4898 -0.5945
 3605TIP3    H135010   3.475   3.294  10.688  2.7490  1.1012 -0.2673
 3605TIP3    H235011   3.443   3.189  10.793  2.3231 -0.2713 -1.7390
 3606TIP3   OH235012   5.818   6.896  12.661  0.2063 -0.3320 -0.3437
 3606TIP3    H135013   5.744   6.857  12.708  0.0099 -0.4737 -0.7621
 3606TIP3    H235014   5.784   6.978  12.626  0.5369  0.0806  0.2952
 3607TIP3   OH235015   1.845   6.370  11.618 -0.2591  0.2570  0.0453
 3607TIP3    H135016   1.872   6.392  11.528  0.1288 -0.7526 -0.0974
 3607TIP3    H235017   1.806   6.283  11.611  0.0839  0.0199  0.9062
 3608TIP3   OH235018   6.354   0.691  12.196 -0.0218  0.0488  0.0650
 3608TIP3    H135019   6.446   0.693  12.223  0.3920 -0.5230 -1.2040
 3608TIP3    H235020   6.344   0.605  12.154 -1.4443 -0.3637  1.1948
 3609TIP3   OH235021   5.910   1.898  11.203 -0.2640  0.2801 -0.0143
 3609TIP3    H135022   5.965   1.975  11.217  0.9538 -0.3555 -1.0647
 3609TIP3    H235023   5.944   1.832  11.264 -0.3562  0.1329 -0.1189
 3610TIP3   OH235024   0.979   6.615  10.546  0.4648 -0.1451  0.3883
 3610TIP3    H135025   0.968   6.686  10.482 -2.1161 -1.0316 -0.2911
 3610TIP3    H235026   1.028   6.547  10.499 -0.6360 -0.4253 -0.3972
 3611TIP3   OH235027   2.424   6.997  12.660 -0.8279 -0.0795 -0.3094
 3611TIP3    H135028   2.347   6.974  12.607  0.9831 -3.5384 -1.6976
 3611TIP3    H235029   2.448   6.917  12.705  1.8013  0.9749  0.3503
 3612TIP3   OH235030   2.964   4.035  10.216  0.1278 -0.4303  0.3984
 3612TIP3    H135031   2.888   4.001  10.263 -0.6863  0.7671 -0.0175
 3612TIP3    H235032   3.017   4.077  10.284 -0.6610  0.6126  0.3860
 3613TIP3   OH235033   6.329   5.664  11.942 -0.4925  0.1745  0.3795
 3613TIP3    H135034   6.390   5.709  11.884 -1.9323  2.6766  0.6697
 3613TIP3    H235035   6.265   5.625  11.883 -0.8789  1.0750  0.1840
 3614TIP3   OH235036   5.525   4.046  12.377 -0.3363 -0.8525 -0.4547
 3614TIP3    H135037   5.430   4.034  12.371 -0.4466 -0.0417 -0.3573
 3614TIP3    H235038   5.558   3.958  12.393 -1.1274 -1.0605  0.1225
 3615TIP3   OH235039   2.088   6.319  10.249  0.0028  0.1147  0.2793
 3615TIP3    H135040   2.032   6.306  10.326 -0.2112  0.7296  0.2312
 3615TIP3    H235041   2.146   6.391  10.274  0.3570 -0.1047  0.0947
 3616TIP3   OH235042   0.431   3.574  11.829  0.1741  0.2559  0.2926
 3616TIP3    H135043   0.467   3.515  11.764  1.1319 -0.7804  1.6910
 3616TIP3    H235044   0.410   3.518  11.904 -0.2981  1.4694  1.1136
 3617TIP3   OH235045   7.352   0.184  11.914  0.3774  0.5285 -0.2271
 3617TIP3    H135046   7.283   0.251  11.918 -1.1575 -0.9550 -0.7225
 3617TIP3    H235047   7.328   0.129  11.840  2.2415  0.0685 -0.5377
 3618TIP3   OH235048   7.589   0.888  10.670  0.3617  0.1130  0.0411
 3618TIP3    H135049   7.500   0.911  10.698  0.7229  2.1181 -0.3116
 3618TIP3    H235050   7.646   0.935  10.731  1.1707  0.1090 -0.6909
 3619TIP3   OH235051   5.741   2.185  11.119  0.5397 -0.7275 -0.2666
 3619TIP3    H135052   5.732   2.099  11.077 -0.4711 -1.3260  1.1042
 3619TIP3    H235053   5.836   2.201  11.121  0.7178 -1.6229 -0.9055
 3620TIP3   OH235054   6.271   3.351  11.883  0.1101  0.0391  0.0787
 3620TIP3    H135055   6.270   3.426  11.942  0.4120 -0.2464  0.4470
 3620TIP3    H235056   6.237   3.279  11.936  0.1130 -0.1543 -0.1821
 3621TIP3   OH235057   4.270   5.205  10.616 -0.3253  0.6361  0.0165
 3621TIP3    H135058   4.237   5.161  10.538  0.6451  0.0432 -0.0820
 3621TIP3    H235059   4.239   5.152  10.689  1.5550 -0.7737 -0.1364
 3622TIP3   OH235060   6.629   0.839  11.861  0.2461  0.3143 -0.4465
 3622TIP3    H135061   6.535   0.834  11.846 -0.1178 -1.7080  1.8193
 3622TIP3    H235062   6.638   0.895  11.938  0.4169 -2.2627  1.5914
 3623TIP3   OH235063   0.827   3.606  10.189  0.6080  0.1579 -0.2956
 3623TIP3    H135064   0.848   3.655  10.110  0.4537 -0.4837 -0.7439
 3623TIP3    H235065   0.772   3.665  10.241 -0.9014 -0.0840 -1.5335
 3624TIP3   OH235066   2.546   4.895  11.483 -0.0929  0.4019 -0.4056
 3624TIP3    H135067   2.524   4.977  11.527 -0.6028  0.3200 -0.4937
 3624TIP3    H235068   2.641   4.888  11.489 -0.2711 -0.8885  3.0154
 3625TIP3   OH235069   0.143   5.103  12.306  0.0323  0.2945  0.0671
 3625TIP3    H135070   0.215   5.101  12.370 -0.0780  0.4367  0.1946
 3625TIP3    H235071   0.110   5.192  12.309 -0.4154  0.1256  0.3041
 3626TIP3   OH235072   0.273   7.489  11.833  0.1999 -0.5640 -0.2411
 3626TIP3    H135073   0.276   7.438  11.752 -3.7386 -1.3401 -0.0565
 3626TIP3    H235074   0.183   7.520  11.839  1.0105  1.6324  2.6013
 3627TIP3   OH235075   5.825   3.804  11.998 -0.3978  0.1365 -0.4684
 3627TIP3    H135076   5.877   3.885  11.996 -1.6160  0.9443 -1.5805
 3627TIP3    H235077   5.876   3.741  11.947  0.2337  0.4227 -0.1952
 3628TIP3   OH235078   3.082   7.318  11.605  0.2263 -0.6931 -0.0186
 3628TIP3    H135079   3.054   7.227  11.604  1.4321 -1.0953 -1.6664
 3628TIP3    H235080   3.176   7.314  11.585  0.2397  0.9078 -0.4040
 3629TIP3   OH235081   1.601   2.329  10.861  0.2134 -0.1622  0.3268
 3629TIP3    H135082   1.540   2.258  10.840 -0.2426  0.3129  0.0126
 3629TIP3    H235083   1.681   2.285  10.890 -0.0898 -0.8005  0.1993
 3630TIP3   OH235084   2.620   6.695  11.768  0.2064 -0.1632  0.5416
 3630TIP3    H135085   2.680   6.624  11.792 -0.2971 -1.1591 -0.9899
 3630TIP3    H235086   2.550   6.651  11.719  0.2956  1.4651 -1.1496
 3631TIP3   OH235087   4.808   6.400  11.508 -0.3810 -0.3853  0.0165
 3631TIP3    H135088   4.835   6.486  11.539 -0.6388 -0.1045 -0.5138
 3631TIP3    H235089   4.721   6.387  11.547  0.9063 -1.7948  2.6784
 3632TIP3   OH235090   0.249   6.035  11.973 -0.1078  0.1510 -0.0914
 3632TIP3    H135091   0.281   6.124  11.962  2.4544 -0.6439  0.4000
 3632TIP3    H235092   0.254   5.996  11.886  2.3836 -0.5762  0.3104
 3633TIP3   OH235093   3.427   0.214  10.861 -0.2369 -0.4069 -0.7154
 3633TIP3    H135094   3.372   0.229  10.784 -1.5129 -0.9926  0.0646
 3633TIP3    H235095   3.375   0.243  10.935  1.1213  0.4929 -0.0636
 3634TIP3   OH235096   6.723   6.583  11.491 -0.0110 -0.4219 -0.0271
 3634TIP3    H135097   6.684   6.653  11.543 -0.0854  0.1529 -0.8410
 3634TIP3    H235098   6.665   6.508  11.504  0.4479 -0.5591  1.3999
 3635TIP3   OH235099   6.146   1.225  10.403  0.5491  0.4101 -0.3014
 3635TIP3    H135100   6.085   1.175  10.348 -1.7896  0.7117  1.8418
 3635TIP3    H235101   6.202   1.158  10.443 -0.2058 -0.1659 -0.1772
 3636TIP3   OH235102   6.477   6.037  11.440  0.2163 -0.5851 -0.4246
 3636TIP3    H135103   6.529   5.958  11.425 -1.8133 -2.5271  1.7439
 3636TIP3    H235104   6.467   6.041  11.536 -1.5228  1.0932 -0.6137
 3637TIP3   OH235105   1.829   2.674  12.933 -0.1383  0.4301 -0.2354
 3637TIP3    H135106   1.816   2.698  13.024  1.1168 -1.4556  0.5040
 3637TIP3    H235107   1.742   2.650  12.901 -1.1188  3.8725 -0.4945
 3638TIP3   OH235108   7.672   6.977  12.436  0.7683  0.2068  0.2407
 3638TIP3    H135109   7.684   7.059  12.388  0.7836  0.1105  0.0803
 3638TIP3    H235110   7.581   6.981  12.465  0.4238 -0.2266 -0.7318
 3639TIP3   OH235111   2.376   0.271  11.435  0.4411  0.2293  0.0140
 3639TIP3    H135112   2.429   0.194  11.413 -1.0868 -0.7483 -0.4511
 3639TIP3    H235113   2.420   0.344  11.391  2.5880 -0.1360  1.4375
 3640TIP3   OH235114   6.454   5.156  11.559  0.4246 -0.0578 -0.1060
 3640TIP3    H135115   6.466   5.068  11.523  0.3827 -0.6677  1.3313
 3640TIP3    H235116   6.523   5.165  11.625  0.0781  0.7783  0.1506
 3641TIP3   OH235117   4.302   3.807  10.110 -0.8113  0.4914  0.3575
 3641TIP3    H135118   4.385   3.814  10.063 -1.2946  1.3320 -0.3992
 3641TIP3    H235119   4.322   3.838  10.199  0.0013 -0.6722  0.6056
 3642TIP3   OH235120   7.538   2.395  11.983  0.5710 -0.4749  0.0504
 3642TIP3    H135121   7.498   2.454  11.919  0.7948  0.8994  1.1070
 3642TIP3    H235122   7.469   2.380  12.048  1.1381  0.3973  0.9008
 3643TIP3   OH235123   0.589   2.452  12.595 -0.5705  0.5238 -0.0767
 3643TIP3    H135124   0.673   2.499  12.597 -0.9689  1.2738 -0.7276
 3643TIP3    H235125   0.574   2.427  12.686  0.0481  0.9487  0.1498
 3644TIP3   OH235126   7.657   5.265  12.536  0.0269  0.0845 -0.2225
 3644TIP3    H135127   7.611   5.183  12.523  0.3229 -0.0706 -0.3102
 3644TIP3    H235128   7.668   5.301  12.448 -2.7027  1.6925 -0.0176
 3645TIP3   OH235129   0.392   4.476  10.747 -0.2333 -0.1266  0.3143
 3645TIP3    H135130   0.301   4.449  10.760  0.5946 -2.0173  3.5124
 3645TIP3    H235131   0.411   4.531  10.824  1.3549  0.1827 -0.2678
 3646TIP3   OH235132   2.812   0.597  12.493  0.2299  0.3256 -0.2403
 3646TIP3    H135133   2.819   0.514  12.541  1.3776  1.1635  1.1392
 3646TIP3    H235134   2.735   0.587  12.437 -1.1060 -0.7736  1.6884
 3647TIP3   OH235135   4.632   0.933  10.653 -0.0089  0.3795 -0.3908
 3647TIP3    H135136   4.641   0.868  10.583  0.3784 -0.4861  0.4549
 3647TIP3    H235137   4.538   0.935  10.671  0.0432 -0.3760 -0.0179
 3648TIP3   OH235138   6.738   0.439  10.746  0.4076 -0.6362 -0.2066
 3648TIP3    H135139   6.814   0.435  10.688  0.8177  1.7221  0.0969
 3648TIP3    H235140   6.773   0.422  10.833  0.6470  0.6872 -0.0355
 3649TIP3   OH235141   3.706   6.610  11.873  0.2768 -0.1367 -0.0719
 3649TIP3    H135142   3.658   6.528  11.883 -0.5868  0.4557  1.0472
 3649TIP3    H235143   3.638   6.678  11.876  1.1173  0.7044  1.0031
 3650TIP3   OH235144   3.643   0.103  10.735 -0.0817  0.5741 -0.0511
 3650TIP3    H135145   3.573   0.163  10.763 -0.0937  1.2954 -1.4953
 3650TIP3    H235146   3.601   0.017  10.733  0.4494  0.0392  3.9864
 3651TIP3   OH235147   5.895   3.724  11.046  0.1589 -0.1420  0.3247
 3651TIP3    H135148   5.866   3.669  10.974 -1.3941  0.6693  0.2861
 3651TIP3    H235149   5.942   3.665  11.105  1.2497 -0.8673 -1.1991
 3652TIP3   OH235150   1.162   3.201  10.850 -0.0334  0.3827  0.0979
 3652TIP3    H135151   1.113   3.198  10.768  0.0240  2.4385 -0.0515
 3652TIP3    H235152   1.095   3.217  10.917 -0.0684 -1.1918  0.4816
 3653TIP3   OH235153   4.683   4.155  12.421 -0.1642  0.7760  0.1298
 3653TIP3    H135154   4.637   4.159  12.337  2.4294 -0.7956 -1.5316
 3653TIP3    H235155   4.761   4.101  12.403  1.9114  2.5672  2.8607
 3654TIP3   OH235156   6.579   4.086  10.514  0.5848  0.3632 -0.5134
 3654TIP3    H135157   6.488   4.097  10.542  0.7632  1.6787 -0.3661
 3654TIP3    H235158   6.591   4.150  10.444  1.5923  0.7502 -0.0139
 3655TIP3   OH235159   5.568   6.265  11.884 -0.0538  0.2586 -0.1333
 3655TIP3    H135160   5.630   6.194  11.902  1.3639  1.8904  2.0884
 3655TIP3    H235161   5.544   6.297  11.971 -2.0785  1.3340 -1.0339
 3656TIP3   OH235162   4.144   6.947  10.870 -0.2872 -0.2466 -0.2983
 3656TIP3    H135163   4.161   7.013  10.802  0.3318  3.1437  2.8718
 3656TIP3    H235164   4.057   6.969  10.903  0.4097 -0.2411  1.6150
 3657TIP3   OH235165   3.389   3.418  12.772 -0.1061 -0.5626  0.2640
 3657TIP3    H135166   3.326   3.384  12.709  0.3013 -0.7071 -0.0737
 3657TIP3    H235167   3.452   3.467  12.719 -0.7526  0.8486  0.7532
 3658TIP3   OH235168   0.496   7.009  10.225  0.2066  0.3225  0.2802
 3658TIP3    H135169   0.447   7.008  10.142  0.7573  1.4727 -0.0854
 3658TIP3    H235170   0.443   6.957  10.285 -0.3552 -0.2832 -0.7125
 3659TIP3   OH235171   4.034   4.702  11.610  0.2897 -0.6704 -1.0277
 3659TIP3    H135172   4.091   4.754  11.553 -1.1565  0.1505 -1.7761
 3659TIP3    H235173   4.068   4.613  11.603  2.6523  0.0720  0.0746
 3660TIP3   OH235174   1.210   5.285  12.459 -0.4986 -0.4459 -0.2957
 3660TIP3    H135175   1.223   5.299  12.365 -0.0541  1.1530 -0.0256
 3660TIP3    H235176   1.129   5.331  12.480  0.8691  1.7221  0.5814
 3661TIP3   OH235177   5.138   7.424  12.797 -0.7659  0.1295 -0.1365
 3661TIP3    H135178   5.082   7.419  12.720 -0.1294  0.6093 -0.6446
 3661TIP3    H235179   5.078   7.421  12.871 -1.3358 -1.1656 -0.6210
 3662TIP3   OH235180   1.292   1.185  11.056  0.5045  0.2209 -0.2557
 3662TIP3    H135181   1.270   1.092  11.065 -1.2298  0.6812  0.6275
 3662TIP3    H235182   1.351   1.188  10.980  0.8861 -1.6285 -0.0796
 3663TIP3   OH235183   6.114   3.531  12.642 -0.3825  0.1951  0.2430
 3663TIP3    H135184   6.037   3.488  12.679 -0.0292 -0.0975  0.6480
 3663TIP3    H235185   6.172   3.545  12.717 -0.0562  0.4522 -0.0515
 3664TIP3   OH235186   6.438   3.435  10.516 -0.8436  0.1213  0.0355
 3664TIP3    H135187   6.370   3.471  10.461 -1.2978  0.0531  0.5448
 3664TIP3    H235188   6.425   3.477  10.601  0.1662  0.6175 -0.0370
 3665TIP3   OH235189   5.837   1.454  12.254  0.2339 -0.3191  0.1923
 3665TIP3    H135190   5.777   1.390  12.292 -2.7578  0.9453 -2.0863
 3665TIP3    H235191   5.820   1.535  12.302  2.0662 -0.4870  1.2355
 3666TIP3   OH235192   5.273   4.885  11.190  0.4636  0.4348 -0.2953
 3666TIP3    H135193   5.194   4.854  11.145 -0.3213  2.2943 -0.2814
 3666TIP3    H235194   5.344   4.835  11.149 -0.6629 -1.0150 -0.5655
 3667TIP3   OH235195   1.940   4.224  11.541  0.2493 -0.2899  0.4794
 3667TIP3    H135196   2.012   4.286  11.535 -0.2148  0.6362  2.9793
 3667TIP3    H235197   1.867   4.265  11.495  0.8074 -0.4403 -0.5566
 3668TIP3   OH235198   4.806   4.342  10.350  0.3751 -0.3199 -0.5857
 3668TIP3    H135199   4.746   4.288  10.401 -1.2591  1.6786 -0.3007
 3668TIP3    H235200   4.775   4.333  10.260 -1.7627  2.3021 -0.2097
 3669TIP3   OH235201   2.397   5.992  11.424 -0.5021 -0.4150 -0.2833
 3669TIP3    H135202   2.348   6.072  11.443 -1.7814 -1.3433  0.5014
 3669TIP3    H235203   2.389   5.940  11.504 -0.0177 -1.4910 -0.9105
 3670TIP3   OH235204   3.956   3.096  10.182  0.1453  0.6442 -0.1460
 3670TIP3    H135205   4.045   3.123  10.203  0.1219 -0.7613  2.1489
 3670TIP3    H235206   3.910   3.177  10.163  1.2846  1.6864  1.2817
 3671TIP3   OH235207   1.117   0.936  12.455  0.3967  0.4301  0.5051
 3671TIP3    H135208   1.168   0.857  12.472 -0.0231 -0.0418 -0.3273
 3671TIP3    H235209   1.027   0.912  12.476  0.1086  0.3302 -0.7569
 3672TIP3   OH235210   3.155   3.298  11.620 -0.2989  0.0244  1.1942
 3672TIP3    H135211   3.086   3.234  11.636 -1.1455  0.6015  0.0141
 3672TIP3    H235212   3.153   3.312  11.525  0.2498  1.3598  1.3510
 3673TIP3   OH235213   4.892   0.662  10.631  0.2732 -0.3245 -0.5102
 3673TIP3    H135214   4.921   0.740  10.678 -2.6299 -1.5202  3.8000
 3673TIP3    H235215   4.948   0.592  10.661  0.3852 -0.6172 -1.3579
 3674TIP3   OH235216   4.590   4.915   9.695 -0.2438  0.3199  0.0963
 3674TIP3    H135217   4.594   5.010   9.685 -0.1087  0.2298 -0.7618
 3674TIP3    H235218   4.653   4.895   9.765 -1.0906  0.9636  1.0682
 3675TIP3   OH235219   3.212   6.596  12.531 -0.1468 -0.0478 -0.7150
 3675TIP3    H135220   3.186   6.688  12.542  0.0706 -0.1055  0.4791
 3675TIP3    H235221   3.257   6.575  12.613 -0.5008 -1.3299 -0.8350
 3676TIP3   OH235222   3.785   6.326  10.989  0.0130  0.3386 -0.0515
 3676TIP3    H135223   3.852   6.395  10.993  2.9653 -2.2676 -0.4737
 3676TIP3    H235224   3.775   6.307  10.896  0.5311 -0.9006  0.1279
 3677TIP3   OH235225   3.406   0.046  11.257  0.0109 -0.2725 -0.7885
 3677TIP3    H135226   3.438   0.113  11.317  1.8267 -1.6444 -0.1088
 3677TIP3    H235227   3.376  -0.025  11.314 -0.0550 -0.8203 -1.4928
 3678TIP3   OH235228   3.970   0.228  11.943 -0.5501 -0.2377  0.0142
 3678TIP3    H135229   3.886   0.269  11.963 -0.2962  0.8455 -0.9734
 3678TIP3    H235230   3.974   0.227  11.847  0.9867  0.6622  0.0302
 3679TIP3   OH235231   0.450   1.469  12.921 -0.5256 -0.1106  0.6780
 3679TIP3    H135232   0.482   1.548  12.965  1.1251 -0.5193  0.2616
 3679TIP3    H235233   0.507   1.399  12.952 -0.5989 -0.7561 -0.5721
 3680TIP3   OH235234   1.966   6.062  11.384 -0.0783 -0.8748 -0.1891
 3680TIP3    H135235   1.960   6.005  11.461 -1.2673  1.3806  1.5293
 3680TIP3    H235236   2.048   6.109  11.396  0.4234 -1.4893 -1.0884
 3681TIP3   OH235237   2.237   1.839  12.127  0.3043  0.4098 -0.0268
 3681TIP3    H135238   2.211   1.919  12.173  1.1187  0.4900  0.3060
 3681TIP3    H235239   2.196   1.769  12.177 -0.2615  0.5964 -0.2118
 3682TIP3   OH235240   4.702   4.738  11.940 -0.1479 -0.1928 -0.0482
 3682TIP3    H135241   4.660   4.824  11.926  1.5085  1.1268  2.3714
 3682TIP3    H235242   4.691   4.722  12.034  1.1852 -1.7516 -0.1338
 3683TIP3   OH235243   0.985   7.397  10.571  0.1473  0.8835 -0.2152
 3683TIP3    H135244   1.039   7.392  10.650 -0.2681  0.1099  0.0251
 3683TIP3    H235245   1.045   7.427  10.503  0.7003  0.7598  0.2118
 3684TIP3   OH235246   0.616   6.439  11.477 -0.2658  0.9152 -0.5628
 3684TIP3    H135247   0.654   6.451  11.391  1.5654  0.1365  0.0850
 3684TIP3    H235248   0.679   6.477  11.538 -0.7284  0.0038  0.5423
 3685TIP3   OH235249   3.993   2.358  11.363 -0.3735  0.8472  0.5366
 3685TIP3    H135250   4.087   2.377  11.371 -0.0197 -0.4070 -0.3395
 3685TIP3    H235251   3.977   2.287  11.424 -0.1139 -0.8507 -1.2693
 3686TIP3   OH235252   5.747   3.938  10.560 -0.1936  0.3569  0.1927
 3686TIP3    H135253   5.707   3.964  10.477  0.7234  0.1343 -0.3364
 3686TIP3    H235254   5.763   3.844  10.550 -2.4310 -0.2365  1.6398
 3687TIP3   OH235255   4.387   3.906  11.457 -0.0344 -0.1691  0.0668
 3687TIP3    H135256   4.371   3.859  11.538 -0.5152 -0.8291 -0.4018
 3687TIP3    H235257   4.306   3.954  11.440  0.8748  1.9462  1.2262
 3688TIP3   OH235258   4.900   2.377  12.381 -0.2429  0.5371  0.5060
 3688TIP3    H135259   4.887   2.470  12.366  0.6541  0.5880 -0.0309
 3688TIP3    H235260   4.970   2.372  12.446  0.4460  0.2506 -0.2256
 3689TIP3   OH235261   0.418   1.715   9.746 -0.6161 -0.0226 -0.0628
 3689TIP3    H135262   0.355   1.771   9.700 -0.9347 -1.9663 -2.1458
 3689TIP3    H235263   0.366   1.672   9.814 -0.3278  2.2210  1.7064
 3690TIP3   OH235264   3.435   4.232  11.606  0.2674 -0.0015  0.4258
 3690TIP3    H135265   3.507   4.225  11.669  0.3589 -1.7732  0.1716
 3690TIP3    H235266   3.379   4.156  11.625 -1.1423  0.9218  0.1107
 3691TIP3   OH235267   7.535   5.147  11.717  0.7774 -0.5572 -0.3981
 3691TIP3    H135268   7.493   5.219  11.764  0.3194 -0.6782 -0.6229
 3691TIP3    H235269   7.613   5.128  11.769  0.6876 -0.1694 -0.1139
 3692TIP3   OH235270   5.186   2.041  12.971  0.3587 -0.8736 -0.3304
 3692TIP3    H135271   5.209   2.116  12.916  1.7466 -1.6930 -0.9268
 3692TIP3    H235272   5.239   2.052  13.050 -1.1151 -0.0682  0.5934
 3693TIP3   OH235273   6.915   6.210  11.434  0.5563  0.0631 -0.0932
 3693TIP3    H135274   6.970   6.132  11.428  0.3392 -0.1089  0.1724
 3693TIP3    H235275   6.839   6.182  11.484 -0.1101  0.1051 -1.0546
 3694TIP3   OH235276   7.662   7.659  10.501 -0.4838  0.2967 -0.0772
 3694TIP3    H135277   7.632   7.571  10.478 -1.1452 -0.2931  2.6588
 3694TIP3    H235278   7.635   7.713  10.428  1.0122 -1.9111 -2.4396
 3695TIP3   OH235279   6.917   0.437  11.856  0.2870  0.1586  0.2565
 3695TIP3    H135280   6.828   0.442  11.820  0.7766 -3.5519 -2.1540
 3695TIP3    H235281   6.908   0.383  11.935  0.2800  0.5174  0.4990
 3696TIP3   OH235282   5.596   4.301  11.123  1.0615 -0.2157  0.1078
 3696TIP3    H135283   5.680   4.287  11.080  2.1297  2.0659  1.2617
 3696TIP3    H235284   5.613   4.373  11.184 -1.4797 -0.4102  1.1389
 3697TIP3   OH235285   5.628   5.444  10.652 -0.3894  0.1921 -0.0942
 3697TIP3    H135286   5.641   5.356  10.688 -1.2246 -0.3216 -0.9994
 3697TIP3    H235287   5.604   5.497  10.727 -2.7607 -0.9931  0.0819
 3698TIP3   OH235288   0.081   0.367  11.747 -0.1687 -0.4907  0.0544
 3698TIP3    H135289   0.054   0.381  11.657  0.4313 -3.7775 -0.7741
 3698TIP3    H235290   0.174   0.389  11.748 -0.3511  0.3287  0.1329
 3699TIP3   OH235291   0.570   2.008  11.198 -0.2200  0.1665  0.4797
 3699TIP3    H135292   0.639   1.947  11.226  0.2885 -0.3248 -1.6781
 3699TIP3    H235293   0.552   2.060  11.276  0.2592 -1.8579  2.0496
 3700TIP3   OH235294   0.915   3.027  11.934  0.0243  0.4169 -0.1957
 3700TIP3    H135295   0.854   3.010  11.863 -0.6721  0.2570  0.4231
 3700TIP3    H235296   0.873   3.096  11.986 -0.8738 -1.3990  1.6314
 3701TIP3   OH235297   0.643   4.592  11.911  0.2757 -0.4739  0.3088
 3701TIP3    H135298   0.630   4.618  12.003 -0.1083 -0.4309  0.2463
 3701TIP3    H235299   0.565   4.540  11.890  0.0165  0.1018 -0.2015
 3702TIP3   OH235300   1.129   0.723  11.616  0.3816 -0.3553 -0.6386
 3702TIP3    H135301   1.050   0.769  11.587 -0.9441 -1.8907  0.4071
 3702TIP3    H235302   1.143   0.656  11.549 -0.2717 -1.2334  0.0819
 3703TIP3   OH235303   2.718   2.743  12.829 -0.3264 -0.4762  0.0534
 3703TIP3    H135304   2.738   2.759  12.737 -0.0119  0.3178  0.2564
 3703TIP3    H235305   2.795   2.696  12.862  0.4797  1.0480  0.4066
 3704TIP3   OH235306   5.066   3.081  12.711  0.3177  0.4254 -0.7307
 3704TIP3    H135307   4.999   3.119  12.768  0.9040 -1.8463  1.6747
 3704TIP3    H235308   5.016   3.039  12.641 -0.5774  1.0554 -0.5021
 3705TIP3   OH235309   1.395   3.081  10.684 -0.0268  0.0100  0.1952
 3705TIP3    H135310   1.326   3.128  10.732 -0.7440  0.1943 -0.9663
 3705TIP3    H235311   1.396   3.123  10.598  0.5776 -0.9233 -0.2591
 3706TIP3   OH235312   3.764   0.610  12.321 -0.3092 -0.0074  0.0243
 3706TIP3    H135313   3.706   0.570  12.386 -0.5741 -0.0347 -0.2247
 3706TIP3    H235314   3.837   0.644  12.372 -1.2677  1.3804  0.5556
 3707TIP3   OH235315   7.636   6.845  11.626 -0.0830 -0.1530  0.8080
 3707TIP3    H135316   7.729   6.857  11.611  0.1054 -0.3237  1.7670
 3707TIP3    H235317   7.593   6.891  11.554  0.7368  0.0918  0.4717
 3708TIP3   OH235318   4.987   5.187  10.268 -0.2173  0.3594 -0.9950
 3708TIP3    H135319   4.979   5.265  10.324 -0.0906 -0.1827 -0.2031
 3708TIP3    H235320   5.081   5.180  10.251 -0.1848  0.1752 -0.7543
 3709TIP3   OH235321   6.320   0.728  11.382  0.6168 -0.2314 -0.5160
 3709TIP3    H135322   6.237   0.699  11.346  0.0553 -0.7523  1.1145
 3709TIP3    H235323   6.308   0.821  11.400 -0.6678 -0.8428  2.3050
 3710TIP3   OH235324   0.859   1.262  11.477 -0.3447 -0.3767 -0.4723
 3710TIP3    H135325   0.784   1.314  11.506 -0.8263 -1.2018 -0.2033
 3710TIP3    H235326   0.893   1.221  11.557  1.3312  1.1427 -0.3411
 3711TIP3   OH235327   4.126   6.701  13.042  0.0197  0.5628  0.4730
 3711TIP3    H135328   4.190   6.656  12.986 -1.1417  1.0773 -1.3567
 3711TIP3    H235329   4.044   6.653  13.028 -1.1378  2.8174 -1.1281
 3712TIP3   OH235330   0.195   3.490  12.078 -0.8362  0.1241  0.1761
 3712TIP3    H135331   0.235   3.547  12.144 -1.3800 -2.4342  2.9864
 3712TIP3    H235332   0.101   3.509  12.085 -0.8285  0.3986 -0.4627
 3713TIP3   OH235333   6.066   3.065  10.925 -0.5710  0.0628 -0.2291
 3713TIP3    H135334   6.073   3.144  10.872  2.5013  0.6816  0.9336
 3713TIP3    H235335   6.036   3.095  11.010  2.6099  0.4340  0.8750
 3714TIP3   OH235336   6.810   2.942  11.945 -0.0304  0.0054  0.0676
 3714TIP3    H135337   6.730   2.890  11.940  0.7846 -1.2098 -1.4892
 3714TIP3    H235338   6.786   3.028  11.911 -0.6131 -0.4317 -0.6418
 3715TIP3   OH235339   3.031   2.222  10.347  0.4272  0.3276  0.1600
 3715TIP3    H135340   2.957   2.166  10.369 -1.9326  3.0743 -0.1617
 3715TIP3    H235341   3.031   2.226  10.251  0.7768  0.6109  0.1701
 3716TIP3   OH235342   2.188   3.993  10.579 -0.5132 -1.1346 -0.6349
 3716TIP3    H135343   2.190   3.965  10.670 -1.1477 -0.4799 -0.4127
 3716TIP3    H235344   2.202   3.913  10.529 -1.1925 -1.6736  0.0104
 3717TIP3   OH235345   1.360   4.583  12.478  0.5965 -0.4023  0.1155
 3717TIP3    H135346   1.357   4.491  12.504  2.4217  0.3360  3.4620
 3717TIP3    H235347   1.452   4.607  12.487 -0.0199  2.0382  0.4206
 3718TIP3   OH235348   3.565   3.531  12.114 -0.6332  0.3036 -0.6093
 3718TIP3    H135349   3.609   3.446  12.111 -0.2217  0.3596  1.8627
 3718TIP3    H235350   3.635   3.595  12.101 -0.2702  0.3316  1.2638
 3719TIP3   OH235351   4.146   1.617  10.347  0.2255  0.6350 -0.3167
 3719TIP3    H135352   4.067   1.671  10.349  0.4050  0.9091 -0.5311
 3719TIP3    H235353   4.123   1.543  10.290  0.2894  0.9808 -0.8002
 3720TIP3   OH235354   4.398   3.502  11.963 -0.5092  0.1800 -0.0194
 3720TIP3    H135355   4.331   3.564  11.995 -0.7086 -0.5133  0.9707
 3720TIP3    H235356   4.481   3.546  11.980 -0.5293 -0.6962  2.8397
 3721TIP3   OH235357   1.874   2.972  10.270  1.0919  0.2209  0.8551
 3721TIP3    H135358   1.936   3.029  10.225  2.1218 -0.4778  1.3626
 3721TIP3    H235359   1.788   3.006  10.246  1.5885 -0.1326 -1.6494
 3722TIP3   OH235360   5.284   6.754  11.122  0.7254 -0.2346 -0.0705
 3722TIP3    H135361   5.191   6.732  11.123  0.0542  2.1295  2.4579
 3722TIP3    H235362   5.327   6.675  11.153 -0.3469 -1.4857 -1.6155
 3723TIP3   OH235363   2.868   3.130  10.998 -0.3250  0.6652 -0.6096
 3723TIP3    H135364   2.898   3.137  11.089  0.8953 -2.6475 -0.6428
 3723TIP3    H235365   2.946   3.146  10.946 -0.6154  0.7052 -1.0331
 3724TIP3   OH235366   3.985   0.544  12.046 -0.3525 -0.1406  0.0089
 3724TIP3    H135367   4.033   0.536  12.128  0.1918 -0.6344 -0.3518
 3724TIP3    H235368   3.952   0.634  12.046  0.7874  0.2880  0.1515
 3725TIP3   OH235369   0.749   5.401  10.548 -0.1351  0.2808  0.3170
 3725TIP3    H135370   0.807   5.325  10.557 -0.5878 -0.0237  0.7618
 3725TIP3    H235371   0.752   5.423  10.455  1.3420  0.7942  0.4617
 3726TIP3   OH235372   6.370   4.461  10.573  0.2694  0.2380 -0.4179
 3726TIP3    H135373   6.332   4.398  10.512 -0.4421  0.0832  0.1774
 3726TIP3    H235374   6.347   4.547  10.537 -2.3996  0.1870  0.9392
 3727TIP3   OH235375   6.572   5.301  10.294 -0.8837  0.2201  0.6133
 3727TIP3    H135376   6.648   5.254  10.258 -0.6195  0.9590  0.1887
 3727TIP3    H235377   6.513   5.312  10.220 -0.3128  1.7980  0.3520
 3728TIP3   OH235378   0.310   7.593  12.287  0.4907  0.1410 -0.3749
 3728TIP3    H135379   0.238   7.640  12.246  0.4522 -0.7314 -1.3494
 3728TIP3    H235380   0.267   7.521  12.334  0.6146  0.5740  0.4280
 3729TIP3   OH235381   3.233   6.923  12.562  0.3553  0.1190 -0.6664
 3729TIP3    H135382   3.265   6.881  12.483 -0.1230 -0.7937 -0.3951
 3729TIP3    H235383   3.196   7.006  12.532  0.6182  0.0033 -1.3269
 3730TIP3   OH235384   4.809   3.345  11.330  0.1753  0.0067  0.4420
 3730TIP3    H135385   4.732   3.329  11.276  0.5735  1.1017 -0.4722
 3730TIP3    H235386   4.859   3.264  11.326 -1.0704 -0.8453  1.3295
 3731TIP3   OH235387   4.591   2.708  11.570  0.3825 -0.1520 -0.0975
 3731TIP3    H135388   4.607   2.802  11.568  1.6109 -0.1897  2.8193
 3731TIP3    H235389   4.630   2.675  11.489  1.3132  1.6656 -0.4400
 3732TIP3   OH235390   5.423   1.442  11.492  0.2500  0.1644 -0.2722
 3732TIP3    H135391   5.437   1.531  11.524 -0.2797  0.1178  0.1124
 3732TIP3    H235392   5.490   1.390  11.536 -1.1634 -0.0925  1.6808
 3733TIP3   OH235393   5.342   1.089  12.161  0.1966 -0.3853  0.0092
 3733TIP3    H135394   5.256   1.110  12.199  0.3973 -0.5226  0.5524
 3733TIP3    H235395   5.367   1.008  12.205  0.8107 -0.0987  0.1903
 3734TIP3   OH235396   4.766   5.365  10.616  0.6408 -0.1606  1.0917
 3734TIP3    H135397   4.770   5.431  10.546 -1.7252 -0.2727  0.7946
 3734TIP3    H235398   4.720   5.408  10.687 -3.4322 -2.1415 -0.0529
 3735TIP3   OH235399   1.521   1.090  10.851  0.1824  0.1502  0.0240
 3735TIP3    H135400   1.536   1.039  10.771 -1.2567 -2.9733  1.5699
 3735TIP3    H235401   1.605   1.132  10.868  1.7022 -2.2042 -1.1175
 3736TIP3   OH235402   6.719   2.536  12.176 -0.1253 -0.1443  0.6554
 3736TIP3    H135403   6.785   2.606  12.167 -1.7741  1.4108  0.0278
 3736TIP3    H235404   6.734   2.481  12.099  0.8854 -0.2197  0.8863
 3737TIP3   OH235405   7.199   7.293  12.630 -0.2768 -0.0632 -0.8686
 3737TIP3    H135406   7.234   7.207  12.608  1.1327  0.2663 -0.0733
 3737TIP3    H235407   7.113   7.296  12.588  0.1425 -1.3921 -1.8888
 3738TIP3   OH235408   7.373   2.802  11.774 -0.1566  0.3786 -0.0568
 3738TIP3    H135409   7.367   2.877  11.834  0.3029  0.4231 -0.0621
 3738TIP3    H235410   7.287   2.761  11.778 -1.2122  2.2844 -1.8681
 3739TIP3   OH235411   6.737   0.124   9.773  0.1711  0.4245  0.2738
 3739TIP3    H135412   6.795   0.128   9.697  0.6066  0.2675  0.5894
 3739TIP3    H235413   6.691   0.208   9.774  1.4378  1.1347  0.8233
 3740TIP3   OH235414   1.910   1.780  12.393  0.3600 -0.8148 -0.5240
 3740TIP3    H135415   1.927   1.842  12.463 -0.3145 -0.6244 -0.5166
 3740TIP3    H235416   1.851   1.715  12.432 -0.2202 -0.5715 -0.9725
 3741TIP3   OH235417   7.634   5.932  10.847  0.2501  0.5429  0.3237
 3741TIP3    H135418   7.607   5.982  10.925  1.0607 -1.1451  1.7409
 3741TIP3    H235419   7.552   5.918  10.799 -1.0252 -1.6187  2.8438
 3742TIP3   OH235420   4.038   3.787  10.029  0.0272  0.1521  0.1925
 3742TIP3    H135421   3.989   3.844  10.088 -0.6151 -1.0754  0.9022
 3742TIP3    H235422   4.130   3.806  10.047 -0.1767  0.4525  0.9429
 3743TIP3   OH235423   5.771   3.181  12.077  0.1035  0.3917 -0.6885
 3743TIP3    H135424   5.842   3.245  12.084  0.2866  0.1476 -0.2993
 3743TIP3    H235425   5.692   3.233  12.091  0.1986  0.6586 -1.0864
 3744TIP3   OH235426   4.474   5.951  11.811  0.0752 -0.2142  0.4755
 3744TIP3    H135427   4.456   5.991  11.896 -0.5609 -0.0392  0.2715
 3744TIP3    H235428   4.416   5.875  11.807 -0.3067  0.0874 -0.0104
 3745TIP3   OH235429   3.874   3.041  12.423  0.0148 -0.2005 -0.3725
 3745TIP3    H135430   3.912   3.068  12.339  1.1440 -1.6129 -0.3492
 3745TIP3    H235431   3.817   3.113  12.448  0.2318  0.5722 -1.9978
 3746TIP3   OH235432   5.884   5.908  11.810 -1.3818  0.0538  0.0929
 3746TIP3    H135433   5.864   5.864  11.728 -1.2829  0.0198  0.0872
 3746TIP3    H235434   5.866   5.843  11.878 -2.6181  0.4518  0.1852
 3747TIP3   OH235435   6.872   7.512  12.353 -0.4395 -0.0880  0.4117
 3747TIP3    H135436   6.911   7.556  12.428  1.1309  1.0564 -1.0001
 3747TIP3    H235437   6.833   7.582  12.301  1.2106 -0.3969 -1.3605
 3748TIP3   OH235438   1.134   6.161  11.734 -0.3396 -0.1084  0.0669
 3748TIP3    H135439   1.182   6.111  11.669 -1.3831 -1.1760  0.1048
 3748TIP3    H235440   1.124   6.248  11.695 -2.6420 -1.2469 -2.0730
 3749TIP3   OH235441   4.180   1.605  11.056 -0.3014  0.0976 -0.7000
 3749TIP3    H135442   4.247   1.649  11.004 -0.9626  0.4009 -1.3086
 3749TIP3    H235443   4.131   1.553  10.992 -1.5661  1.0218 -0.5144
 3750TIP3   OH235444   5.250   2.837  10.784  0.3792  0.2711  0.0333
 3750TIP3    H135445   5.265   2.900  10.855  1.0837 -0.5596  0.6299
 3750TIP3    H235446   5.202   2.888  10.718 -0.6881  0.9428  1.2707
 3751TIP3   OH235447   2.383   5.826  11.631  0.3602  0.6095  0.2997
 3751TIP3    H135448   2.425   5.748  11.596 -0.1495 -0.0698  1.1615
 3751TIP3    H235449   2.294   5.824  11.595 -0.3205 -0.3434  1.9172
 3752TIP3   OH235450   5.249   4.181  10.436 -0.0787 -0.2088  0.2638
 3752TIP3    H135451   5.254   4.161  10.343 -4.0055 -1.0422  0.0504
 3752TIP3    H235452   5.192   4.258  10.440  1.0060  0.5586  1.9765
 3753TIP3   OH235453   5.860   4.724  11.647  0.2508  0.0143  0.3642
 3753TIP3    H135454   5.858   4.723  11.743  2.4757  2.1600  0.5388
 3753TIP3    H235455   5.926   4.658  11.624  0.7116  0.4545  0.4066
 3754TIP3   OH235456   6.377   5.171  12.864  0.5350 -0.6032 -0.0933
 3754TIP3    H135457   6.285   5.182  12.839  0.8627 -1.2565 -1.7459
 3754TIP3    H235458   6.422   5.245  12.824  1.1366 -1.8899 -1.9296
 3755TIP3   OH235459   6.516   6.054  12.830  0.2784  0.3530  0.6374
 3755TIP3    H135460   6.433   6.051  12.782  0.3579 -0.2772  0.5206
 3755TIP3    H235461   6.509   6.131  12.886  1.0516  2.4593 -1.9407
 3756TIP3   OH235462   2.947   3.103  11.616  0.3914  0.1407 -0.5300
 3756TIP3    H135463   2.921   3.140  11.532 -0.1143  0.7106 -0.1351
 3756TIP3    H235464   2.865   3.080  11.660  0.4641  2.1782  0.8253
 3757TIP3   OH235465   0.371   4.127  11.313 -0.9365  0.0708 -0.2161
 3757TIP3    H135466   0.380   4.190  11.384  0.8586  1.0003 -1.2016
 3757TIP3    H235467   0.277   4.126  11.294 -1.4454 -0.0679  1.9926
 3758TIP3   OH235468   6.249   1.127  11.227  0.4701  0.0122  0.4969
 3758TIP3    H135469   6.283   1.206  11.269 -0.8426  1.0612 -0.3292
 3758TIP3    H235470   6.237   1.151  11.135  0.5411 -1.3225  0.1186
 3759TIP3   OH235471   0.255   1.973  10.972 -0.3851 -0.8160 -0.6791
 3759TIP3    H135472   0.306   2.034  11.025  0.9012 -2.3029 -0.1528
 3759TIP3    H235473   0.207   1.919  11.035 -0.7957 -0.9564 -1.1050
 3760TIP3   OH235474   2.500   4.495  11.062 -0.0928  0.1354 -0.2089
 3760TIP3    H135475   2.585   4.463  11.034 -1.2145 -1.8843 -1.5859
 3760TIP3    H235476   2.450   4.502  10.980 -1.7438 -0.3277  0.7267
 3761TIP3   OH235477   7.392   7.133  11.923 -0.0521 -0.6001 -0.5834
 3761TIP3    H135478   7.344   7.212  11.949  1.9682  0.3202  0.5343
 3761TIP3    H235479   7.334   7.061  11.948 -1.0008  0.4689  0.4330
 3762TIP3   OH235480   4.606   1.297  10.710  0.3358 -0.1873  0.5320
 3762TIP3    H135481   4.677   1.262  10.763  1.2025 -0.4213 -0.7356
 3762TIP3    H235482   4.600   1.389  10.735  1.0265 -0.1888  0.7191
 3763TIP3   OH235483   5.818   2.608  10.376 -0.1402 -0.3037 -0.6074
 3763TIP3    H135484   5.783   2.559  10.302  2.2180 -1.4442 -1.0437
 3763TIP3    H235485   5.829   2.543  10.445 -2.0146  0.6854  0.7288
 3764TIP3   OH235486   0.845   6.587  10.049 -0.2987  0.2381 -0.5230
 3764TIP3    H135487   0.872   6.502  10.016  0.2579 -0.3155  1.2184
 3764TIP3    H235488   0.927   6.633  10.068 -0.5898  0.7218 -0.3951
 3765TIP3   OH235489   1.091   6.921  12.462  0.6824  0.0257 -0.4087
 3765TIP3    H135490   1.092   6.891  12.371  0.6476 -0.5635 -0.2205
 3765TIP3    H235491   0.999   6.933  12.483  0.6507 -0.3975 -0.2809
 3766TIP3   OH235492   4.067   6.743  11.395 -0.2557 -0.1665  0.2578
 3766TIP3    H135493   3.987   6.734  11.343 -1.7133 -1.8441  2.6116
 3766TIP3    H235494   4.047   6.810  11.460  1.2407  1.2777 -0.6793
 3767TIP3   OH235495   7.645   0.137  10.281  0.1652  0.1321  0.2007
 3767TIP3    H135496   7.647   0.217  10.229 -1.3331 -0.7858 -1.3571
 3767TIP3    H235497   7.677   0.069  10.222  0.4329 -0.6170  1.1717
 3768TIP3   OH235498   2.570   6.475  12.000  0.2473  0.0162 -0.1352
 3768TIP3    H135499   2.609   6.562  12.002 -1.1136  0.6656 -0.8026
 3768TIP3    H235500   2.477   6.490  12.013  0.2474 -1.5686  2.4124
 3769TIP3   OH235501   3.734   1.086  11.730  0.5501  0.2409 -0.5128
 3769TIP3    H135502   3.829   1.090  11.726  0.5431 -0.3071 -1.8948
 3769TIP3    H235503   3.713   0.993  11.734  0.0587  0.2608 -1.9429
 3770TIP3   OH235504   3.202   5.540  11.351 -0.5115 -0.3809 -0.3935
 3770TIP3    H135505   3.225   5.489  11.429 -0.9826  0.1533  0.1016
 3770TIP3    H235506   3.247   5.623  11.362  0.0432 -0.5806 -1.0765
 3771TIP3   OH235507   0.459   0.233  11.848 -0.4993 -0.5852 -0.1368
 3771TIP3    H135508   0.407   0.186  11.913 -0.9427  1.1677  0.8332
 3771TIP3    H235509   0.508   0.297  11.898  0.2878 -0.1794 -1.3877
 3772TIP3   OH235510   2.266   6.929  10.900  0.6053  0.0455  0.1654
 3772TIP3    H135511   2.325   6.979  10.957  2.7064 -1.4909 -0.5160
 3772TIP3    H235512   2.178   6.949  10.932  1.5632  1.2269  2.2527
 3773TIP3   OH235513   4.106   3.491  12.340  0.7182 -0.0990  0.3498
 3773TIP3    H135514   4.071   3.548  12.409 -1.1844  0.4042 -0.9315
 3773TIP3    H235515   4.049   3.413  12.342  0.3944  0.0784 -0.8478
 3774TIP3   OH235516   3.547   7.203  12.664 -0.3072  0.0467  0.1620
 3774TIP3    H135517   3.635   7.207  12.701  0.2662  0.6837 -1.1958
 3774TIP3    H235518   3.517   7.114  12.683  0.8461 -0.3527  0.1835
 3775TIP3   OH235519   0.602   2.096  11.947 -0.4898 -0.2184  0.3481
 3775TIP3    H135520   0.564   2.181  11.968 -1.1453 -0.3213 -0.3587
 3775TIP3    H235521   0.559   2.035  12.007 -1.0433 -0.2491 -0.0695
 3776TIP3   OH235522   1.222   7.312   9.967  0.0710 -0.1577 -0.2347
 3776TIP3    H135523   1.297   7.263   9.932 -0.2626  0.5744 -2.1155
 3776TIP3    H235524   1.254   7.352  10.047  1.5718 -0.1797 -0.7953
 3777TIP3   OH235525   2.030   0.104  12.665 -0.6788  0.2534  0.1570
 3777TIP3    H135526   1.975   0.085  12.589 -1.6352 -0.5076  1.0065
 3777TIP3    H235527   2.039   0.199  12.665 -0.1359  0.2347 -1.2496
 3778TIP3   OH235528   6.159   0.682  11.809 -0.2156 -0.6566  0.0126
 3778TIP3    H135529   6.082   0.654  11.760 -0.2274  0.1959 -0.4633
 3778TIP3    H235530   6.170   0.615  11.877 -1.5309 -0.6418  0.2567
 3779TIP3   OH235531   0.737   7.059  11.538 -0.0188 -0.1506 -0.5456
 3779TIP3    H135532   0.725   7.071  11.444 -1.3253  0.7397 -0.2852
 3779TIP3    H235533   0.724   6.965  11.552 -0.7248 -0.1417 -1.1319
 3780TIP3   OH235534   0.467   0.779  12.257  0.1055  0.3607 -0.1525
 3780TIP3    H135535   0.374   0.772  12.280 -0.5198  1.3933 -2.0763
 3780TIP3    H235536   0.499   0.855  12.305 -0.6315  1.2581 -1.0285
 3781TIP3   OH235537   5.131   5.463  11.908  0.5907 -0.5071 -0.4841
 3781TIP3    H135538   5.197   5.499  11.967  0.1315 -1.4835  0.6508
 3781TIP3    H235539   5.177   5.456  11.824  1.2706  0.8447 -0.2658
 3782TIP3   OH235540   1.324   6.795  12.555  0.1354 -0.4256  0.2164
 3782TIP3    H135541   1.240   6.835  12.533  0.6348  1.3472  1.3106
 3782TIP3    H235542   1.371   6.863  12.604  2.5487 -1.0314 -1.0824
 3783TIP3   OH235543   5.356   0.482  11.170  0.3583 -0.2795  0.1000
 3783TIP3    H135544   5.314   0.412  11.120 -2.2922 -0.1341  1.9046
 3783TIP3    H235545   5.442   0.448  11.193  0.9678 -1.0548 -2.8710
 3784TIP3   OH235546   6.753   5.335  12.815 -0.3472 -0.2971  0.0800
 3784TIP3    H135547   6.798   5.417  12.793  1.2067 -1.0846  0.2517
 3784TIP3    H235548   6.778   5.274  12.745 -2.0145 -0.4759 -0.4049
 3785TIP3   OH235549   0.764   1.633  11.549 -0.4262 -0.0198  0.1666
 3785TIP3    H135550   0.719   1.604  11.628 -0.0922  1.1257  0.8045
 3785TIP3    H235551   0.855   1.645  11.576  0.5438 -3.0827 -1.2850
 3786TIP3   OH235552   1.922   7.144  11.862  0.2198  0.6493  0.5132
 3786TIP3    H135553   1.904   7.156  11.769  0.1276  0.3435  0.4894
 3786TIP3    H235554   2.017   7.136  11.868  0.1085 -1.4002  0.1849
 3787TIP3   OH235555   0.869   5.139  11.495  0.3808  0.0579  0.2471
 3787TIP3    H135556   0.841   5.074  11.432  1.3864 -0.6052  0.4653
 3787TIP3    H235557   0.798   5.143  11.559  0.8411 -1.7813  0.9321
 3788TIP3   OH235558   0.002   2.176  12.523  0.1946 -0.0978  0.1777
 3788TIP3    H135559  -0.044   2.092  12.531 -1.4245  0.8650  1.9036
 3788TIP3    H235560   0.025   2.183  12.431 -0.4900 -2.0002 -0.1783
 3789TIP3   OH235561   2.117   7.463  12.357  0.0109  0.8015 -0.3393
 3789TIP3    H135562   2.040   7.407  12.361 -0.4329  1.4481  0.8959
 3789TIP3    H235563   2.118   7.508  12.442  1.1399  1.6070 -0.7509
 3790TIP3   OH235564   4.242   1.677  12.405 -0.1365  0.5605  0.0132
 3790TIP3    H135565   4.169   1.718  12.358 -0.5271  1.3199  1.2442
 3790TIP3    H235566   4.279   1.616  12.342 -3.3346 -1.7173  0.0539
 3791TIP3   OH235567   3.996   4.233  11.006  0.6131  0.2059 -0.1832
 3791TIP3    H135568   3.978   4.218  10.913  0.2926 -1.8021  0.1646
 3791TIP3    H235569   4.084   4.269  11.008  0.7339 -0.0006 -1.2509
 3792TIP3   OH235570   3.652   0.539  11.396  0.4404  0.4329  0.1446
 3792TIP3    H135571   3.582   0.552  11.333  0.4768  1.1740  0.2393
 3792TIP3    H235572   3.648   0.617  11.452  0.5597 -0.0963  0.9017
 3793TIP3   OH235573   7.548   5.529  11.629  0.4148  0.0344 -0.1519
 3793TIP3    H135574   7.473   5.585  11.609  0.5578  0.1998 -0.2260
 3793TIP3    H235575   7.572   5.491  11.544  1.3474  1.1393 -0.4054
 3794TIP3   OH235576   2.017   3.992  10.004 -0.4952  0.3595  0.5485
 3794TIP3    H135577   1.963   3.982   9.926  3.5066  0.9239 -2.6119
 3794TIP3    H235578   2.058   3.907  10.017 -0.5127  0.4888  1.5695
 3795TIP3   OH235579   0.344   6.347  11.532  0.2221  0.0826 -0.0276
 3795TIP3    H135580   0.430   6.390  11.531  0.0262  0.5189  1.1380
 3795TIP3    H235581   0.345   6.291  11.454  0.8936  1.3742 -0.9750
 3796TIP3   OH235582   3.783   0.968  12.301 -0.4097  0.3010 -0.4400
 3796TIP3    H135583   3.696   0.976  12.340  0.2035  1.1904  0.7954
 3796TIP3    H235584   3.813   0.881  12.328 -0.2541  0.6518  0.5387
 3797TIP3   OH235585   3.980   4.588  12.215 -0.2057 -0.0426  0.4241
 3797TIP3    H135586   3.972   4.513  12.156  1.4129  1.3768 -1.7948
 3797TIP3    H235587   4.000   4.662  12.157  1.2895  1.5124  2.7362
 3798TIP3   OH235588   5.295   7.161  13.028  0.3604 -0.8838  0.7816
 3798TIP3    H135589   5.376   7.170  12.977 -0.2678  2.2853  0.1552
 3798TIP3    H235590   5.225   7.160  12.963 -0.3065  0.4331  1.4428
 3799TIP3   OH235591   1.944   4.417  10.706  0.1687  0.3164  0.0038
 3799TIP3    H135592   1.880   4.455  10.765  2.0722 -0.4344  2.7284
 3799TIP3    H235593   1.954   4.326  10.736  1.7809  0.1296 -0.9669
 3800TIP3   OH235594   1.731   3.735  10.335 -0.5430 -0.0910  0.2120
 3800TIP3    H135595   1.682   3.665  10.293  0.4202  0.1597 -1.3944
 3800TIP3    H235596   1.796   3.690  10.389 -0.8322 -0.4161  0.2909
 3801TIP3   OH235597   2.853   2.749  12.580 -0.0345  0.3558 -0.4141
 3801TIP3    H135598   2.861   2.843  12.567  0.5547  0.1108 -1.9991
 3801TIP3    H235599   2.943   2.716  12.577 -0.3409 -0.4460 -1.6783
 3802TIP3   OH235600   5.916   6.989  13.004  0.1632 -0.2810 -0.1936
 3802TIP3    H135601   5.946   7.024  13.088  0.2680 -1.6592  0.3517
 3802TIP3    H235602   5.987   6.933  12.974 -0.5399 -1.0538 -0.4380
 3803TIP3   OH235603   3.622   3.723  11.309  0.1149  0.0027  0.2655
 3803TIP3    H135604   3.567   3.741  11.232  0.7344 -0.7943 -0.3884
 3803TIP3    H235605   3.561   3.688  11.374 -0.2275 -0.5509 -0.3351
 3804TIP3   OH235606   6.330   1.888  11.580  0.4883 -0.2584  0.0989
 3804TIP3    H135607   6.342   1.911  11.488 -0.9740 -0.4703 -0.1579
 3804TIP3    H235608   6.241   1.916  11.601  0.9177  0.0969  1.5554
 3805TIP3   OH235609   0.399   1.057  10.975  0.7016 -0.2264  0.2599
 3805TIP3    H135610   0.387   1.085  10.884  2.2007  1.0881  0.4227
 3805TIP3    H235611   0.388   1.136  11.027  1.2586 -0.6739  1.0904
 3806TIP3   OH235612   0.104   1.187  12.635  0.3922  0.0481 -0.3626
 3806TIP3    H135613   0.122   1.271  12.593 -0.9772  0.4990 -0.0872
 3806TIP3    H235614   0.095   1.208  12.728  2.6889 -0.8359  0.1173
 3807TIP3   OH235615   0.380   3.311  12.526 -0.4122  0.0370 -0.1192
 3807TIP3    H135616   0.458   3.282  12.479  0.4545  2.6093 -0.4004
 3807TIP3    H235617   0.341   3.230  12.559  1.1942 -1.5082 -1.7566
 3808TIP3   OH235618   7.344   1.610  11.244  0.8697  0.2362 -0.1307
 3808TIP3    H135619   7.358   1.521  11.276  1.2658 -0.1570 -1.3411
 3808TIP3    H235620   7.308   1.657  11.319 -0.2775 -1.1843  0.2656
 3809TIP3   OH235621   0.668   1.418  10.190  0.1174  0.2849  0.0850
 3809TIP3    H135622   0.744   1.395  10.137  0.4254 -0.2633  0.7459
 3809TIP3    H235623   0.597   1.431  10.127  0.8375  1.1446 -0.5651
 3810TIP3   OH235624   3.398   1.583  12.361  0.4133 -0.3009 -0.7170
 3810TIP3    H135625   3.454   1.575  12.283 -0.0314  2.9676 -1.5443
 3810TIP3    H235626   3.456   1.567  12.434  2.0852  1.2639 -1.6213
 3811TIP3   OH235627   2.195   5.652  10.656 -0.2585 -0.9867  0.3544
 3811TIP3    H135628   2.281   5.638  10.617  0.1931  1.6302  0.2029
 3811TIP3    H235629   2.213   5.699  10.738 -1.5493  0.0238  0.0864
 3812TIP3   OH235630   0.815   5.434  10.280  0.0345  0.1322 -0.1043
 3812TIP3    H135631   0.751   5.371  10.248  0.6446 -0.3345 -0.4341
 3812TIP3    H235632   0.873   5.450  10.205 -0.8746  2.1088 -0.4550
 3813TIP3   OH235633   2.373   6.594  10.687 -0.6264 -0.2515  0.1122
 3813TIP3    H135634   2.418   6.586  10.603 -0.8582  0.7605 -0.1203
 3813TIP3    H235635   2.312   6.667  10.675  2.1326  2.6723  2.3808
 3814TIP3   OH235636   2.837   0.858  10.394 -0.6914  0.0986 -0.6397
 3814TIP3    H135637   2.781   0.811  10.455 -0.4185  0.3176 -0.2193
 3814TIP3    H235638   2.909   0.798  10.376 -0.9737 -0.1191 -1.0544
 3815TIP3   OH235639   2.356   5.251  12.304  0.7088  0.2030 -0.3793
 3815TIP3    H135640   2.278   5.292  12.268  0.2402 -0.6548 -0.3791
 3815TIP3    H235641   2.429   5.299  12.266  0.3278 -1.6011 -3.7757
 3816TIP3   OH235642   3.050   0.237  11.266  0.1097 -0.4446 -0.4993
 3816TIP3    H135643   3.047   0.155  11.315 -0.5519  1.0557  2.1689
 3816TIP3    H235644   2.959   0.266  11.262  0.5393  1.2209  0.6401
 3817TIP3   OH235645   2.256   0.032  11.803 -0.5672 -0.2514  0.0278
 3817TIP3    H135646   2.337   0.000  11.764  0.2756 -0.2250  1.6351
 3817TIP3    H235647   2.273   0.124  11.823 -1.3422  0.0083 -0.4862
 3818TIP3   OH235648   2.372   3.016  12.739 -0.6589 -0.4761  0.5038
 3818TIP3    H135649   2.357   3.110  12.728  1.2441 -0.2073 -0.1901
 3818TIP3    H235650   2.366   2.980  12.650 -0.3747 -0.8428  0.6306
 3819TIP3   OH235651   6.051   1.727  11.380  0.0271  0.5608 -0.4609
 3819TIP3    H135652   6.055   1.704  11.473  0.7104  1.6933 -0.1963
 3819TIP3    H235653   6.109   1.664  11.338 -1.0562 -0.6101 -0.2887
 3820TIP3   OH235654   0.514   0.300  12.202  0.5703  0.1177 -0.3716
 3820TIP3    H135655   0.431   0.254  12.218  0.0401  0.5638 -1.7421
 3820TIP3    H235656   0.490   0.378  12.152  1.6038  1.2867  0.8515
 3821TIP3   OH235657   5.395   7.300  12.756 -0.1581 -0.0090 -0.2436
 3821TIP3    H135658   5.446   7.378  12.733 -1.3617  0.9788  0.2805
 3821TIP3    H235659   5.310   7.335  12.782 -2.1592 -1.7095 -3.7381
 3822TIP3   OH235660   4.156   7.164  11.994  0.0799  0.6886  0.3702
 3822TIP3    H135661   4.151   7.259  11.990  0.3793  0.6627 -0.8529
 3822TIP3    H235662   4.228   7.146  12.056 -0.3565  1.2356  1.0446
 3823TIP3   OH235663   2.555   0.284  12.429 -0.5568 -0.0661  0.3267
 3823TIP3    H135664   2.553   0.277  12.333  0.1250 -0.5869  0.3391
 3823TIP3    H235665   2.556   0.193  12.460 -0.1640  0.0912  0.7976
 3824TIP3   OH235666   5.434   3.504  11.458 -0.2092  0.0819  0.3246
 3824TIP3    H135667   5.427   3.554  11.539 -0.4917  0.9488 -0.2207
 3824TIP3    H235668   5.373   3.546  11.398  0.8496  0.2008 -0.7113
 3825TIP3   OH235669   1.485   1.541  12.657  0.3098 -0.1756 -0.4386
 3825TIP3    H135670   1.445   1.498  12.582  1.3326 -1.7984 -0.1094
 3825TIP3    H235671   1.412   1.578  12.706 -0.7781 -2.3752 -0.2501
 3826TIP3   OH235672   0.933   0.087  12.687 -0.1538 -0.0925 -0.0622
 3826TIP3    H135673   0.880   0.054  12.760 -1.4874  0.6289 -0.6696
 3826TIP3    H235674   0.941   0.012  12.628  1.9311 -1.0377  1.3117
 3827TIP3   OH235675   4.130   7.293  11.170  0.0478 -0.1426  0.0843
 3827TIP3    H135676   4.185   7.215  11.179  1.1180  0.7294  1.5787
 3827TIP3    H235677   4.073   7.292  11.247  2.3818  2.2073  2.0453
 3828TIP3   OH235678   0.585   1.857  12.688 -0.1605 -0.4494  0.1419
 3828TIP3    H135679   0.558   1.815  12.607 -3.0683  1.9418 -0.2744
 3828TIP3    H235680   0.562   1.949  12.677  2.5967  0.6784  2.3870
 3829TIP3   OH235681   2.423   1.050  11.102 -0.1171 -0.0710  0.1054
 3829TIP3    H135682   2.466   0.993  11.039 -0.3339 -0.6847  0.5032
 3829TIP3    H235683   2.494   1.080  11.160 -0.1005 -0.4630  0.2912
 3830TIP3   OH235684   2.908   7.122  12.839 -0.3179  0.7168 -0.3758
 3830TIP3    H135685   2.997   7.158  12.833 -1.0307  2.6163 -0.0976
 3830TIP3    H235686   2.868   7.143  12.755 -0.3929 -0.5061 -0.6584
 3831TIP3   OH235687   2.413   5.176  11.953  0.0800  0.0082  0.5242
 3831TIP3    H135688   2.402   5.084  11.930 -1.3209  0.8356 -2.6548
 3831TIP3    H235689   2.496   5.179  12.000  2.5127 -2.3537 -3.1388
 3832TIP3   OH235690   2.851   6.237  10.666  0.3982 -0.0277  0.3712
 3832TIP3    H135691   2.848   6.151  10.624 -0.7763  0.3271 -0.3204
 3832TIP3    H235692   2.889   6.220  10.752  2.2305 -0.8898 -0.5482
 3833TIP3   OH235693   0.953   6.327  10.893 -0.2081  0.1871 -1.0711
 3833TIP3    H135694   0.926   6.238  10.913 -2.2838  0.9447 -0.2081
 3833TIP3    H235695   0.950   6.332  10.798  1.0699 -0.9633 -1.1959
 3834TIP3   OH235696   6.212   2.151   9.897  0.7718  0.4510  0.1258
 3834TIP3    H135697   6.270   2.174   9.970  0.7278  2.0860 -0.3088
 3834TIP3    H235698   6.268   2.156   9.819  0.8165 -1.2709  0.0069
 3835TIP3   OH235699   6.996   5.898  10.628  1.0694  0.2302  0.1604
 3835TIP3    H135700   7.038   5.975  10.666  2.3637 -0.6623  0.6053
 3835TIP3    H235701   6.996   5.915  10.533  0.1314  1.3396  0.3446
 3836TIP3   OH235702   6.804   6.915  11.402 -0.0757 -0.3376 -0.3764
 3836TIP3    H135703   6.839   6.829  11.376 -0.3038 -0.4356 -0.3595
 3836TIP3    H235704   6.753   6.944  11.327  0.6045  0.1245 -0.6732
 3837TIP3   OH235705   4.460   0.490  12.478 -0.0130 -0.4614  0.1710
 3837TIP3    H135706   4.412   0.431  12.419  1.1239 -1.4277  0.1649
 3837TIP3    H235707   4.481   0.435  12.554  0.4657  0.1309  0.4735
 3838TIP3   OH235708   0.296   6.235   9.865  0.3556 -0.8590 -0.8494
 3838TIP3    H135709   0.318   6.300   9.799  0.8239 -0.2032 -0.0662
 3838TIP3    H235710   0.374   6.230   9.921  0.1489 -1.7512 -0.6204
 3839TIP3   OH235711   7.167   2.075  10.686  0.3852  0.3504 -0.2722
 3839TIP3    H135712   7.151   2.166  10.662  0.0120 -0.0944 -1.7812
 3839TIP3    H235713   7.094   2.026  10.647 -0.3044 -0.4360  1.8434
 3840TIP3   OH235714   2.735   3.237  12.052  0.3159 -0.4617 -0.0989
 3840TIP3    H135715   2.802   3.222  11.985 -0.3875 -0.3009 -0.8584
 3840TIP3    H235716   2.688   3.315  12.022 -0.6886 -1.0039  0.0191
 3841TIP3   OH235717   7.165   6.587  11.206 -0.0360 -0.1429 -0.5353
 3841TIP3    H135718   7.257   6.589  11.231 -0.3256  2.8451  0.7312
 3841TIP3    H235719   7.122   6.536  11.274  0.1594  2.1942  1.4958
 3842TIP3   OH235720   3.848   2.008  12.141 -0.0287  0.0467  0.4354
 3842TIP3    H135721   3.917   2.063  12.102  1.8510 -1.6937  1.1408
 3842TIP3    H235722   3.808   2.064  12.207  0.6858  1.1334 -0.0141
 3843TIP3   OH235723   6.091   4.886  10.435  0.4163 -0.0343 -0.2990
 3843TIP3    H135724   6.078   4.938  10.515 -0.1586 -1.0130  0.2638
 3843TIP3    H235725   6.006   4.889  10.391  0.1542 -1.0816  0.1059
 3844TIP3   OH235726   7.507   4.046  12.602  0.5502 -0.8027 -0.5040
 3844TIP3    H135727   7.546   4.105  12.666  0.1078 -2.3724  1.3062
 3844TIP3    H235728   7.539   3.960  12.626  1.5040 -1.3359 -3.3267
 3845TIP3   OH235729   3.003   0.576  11.686  0.2215 -0.1349  0.1276
 3845TIP3    H135730   2.919   0.565  11.730  0.1134  0.5329  0.1012
 3845TIP3    H235731   2.984   0.556  11.594 -0.5998  2.7247 -0.4222
 3846TIP3   OH235732   5.713   5.151  10.976  0.1402 -0.6653 -0.2107
 3846TIP3    H135733   5.699   5.239  11.010  0.8391 -1.1274  1.3522
 3846TIP3    H235734   5.642   5.138  10.913 -1.2696  0.2069  1.1359
 3847TIP3   OH235735   2.740   3.031  10.047 -0.0805  0.4289 -0.5971
 3847TIP3    H135736   2.769   2.948  10.010  1.2079  0.6117 -0.0429
 3847TIP3    H235737   2.789   3.039  10.129 -1.8544  0.6709  0.4867
 3848TIP3   OH235738   5.874   1.423  11.770  0.1297  0.4344 -0.0202
 3848TIP3    H135739   5.877   1.340  11.818  0.7382 -0.1413 -1.0243
 3848TIP3    H235740   5.821   1.480  11.826  0.1255 -0.4611  0.9362
 3849TIP3   OH235741   5.204   2.626  10.943 -0.5475 -0.1379 -0.4276
 3849TIP3    H135742   5.283   2.585  10.980 -0.9820 -1.7404 -1.1668
 3849TIP3    H235743   5.236   2.699  10.890  0.2054  1.1075  1.6406
 3850TIP3   OH235744   6.473   3.098  10.622 -0.5826 -0.2780  0.3054
 3850TIP3    H135745   6.515   3.020  10.658 -0.3430  0.3225  1.3688
 3850TIP3    H235746   6.536   3.131  10.557 -0.1034 -0.2484  0.7824
 3851TIP3   OH235747   7.456   1.311  10.624 -0.4530 -0.5933 -0.6791
 3851TIP3    H135748   7.500   1.271  10.549 -0.8440 -0.0665 -1.2065
 3851TIP3    H235749   7.510   1.386  10.647 -0.3002 -0.7915 -0.3953
 3852TIP3   OH235750   6.584   3.307  10.832  0.1633 -0.2531 -0.0968
 3852TIP3    H135751   6.629   3.237  10.785 -1.2370 -0.8173 -0.6492
 3852TIP3    H235752   6.537   3.262  10.902 -1.8105 -0.0718 -1.2501
 3853TIP3   OH235753   0.940   3.401  12.718  0.3348  0.0295 -0.0322
 3853TIP3    H135754   0.989   3.424  12.639  1.9060  0.2371  0.9465
 3853TIP3    H235755   0.874   3.470  12.727  1.6373  1.3078  0.0619
 3854TIP3   OH235756   5.305   6.951  12.431 -0.4863  0.5209 -0.0597
 3854TIP3    H135757   5.393   6.972  12.398  0.1139 -1.5183  0.1030
 3854TIP3    H235758   5.264   6.903  12.359  0.0264 -2.0147  1.2146
 3855TIP3   OH235759   2.940   7.519  10.868 -0.4214  0.0256 -0.0505
 3855TIP3    H135760   2.848   7.504  10.842 -0.4730 -0.3681  0.3561
 3855TIP3    H235761   2.934   7.570  10.948 -0.3062 -0.7359  0.4516
 3856TIP3   OH235762   2.198   7.115  11.860  0.4222 -0.2858 -0.3051
 3856TIP3    H135763   2.241   7.043  11.813  0.6387  0.4654 -1.2830
 3856TIP3    H235764   2.181   7.181  11.793  0.1500  0.5502  0.5635
 3857TIP3   OH235765   4.180   1.587  11.889 -0.2148 -0.6175 -0.1185
 3857TIP3    H135766   4.092   1.591  11.851 -0.8428  0.7161  1.4046
 3857TIP3    H235767   4.174   1.636  11.970  1.8747 -0.7920  0.1947
 3858TIP3   OH235768   1.677   5.122  11.754  0.2679  0.0783  0.3999
 3858TIP3    H135769   1.630   5.049  11.713  2.7359 -0.8747 -0.9462
 3858TIP3    H235770   1.660   5.197  11.696 -0.1277 -0.0668  0.3236
 3859TIP3   OH235771   2.681   0.062  12.159  0.1704  0.3003  0.1398
 3859TIP3    H135772   2.620   0.036  12.228 -0.4708  1.4808  0.0533
 3859TIP3    H235773   2.729   0.136  12.196 -0.9174  1.6497 -1.0019
 3860TIP3   OH235774   0.560   4.884  11.053  0.3815  0.1682  0.1812
 3860TIP3    H135775   0.570   4.970  11.012  0.0351  0.4774  0.7382
 3860TIP3    H235776   0.485   4.894  11.111 -0.0710 -0.6948 -0.2319
 3861TIP3   OH235777   1.039   6.778  10.778 -0.4273  0.2682  0.1991
 3861TIP3    H135778   1.128   6.800  10.804 -0.1777 -2.4096  1.9061
 3861TIP3    H235779   1.046   6.747  10.688  0.3091  0.2340  0.2693
 3862TIP3   OH235780   3.598   2.652  11.411  0.8515 -0.2708  0.4276
 3862TIP3    H135781   3.549   2.677  11.333  0.3574  0.4967  0.9603
 3862TIP3    H235782   3.639   2.569  11.389  0.7801 -0.0214 -0.6685
 3863TIP3   OH235783   6.702   5.474  11.553  0.3277 -0.2238 -0.0919
 3863TIP3    H135784   6.710   5.422  11.472  1.8822  1.2816 -0.9890
 3863TIP3    H235785   6.650   5.550  11.527 -1.0304 -0.7831  0.9275
 3864TIP3   OH235786   3.552   0.992  10.789  0.2249 -0.3730  0.4542
 3864TIP3    H135787   3.608   1.049  10.842 -0.4146  0.4231  0.2798
 3864TIP3    H235788   3.598   0.982  10.706  0.3757 -0.1761  0.5156
 3865TIP3   OH235789   5.577   2.109  12.552  0.2699 -0.3368  0.2641
 3865TIP3    H135790   5.670   2.086  12.558 -0.0592 -1.9581 -0.3175
 3865TIP3    H235791   5.544   2.059  12.477 -0.8767  0.9658 -0.1518
 3866TIP3   OH235792   4.029   6.977  11.806 -0.4622  0.4861 -0.2697
 3866TIP3    H135793   4.109   6.968  11.755  0.2200 -0.3998  0.8832
 3866TIP3    H235794   4.055   7.028  11.882  0.1885 -3.1648  2.2437
 3867TIP3   OH235795   2.434   6.540  11.641  0.0048  0.1379 -0.9581
 3867TIP3    H135796   2.443   6.446  11.655  2.0907  0.4181  0.0137
 3867TIP3    H235797   2.395   6.548  11.554 -0.5849 -1.6145 -0.8921
 3868TIP3   OH235798   4.137   6.180  10.951  0.1432  0.5309  0.3309
 3868TIP3    H135799   4.202   6.112  10.933  0.6972  0.8099  1.2146
 3868TIP3    H235800   4.065   6.134  10.995  0.1126  0.3659  0.1099
 3869TIP3   OH235801   4.218   7.042  11.225  0.3597 -0.2618  0.5311
 3869TIP3    H135802   4.203   6.949  11.205  1.5154 -0.4904  0.6838
 3869TIP3    H235803   4.312   7.054  11.212  0.1954  0.9224  0.3966
 3870TIP3   OH235804   5.365   1.835  12.121 -0.0750 -0.0454 -0.2857
 3870TIP3    H135805   5.299   1.837  12.051 -0.0865  0.2644 -0.2648
 3870TIP3    H235806   5.322   1.789  12.193  0.0785 -0.7401 -0.6252
 3871TIP3   OH235807   7.124   1.741  10.786 -0.4527  0.3546  0.4310
 3871TIP3    H135808   7.077   1.660  10.767 -0.3258  0.8066 -2.1448
 3871TIP3    H235809   7.058   1.798  10.826 -1.0281 -0.3905  0.5548
 3872TIP3   OH235810   0.932   2.151  12.167 -0.6391 -0.1091  0.2338
 3872TIP3    H135811   1.022   2.160  12.196  0.0408 -2.3642 -0.9358
 3872TIP3    H235812   0.881   2.146  12.248  0.7506 -2.6081  1.0411
 3873TIP3   OH235813   5.716   2.445   9.843 -0.1860 -0.2424 -0.0595
 3873TIP3    H135814   5.800   2.491   9.842 -0.2714 -0.0318  0.8044
 3873TIP3    H235815   5.655   2.509   9.879 -0.4227 -0.8436  0.6429
 3874TIP3   OH235816   7.361   2.538  12.418 -0.1610  0.3947  0.0029
 3874TIP3    H135817   7.375   2.514  12.326  2.6538  0.1111  0.4263
 3874TIP3    H235818   7.419   2.481  12.467 -1.2047  0.9307  1.9436
 3875TIP3   OH235819   1.972   3.439  12.813 -0.4580 -0.1112 -0.1587
 3875TIP3    H135820   2.042   3.462  12.753  0.1774 -0.7224  0.3382
 3875TIP3    H235821   1.947   3.350  12.788 -0.3712 -0.2685  0.3101
 3876TIP3   OH235822   2.423   7.284  10.675  0.1570 -0.2473  0.4628
 3876TIP3    H135823   2.427   7.350  10.744 -1.5711 -0.8509  1.1983
 3876TIP3    H235824   2.333   7.287  10.643  0.4494 -1.2078 -0.5333
 3877TIP3   OH235825   5.567   1.252  12.659 -0.0990 -0.3374 -0.2514
 3877TIP3    H135826   5.645   1.223  12.707  0.0322 -1.7953 -1.2586
 3877TIP3    H235827   5.506   1.178  12.667 -1.8401  1.1646  1.3897
 3878TIP3   OH235828   0.946   1.966  11.825  0.3676 -0.1804 -0.4555
 3878TIP3    H135829   1.037   1.966  11.854 -0.3486  1.0919  2.1016
 3878TIP3    H235830   0.895   1.953  11.905 -1.7334 -0.0889 -1.6971
 3879TIP3   OH235831   0.527   7.059  12.003  0.1264  0.0078  0.4400
 3879TIP3    H135832   0.619   7.066  11.979  0.0831 -0.2453  0.2054
 3879TIP3    H235833   0.510   6.965  12.008 -0.3710  0.0363 -0.4791
 3880TIP3   OH235834   6.768   4.722  11.089  0.5174  0.1361 -0.1390
 3880TIP3    H135835   6.740   4.699  11.001  1.0503  1.5081 -0.6792
 3880TIP3    H235836   6.804   4.640  11.124 -0.7690 -0.7233 -0.7400
 3881TIP3   OH235837   2.884   6.063  11.734 -0.4261 -0.0236 -0.1109
 3881TIP3    H135838   2.841   5.986  11.771  0.5604 -0.6248 -0.1852
 3881TIP3    H235839   2.818   6.132  11.739 -1.7892 -1.1962 -1.2804
 3882TIP3   OH235840   1.422   3.294  11.968 -0.4882  0.0524 -0.3643
 3882TIP3    H135841   1.503   3.265  11.926  0.2765  1.5299  0.0199
 3882TIP3    H235842   1.369   3.329  11.897  0.5361  1.9473 -0.2746
 3883TIP3   OH235843   0.079   2.819  10.856  0.4497 -1.0523  0.0147
 3883TIP3    H135844   0.096   2.761  10.782 -0.8539  0.8325 -1.8923
 3883TIP3    H235845   0.126   2.900  10.833  1.7975 -1.1108  2.3305
 3884TIP3   OH235846   4.053   0.145  12.463 -0.3926  0.0523 -0.2527
 3884TIP3    H135847   4.080   0.152  12.372  1.8478 -0.4767  0.3291
 3884TIP3    H235848   4.092   0.064  12.494 -2.0503 -0.3443  0.9073
 3885TIP3   OH235849   5.633   5.359  11.569 -0.3536 -0.7429 -0.2181
 3885TIP3    H135850   5.705   5.417  11.545 -1.4875  0.7099 -0.2715
 3885TIP3    H235851   5.632   5.360  11.665 -0.2726 -0.7829 -0.2174
 3886TIP3   OH235852   2.167   2.062  11.738 -0.5416 -0.1742 -0.8449
 3886TIP3    H135853   2.095   2.125  11.741 -0.6951 -0.1343 -3.3525
 3886TIP3    H235854   2.174   2.038  11.646  2.0350 -0.9209 -0.5319
 3887TIP3   OH235855   2.131   5.836  11.598  0.6656  0.4027  0.0267
 3887TIP3    H135856   2.077   5.779  11.653  2.9197  0.1407  2.1599
 3887TIP3    H235857   2.095   5.924  11.611 -1.2819 -0.1333 -1.3147
 3888TIP3   OH235858   0.092   1.131  11.674 -0.2363 -0.0772  0.0469
 3888TIP3    H135859   0.116   1.052  11.627 -1.6807 -0.0386 -0.8144
 3888TIP3    H235860   0.156   1.197  11.647 -2.3218  0.6181 -3.8137
 3889TIP3   OH235861   5.884   5.131  11.672  0.2344 -0.2913 -0.6686
 3889TIP3    H135862   5.837   5.130  11.589  0.3332  0.7320 -0.7477
 3889TIP3    H235863   5.973   5.104  11.650  0.7696  1.7485 -1.2547
 3890TIP3   OH235864   1.891   3.375  12.077 -0.2261  0.0647  0.2596
 3890TIP3    H135865   1.890   3.448  12.138 -0.9977  0.4241 -0.1640
 3890TIP3    H235866   1.884   3.297  12.133 -1.9444  0.4296  0.6021
 3891TIP3   OH235867   1.971   3.692  10.514 -0.1577  0.0496  0.1893
 3891TIP3    H135868   1.942   3.736  10.594  0.4757 -0.2159  0.5699
 3891TIP3    H235869   1.963   3.599  10.533  1.1165 -0.0301  0.3694
 3892TIP3   OH235870   6.258   6.261  13.175 -0.4892  0.4094  0.2347
 3892TIP3    H135871   6.179   6.272  13.123 -0.9450  0.4520  0.9242
 3892TIP3    H235872   6.229   6.219  13.256  0.4286 -1.0064 -0.1226
 3893TIP3   OH235873   1.754   6.875  10.019 -0.3083  0.6115 -0.1906
 3893TIP3    H135874   1.775   6.786  10.047 -0.1335  0.1467 -1.7009
 3893TIP3    H235875   1.820   6.930  10.062 -0.3328  0.0027  0.6478
 3894TIP3   OH235876   4.871   4.602  11.761  0.1020  0.3983  0.7840
 3894TIP3    H135877   4.881   4.697  11.761 -0.6346  0.5010 -0.6886
 3894TIP3    H235878   4.787   4.587  11.804 -0.0013  0.4525  0.6031
 3895TIP3   OH235879   3.127   5.899  11.894 -0.2039  0.0802 -0.2929
 3895TIP3    H135880   3.081   5.831  11.844  1.1090 -0.9202 -0.2127
 3895TIP3    H235881   3.090   5.981  11.862 -0.1152 -0.5577 -2.2157
 3896TIP3   OH235882   6.375   1.112  10.546  0.1487  0.5835  0.2600
 3896TIP3    H135883   6.433   1.038  10.526  1.4847  2.1233 -1.9999
 3896TIP3    H235884   6.375   1.117  10.642  3.4073  0.2099  0.3910
 3897TIP3   OH235885   2.860   2.092  12.641  0.2494 -0.1321 -0.2869
 3897TIP3    H135886   2.892   2.182  12.633  1.3393 -0.3100  1.4177
 3897TIP3    H235887   2.904   2.045  12.570 -0.0058  0.5905 -0.9356
 3898TIP3   OH235888   2.052   7.076  11.033 -0.0150  0.1855 -0.2958
 3898TIP3    H135889   1.972   7.060  11.084 -0.3057  0.6685 -0.5869
 3898TIP3    H235890   2.024   7.137  10.965  0.8341  1.1763  0.2154
 3899TIP3   OH235891   0.990   5.261  11.747  0.2684  0.5366 -0.6184
 3899TIP3    H135892   0.989   5.187  11.686 -0.6090 -0.4868  0.5873
 3899TIP3    H235893   1.075   5.256  11.791 -0.5606 -1.0442  0.9177
 3900TIP3   OH235894   6.080   4.096  11.710 -0.0484 -0.3176  0.5464
 3900TIP3    H135895   6.086   4.009  11.670  1.0720 -0.2600  0.5359
 3900TIP3    H235896   6.133   4.152  11.652  0.1690  0.1310  1.1719
 3901TIP3   OH235897   2.090   6.136  12.113  0.3333  0.1444 -0.1334
 3901TIP3    H135898   2.060   6.070  12.176  1.6379 -0.5075 -0.1675
 3901TIP3    H235899   2.175   6.163  12.146  0.3541  0.9265 -0.8011
 3902TIP3   OH235900   4.911   0.446  12.132 -0.0934 -0.1004 -0.3134
 3902TIP3    H135901   4.878   0.535  12.123 -1.9111 -0.7706 -0.7468
 3902TIP3    H235902   5.005   0.456  12.148  0.0475  1.8246 -1.9903
 3903TIP3   OH235903   1.984   1.641  12.738  0.4333 -0.0020 -0.1653
 3903TIP3    H135904   1.895   1.614  12.715  0.7573 -1.0092 -0.2908
 3903TIP3    H235905   2.034   1.560  12.737  1.7579  0.7638 -1.9289
 3904TIP3   OH235906   1.646   3.158  10.769 -0.0443 -0.5543 -0.0657
 3904TIP3    H135907   1.553   3.138  10.764 -0.2475 -0.0793  1.2147
 3904TIP3    H235908   1.682   3.131  10.685 -1.4534 -0.1555 -0.8225
 3905TIP3   OH235909   6.871   2.418  11.978 -0.4874 -0.0062  0.0170
 3905TIP3    H135910   6.887   2.495  11.924 -1.6620  0.6061  0.5182
 3905TIP3    H235911   6.926   2.350  11.939  0.7754  1.1351 -0.2761
 3906TIP3   OH235912   5.836   7.248  12.708 -0.0925 -0.0732 -0.4789
 3906TIP3    H135913   5.872   7.334  12.686  1.8361 -0.6560  0.1367
 3906TIP3    H235914   5.749   7.247  12.668  0.5980  1.4114 -2.1690
 3907TIP3   OH235915   7.082   7.145  11.849 -0.4827 -0.3493  0.0466
 3907TIP3    H135916   7.110   7.122  11.760 -1.0178 -1.5694  0.1675
 3907TIP3    H235917   7.088   7.063  11.898  2.6784  0.8544  1.9717
 3908TIP3   OH235918   6.179   2.392  11.443  0.0423 -0.2065  0.3414
 3908TIP3    H135919   6.168   2.484  11.470  0.7562 -0.1387  0.4034
 3908TIP3    H235920   6.201   2.346  11.524  0.6308 -0.2693  0.1450
 3909TIP3   OH235921   5.799   2.539  12.238  0.0802  0.0456  0.1357
 3909TIP3    H135922   5.729   2.596  12.204 -0.4802  0.1232  1.3495
 3909TIP3    H235923   5.758   2.453  12.245  0.5154 -0.2067 -0.4001
 3910TIP3   OH235924   0.650   3.209  10.111 -0.5282  0.1810  0.0833
 3910TIP3    H135925   0.617   3.244  10.029 -0.1583  0.1923 -0.0632
 3910TIP3    H235926   0.745   3.210  10.101 -0.5045 -1.3538 -0.1442
 3911TIP3   OH235927   1.968   5.516  10.952 -0.0555 -0.0974 -0.1943
 3911TIP3    H135928   2.061   5.493  10.944 -0.2283 -0.6746 -0.5974
 3911TIP3    H235929   1.966   5.610  10.936  0.1434 -0.4769 -3.0860
 3912TIP3   OH235930   4.510   2.247  11.301  0.0153 -0.4169 -0.0810
 3912TIP3    H135931   4.415   2.252  11.286 -0.0461 -2.7773 -0.8126
 3912TIP3    H235932   4.549   2.266  11.216  0.2365  0.6155  0.2335
 3913TIP3   OH235933   3.116   2.739  11.230  0.2021 -0.9031  0.1785
 3913TIP3    H135934   3.154   2.820  11.265 -1.6621  0.6974 -1.2630
 3913TIP3    H235935   3.070   2.700  11.305 -0.3534  0.3245  0.4996
 3914TIP3   OH235936   4.402   3.102  12.911 -0.2969 -0.0476 -0.3029
 3914TIP3    H135937   4.342   3.039  12.872 -1.0146  0.7339 -0.5037
 3914TIP3    H235938   4.451   3.053  12.976 -1.4223 -0.6135  0.1322
 3915TIP3   OH235939   6.750   3.919  12.158  0.1669 -0.2033  0.0622
 3915TIP3    H135940   6.679   3.977  12.185  0.4942  0.6285 -0.8190
 3915TIP3    H235941   6.828   3.974  12.161  0.3270 -0.2597 -1.8335
 3916TIP3   OH235942   1.369   3.021  11.742 -0.2411  0.5951 -0.1393
 3916TIP3    H135943   1.290   3.020  11.796 -1.4361  1.3364 -1.7851
 3916TIP3    H235944   1.388   3.114  11.729  2.5096  0.5335  2.3499
 3917TIP3   OH235945   5.439   1.883  12.426 -0.2985  0.0687  0.1025
 3917TIP3    H135946   5.469   1.943  12.358  1.9332  2.5673  2.9932
 3917TIP3    H235947   5.348   1.908  12.441 -0.0824  1.2024 -0.3448
 3918TIP3   OH235948   5.893   3.268  11.053 -0.4214 -0.1765 -0.0521
 3918TIP3    H135949   5.873   3.181  11.087  0.1791 -1.1438 -2.0088
 3918TIP3    H235950   5.833   3.281  10.979 -0.1909  0.8689 -0.0833
 3919TIP3   OH235951   3.245   6.159  11.742  0.2909 -0.3691  0.1546
 3919TIP3    H135952   3.319   6.136  11.687 -0.4939  0.0479 -1.1043
 3919TIP3    H235953   3.170   6.117  11.701 -0.3046 -0.1071  0.9482
 3920TIP3   OH235954   5.860   3.419  12.418  0.6647  0.5573 -0.0631
 3920TIP3    H135955   5.943   3.380  12.389 -0.1257 -1.5746  0.3447
 3920TIP3    H235956   5.879   3.451  12.506  0.8724 -0.7158  0.3860
 3921TIP3   OH235957   1.601   2.003  12.332  0.4194  0.4797  0.2198
 3921TIP3    H135958   1.606   1.967  12.421 -0.1381  0.6936  0.3403
 3921TIP3    H235959   1.554   2.086  12.342  1.2998  1.0380 -0.1186
 3922TIP3   OH235960   3.801   0.976  11.057  0.0694  0.0238  0.3825
 3922TIP3    H135961   3.891   0.964  11.027 -0.0560  0.6737 -0.2843
 3922TIP3    H235962   3.778   1.064  11.028 -1.0079 -0.3894 -0.0571
 3923TIP3   OH235963   7.390   5.935  10.728 -0.3129  0.1124  0.4080
 3923TIP3    H135964   7.344   6.018  10.713 -0.8028  0.0003  1.2557
 3923TIP3    H235965   7.341   5.872  10.675 -0.8080  0.0952  0.8843
 3924TIP3   OH235966   4.005   3.072  11.230  0.7025  0.3999  0.2934
 3924TIP3    H135967   3.948   3.054  11.305 -1.2499  0.8073 -1.0305
 3924TIP3    H235968   4.015   2.987  11.187  0.8254  0.3900  0.3415
 3925TIP3   OH235969   5.611   0.511  12.000  0.1816  0.5941 -0.5138
 3925TIP3    H135970   5.541   0.466  12.048  1.1019 -0.0553  0.2447
 3925TIP3    H235971   5.577   0.600  11.987 -1.3379 -0.0660 -1.3619
 3926TIP3   OH235972   3.103   2.550  10.748  0.0827  0.1056 -0.4177
 3926TIP3    H135973   3.182   2.531  10.800  0.0517  1.8829  0.3522
 3926TIP3    H235974   3.133   2.549  10.658  0.9582  0.5690 -0.1432
 3927TIP3   OH235975   2.431   7.417  12.964 -0.2226 -0.0178  0.4959
 3927TIP3    H135976   2.400   7.357  12.897  0.4592  0.2276 -0.0517
 3927TIP3    H235977   2.416   7.372  13.047 -0.3507 -0.6488  0.1290
 3928TIP3   OH235978   1.882   3.134  10.922  0.4804 -0.2003  0.3551
 3928TIP3    H135979   1.890   3.039  10.934  0.2110 -0.2171  0.4059
 3928TIP3    H235980   1.793   3.147  10.889  0.2538  0.1002  1.0660
 3929TIP3   OH235981   1.946   2.883  11.625 -0.1348 -0.2134 -0.3620
 3929TIP3    H135982   1.905   2.951  11.572  0.7910  1.3768  0.8751
 3929TIP3    H235983   1.873   2.835  11.663 -0.8286  0.6751 -0.5286
 3930TIP3   OH235984   4.246   1.784  12.107 -0.5522 -0.1727  0.2588
 3930TIP3    H135985   4.242   1.843  12.032 -1.7356  0.4247  0.7547
 3930TIP3    H235986   4.162   1.797  12.152 -0.9304 -2.3589  0.2968
 3931TIP3   OH235987   4.333   3.340  12.260 -0.2312  0.4733 -0.7092
 3931TIP3    H135988   4.399   3.387  12.310 -0.3121  0.8870 -0.9838
 3931TIP3    H235989   4.250   3.362  12.302 -0.1844 -0.1426 -0.2902
 3932TIP3   OH235990   6.075   3.190  11.519  0.3081 -0.6646  0.0235
 3932TIP3    H135991   6.098   3.283  11.519 -1.2120 -0.2562  1.3211
 3932TIP3    H235992   6.052   3.170  11.609 -1.6138 -1.7130 -0.6341
 3933TIP3   OH235993   4.182   4.296  12.668  0.1815  0.3174 -0.3173
 3933TIP3    H135994   4.167   4.372  12.724 -0.8493 -0.0256 -0.1102
 3933TIP3    H235995   4.277   4.296  12.653  0.2358  1.4435 -0.0531
 3934TIP3   OH235996   1.197   4.875  12.132  0.4030  0.4794  0.4068
 3934TIP3    H135997   1.269   4.933  12.107 -0.0468  0.9593  0.1954
 3934TIP3    H235998   1.125   4.935  12.153  0.3364  0.0435  1.4859
 3935TIP3   OH235999   4.844   4.678  10.346  0.4840 -0.6638  0.1674
 3935TIP3    H136000   4.774   4.629  10.301 -1.1381 -0.2440  2.0602
 3935TIP3    H236001   4.841   4.765  10.307 -1.4608 -0.0571  1.4847
 3936TIP3   OH236002   1.337   0.885  10.770  0.3154 -0.3754  0.3141
 3936TIP3    H136003   1.379   0.944  10.707 -1.4856  1.7507  0.9761
 3936TIP3    H236004   1.408   0.829  10.801  2.4859  2.3427  0.6618
 3937TIP3   OH236005   6.688   6.732  11.954 -0.0917  0.0591  0.5292
 3937TIP3    H136006   6.627   6.658  11.956  1.4064 -1.4149 -1.9356
 3937TIP3    H236007   6.774   6.691  11.948  0.8167  2.0099 -0.6091
 3938TIP3   OH236008   5.601   2.634  11.656  1.3441 -0.2224 -0.3382
 3938TIP3    H136009   5.560   2.577  11.591  1.9866 -2.4091  1.0596
 3938TIP3    H236010   5.633   2.709  11.605 -0.7324 -0.3946 -2.0506
 3939TIP3   OH236011   1.272   6.571  12.697 -0.3056  1.0079 -0.2611
 3939TIP3    H136012   1.303   6.647  12.648  3.6594  1.4900  2.5309
 3939TIP3    H236013   1.291   6.496  12.639  0.6106  1.8096 -1.0442
 3940TIP3   OH236014   4.331   1.823  10.930  0.2834  0.0365 -0.1132
 3940TIP3    H136015   4.333   1.906  10.882 -0.0240 -0.3463 -0.8067
 3940TIP3    H236016   4.338   1.848  11.022 -0.7934  0.9029 -0.2419
 3941TIP3   OH236017   5.003   6.779  12.765  0.2441  0.1255  0.1409
 3941TIP3    H136018   5.091   6.783  12.803 -0.3822 -2.8292  2.2206
 3941TIP3    H236019   5.014   6.726  12.686  0.1913 -1.1027  0.9476
 3942TIP3   OH236020   1.682   1.672  11.104 -0.5763  0.1300 -0.3467
 3942TIP3    H136021   1.687   1.707  11.015 -0.4183 -0.4693 -0.5774
 3942TIP3    H236022   1.590   1.683  11.128  0.0424  4.1340  1.0129
 3943TIP3   OH236023   2.923   2.250  10.092 -0.0088  0.1553  0.5124
 3943TIP3    H136024   2.894   2.338  10.114 -0.0717  0.6673 -1.4387
 3943TIP3    H236025   2.842   2.202  10.072  0.1814  0.6328 -1.6391
 3944TIP3   OH236026   2.405   1.358  12.094 -0.4668  0.0450 -0.4685
 3944TIP3    H136027   2.382   1.281  12.145  0.3590 -0.7587 -1.2499
 3944TIP3    H236028   2.489   1.386  12.131 -0.8637  0.7020 -0.0543
 3945TIP3   OH236029   0.838   0.576  11.877 -0.4104 -0.2764 -0.9237
 3945TIP3    H136030   0.881   0.528  11.806  1.0125  0.2139 -0.4207
 3945TIP3    H236031   0.886   0.658  11.883 -1.6964  0.4722 -0.5948
 3946TIP3   OH236032   6.622   2.329  12.838  0.0552 -0.2256 -0.4027
 3946TIP3    H136033   6.563   2.256  12.820  0.2277 -0.4197 -0.1669
 3946TIP3    H236034   6.580   2.376  12.911  1.8483 -2.2597  2.1049
 3947TIP3   OH236035   4.277   0.064  11.975 -0.2584  0.0133  0.0122
 3947TIP3    H136036   4.372   0.068  11.977 -0.2794  0.5278  0.2266
 3947TIP3    H236037   4.255   0.025  11.891  0.0863  1.9798 -1.0401
 3948TIP3   OH236038   5.327   2.697  10.184 -0.2799  0.0127  0.0727
 3948TIP3    H136039   5.243   2.672  10.224 -1.1448  0.4814 -1.3735
 3948TIP3    H236040   5.354   2.619  10.136  0.5226 -0.3904  1.1285
 3949TIP3   OH236041   5.637   3.191  10.598  0.2947 -0.4729 -0.6056
 3949TIP3    H136042   5.658   3.176  10.505 -0.7260  1.6701 -1.2426
 3949TIP3    H236043   5.545   3.165  10.606  0.1199  0.1980 -0.4168
 3950TIP3   OH236044   1.231   5.687  12.392  0.1967  0.2636  0.2539
 3950TIP3    H136045   1.274   5.750  12.450  0.3120  0.2040  0.2338
 3950TIP3    H236046   1.301   5.655  12.335  0.2437 -0.2716  0.6112
 3951TIP3   OH236047   2.360   6.280  10.444  0.1072 -0.2403  0.0674
 3951TIP3    H136048   2.328   6.354  10.392  0.1143  0.3887  0.9321
 3951TIP3    H236049   2.397   6.320  10.522 -3.6189 -1.2396  2.6610
 3952TIP3   OH236050   4.812   0.972  12.334 -0.4547 -0.3180  0.4186
 3952TIP3    H136051   4.833   1.055  12.292  0.0397 -0.5271  0.2510
 3952TIP3    H236052   4.727   0.988  12.376  0.1762  0.6396  1.3865
 3953TIP3   OH236053   5.515   3.645  11.712 -0.1370  0.1926  0.5029
 3953TIP3    H136054   5.483   3.584  11.779 -2.2074  1.1916  0.5185
 3953TIP3    H236055   5.522   3.729  11.758  0.0672  0.5287 -0.1355
 3954TIP3   OH236056   1.039   2.733  12.759 -0.0047  0.6207 -0.4341
 3954TIP3    H136057   1.104   2.670  12.789 -1.1144  0.5340  2.0410
 3954TIP3    H236058   1.076   2.818  12.782 -0.3147  0.6259  0.0557
 3955TIP3   OH236059   6.333   0.689   9.775  0.3189 -0.5594 -0.6374
 3955TIP3    H136060   6.273   0.762   9.765  1.6948  0.4633 -1.8961
 3955TIP3    H236061   6.399   0.703   9.707  2.0470 -1.5675  0.7495
 3956TIP3   OH236062   1.581   1.214  12.604 -0.1084 -0.1323 -0.6708
 3956TIP3    H136063   1.522   1.139  12.607 -1.8392  1.1500 -1.0061
 3956TIP3    H236064   1.525   1.288  12.582  1.3914  1.4052  0.3742
 3957TIP3   OH236065   4.023   4.369  12.059  0.2362  0.2361 -0.0198
 3957TIP3    H136066   4.027   4.370  11.964  0.5910 -0.7493 -0.0249
 3957TIP3    H236067   4.084   4.301  12.085 -2.0606 -1.6821  0.7749
 3958TIP3   OH236068   5.053   3.114  11.935 -0.5717 -0.2873  0.1463
 3958TIP3    H136069   5.069   3.071  11.851  0.2701 -0.5991  0.4538
 3958TIP3    H236070   5.014   3.198  11.913 -0.1279 -0.2683 -0.5704
 3959TIP3   OH236071   4.495   5.151  11.175  0.5629  0.6590 -0.0089
 3959TIP3    H136072   4.505   5.220  11.241 -0.7962  0.1822  0.7481
 3959TIP3    H236073   4.570   5.162  11.117  1.6009  1.3439  1.3910
 3960TIP3   OH236074   5.931   3.418  12.048  0.5209  0.1694  0.3542
 3960TIP3    H136075   5.962   3.484  12.110  0.4706 -0.5052  1.1034
 3960TIP3    H236076   5.942   3.460  11.962 -0.1489  1.4191  0.8487
 3961TIP3   OH236077   6.738   1.778  12.485 -0.4096  0.2245 -0.4391
 3961TIP3    H136078   6.674   1.754  12.418 -0.0447 -0.7646 -0.4427
 3961TIP3    H236079   6.788   1.698  12.501 -2.3325 -0.4514  3.1370
 3962TIP3   OH236080   2.541   0.675  10.939  0.1558 -0.2434  0.4685
 3962TIP3    H136081   2.544   0.714  11.026 -0.8976 -3.1962  1.9966
 3962TIP3    H236082   2.632   0.651  10.920  0.2186 -0.9149  1.4961
 3963TIP3   OH236083   4.561   0.624  12.146  0.1882 -0.5052 -0.0522
 3963TIP3    H136084   4.655   0.639  12.137  0.2805 -1.2611 -0.4416
 3963TIP3    H236085   4.552   0.528  12.154 -0.4387 -0.3644  1.2736
 3964TIP3   OH236086   4.432   7.103  12.088  0.5871 -0.4983  0.0615
 3964TIP3    H136087   4.471   7.052  12.159  1.0465 -1.3537 -0.7881
 3964TIP3    H236088   4.400   7.038  12.026  0.5270  0.2456 -0.7027
 3965TIP3   OH236089   0.138   5.883  10.625  0.2540  0.1729  0.8159
 3965TIP3    H136090   0.134   5.878  10.721 -0.8203 -0.1445  0.7727
 3965TIP3    H236091   0.087   5.807  10.596 -0.9745  1.2600  0.0103
 3966TIP3   OH236092   5.414   2.525  11.080  0.3056  0.1190  0.1681
 3966TIP3    H136093   5.502   2.531  11.117  1.0735  0.3096 -1.5700
 3966TIP3    H236094   5.400   2.431  11.066  1.6869  0.2221 -2.6510
 3967TIP3   OH236095   1.889   2.924  11.270 -0.0695 -0.1157 -0.4631
 3967TIP3    H136096   1.974   2.968  11.268 -0.7757  1.4361 -4.4193
 3967TIP3    H236097   1.838   2.973  11.335  0.4622  2.3989 -1.8219
 3968TIP3   OH236098   6.911   1.139  11.862  0.1228  0.2568 -0.6350
 3968TIP3    H136099   6.854   1.143  11.785 -1.2900  0.9494  0.4214
 3968TIP3    H236100   6.937   1.229  11.878 -0.0055  0.1858  0.0040
 3969TIP3   OH236101   5.396   5.310  12.196  0.2596  0.1737 -0.2380
 3969TIP3    H136102   5.308   5.278  12.216  0.2342 -2.0785 -3.2616
 3969TIP3    H236103   5.383   5.398  12.161 -0.9143 -0.4107 -1.3295
 3970TIP3   OH236104   2.282   4.675  11.789  0.4088  0.2482 -0.2175
 3970TIP3    H136105   2.337   4.753  11.793 -0.6630  0.9675  2.1259
 3970TIP3    H236106   2.333   4.607  11.833 -0.0603  0.6286  0.9694
 3971TIP3   OH236107   3.524   4.721  10.077  0.0569  0.4240 -0.3688
 3971TIP3    H136108   3.500   4.808  10.046 -0.4018  0.4578  0.0696
 3971TIP3    H236109   3.453   4.665  10.047  0.4888  0.1484 -0.8896
 3972TIP3   OH236110   0.343   6.741  11.546  0.2762 -0.1137 -0.6196
 3972TIP3    H136111   0.289   6.672  11.585  1.3716  0.9942  3.3082
 3972TIP3    H236112   0.298   6.823  11.569  1.4062  0.6594 -1.0640
 3973TIP3   OH236113   3.199   6.249  10.673 -0.1059  0.2031  0.1730
 3973TIP3    H136114   3.175   6.212  10.758 -0.3229  0.9193  0.4361
 3973TIP3    H236115   3.147   6.200  10.609 -1.2628  0.8119  0.6100
 3974TIP3   OH236116   3.455   3.753  11.095 -0.4476  0.1629  0.3865
 3974TIP3    H136117   3.373   3.709  11.117  0.9388 -2.7033  0.1805
 3974TIP3    H236118   3.431   3.816  11.026 -2.3369 -1.1540 -0.2250
 3975TIP3   OH236119   4.211   0.938  10.851  0.0466 -0.5539 -0.3887
 3975TIP3    H136120   4.257   1.022  10.846 -0.4558 -0.0077  2.4918
 3975TIP3    H236121   4.275   0.874  10.818  1.2010  0.6879 -0.6820
 3976TIP3   OH236122   2.913   3.389  12.639  0.1583  0.3507 -0.0808
 3976TIP3    H136123   2.913   3.315  12.578  3.6794  1.8054 -2.1409
 3976TIP3    H236124   2.952   3.354  12.719 -0.3627 -0.5229 -0.1942
 3977TIP3   OH236125   1.807   5.558  11.172  0.4042  0.9816 -0.4807
 3977TIP3    H136126   1.842   5.636  11.214  0.2342  1.7328 -1.6884
 3977TIP3    H236127   1.859   5.547  11.092 -0.6599  0.8594 -1.1938
 3978TIP3   OH236128   1.567   2.030  10.907  0.0325 -0.2581  0.3528
 3978TIP3    H136129   1.564   1.935  10.902  0.1600 -0.2782  0.6124
 3978TIP3    H236130   1.611   2.058  10.827  0.5932 -0.4580  0.5832
 3979TIP3   OH236131   3.536   5.942  12.189 -0.1381 -0.2491  0.5248
 3979TIP3    H136132   3.493   5.923  12.272 -1.3333 -0.3233 -0.0869
 3979TIP3    H236133   3.472   5.995  12.140  0.1312 -1.0453 -0.7325
 3980TIP3   OH236134   6.285   3.001  11.954  0.0562  0.1599 -0.0992
 3980TIP3    H136135   6.377   3.020  11.975  0.7759 -1.1769 -1.7200
 3980TIP3    H236136   6.235   3.049  12.019  1.8910  1.3542  0.5272
 3981TIP3   OH236137   1.875   4.945  10.396 -0.3408  0.0103  0.0063
 3981TIP3    H136138   1.968   4.926  10.405 -0.1373  1.3957  1.4340
 3981TIP3    H236139   1.872   5.031  10.354 -0.8448  0.9059  1.7346
 3982TIP3   OH236140   3.662   0.587  12.027  0.0512 -0.0457  0.0435
 3982TIP3    H136141   3.712   0.564  12.106 -1.0697 -1.1334  0.4754
 3982TIP3    H236142   3.583   0.630  12.061  0.2990  0.9515 -0.5921
 3983TIP3   OH236143   3.562   1.171  11.498 -0.0544 -0.2203 -0.3226
 3983TIP3    H136144   3.568   1.143  11.590 -0.4306  1.4011  0.2401
 3983TIP3    H236145   3.482   1.130  11.466  1.0869 -2.4028 -0.5655
 3984TIP3   OH236146   1.977   1.886  12.635  0.2383 -0.4507 -0.8063
 3984TIP3    H136147   1.984   1.798  12.672 -0.2258  0.1077  0.7069
 3984TIP3    H236148   2.064   1.924  12.646  0.0454 -0.2105 -0.0371
 3985TIP3   OH236149   7.487   6.028  11.082 -0.4551  0.0142  0.7047
 3985TIP3    H136150   7.456   5.938  11.073 -0.9873  0.2108  0.5288
 3985TIP3    H236151   7.411   6.082  11.060 -0.1827  0.5071  0.9526
 3986TIP3   OH236152   3.990   1.762  11.182  0.2129 -0.2855  0.2954
 3986TIP3    H136153   4.058   1.718  11.131 -0.3965 -1.6167  0.6154
 3986TIP3    H236154   3.908   1.731  11.145 -0.2303 -0.5866  1.4964
 3987TIP3   OH236155   7.561   4.963  10.117 -0.3649 -0.3209 -0.5312
 3987TIP3    H136156   7.589   4.887  10.168 -0.3269  0.5997  0.8654
 3987TIP3    H236157   7.638   4.987  10.065 -0.3724 -1.2020 -0.9791
 3988TIP3   OH236158   4.618   1.552  11.670 -0.1466 -0.6700 -0.2106
 3988TIP3    H136159   4.563   1.606  11.725  0.2041 -0.2662 -0.2522
 3988TIP3    H236160   4.617   1.466  11.712 -2.0249 -1.0930 -1.0276
 3989TIP3   OH236161   4.548   4.232  11.192  0.0134 -0.3940 -0.1921
 3989TIP3    H136162   4.598   4.299  11.237 -0.3099  0.0720 -0.5163
 3989TIP3    H236163   4.572   4.242  11.099 -2.2717  1.2964 -0.6840
 3990TIP3   OH236164   6.763   0.838  11.355  0.3324  0.2046 -0.4496
 3990TIP3    H136165   6.681   0.793  11.333 -0.0265  1.4120 -1.7777
 3990TIP3    H236166   6.739   0.900  11.424  0.2825  0.0654 -0.3427
 3991TIP3   OH236167   1.305   6.034  11.504 -0.6376  0.0423 -0.6021
 3991TIP3    H136168   1.353   5.991  11.433  0.4729 -0.0003  0.1405
 3991TIP3    H236169   1.225   6.067  11.463 -1.5854 -2.7383 -1.2114
 3992TIP3   OH236170   0.244   5.035  10.683  0.1853  0.2741 -0.4391
 3992TIP3    H136171   0.317   5.032  10.622  0.3074 -0.0234 -0.2794
 3992TIP3    H236172   0.177   5.087  10.638 -0.1929 -0.9539 -1.3189
 3993TIP3   OH236173   0.454   2.017  12.182 -0.3458 -0.0756  0.2774
 3993TIP3    H136174   0.457   2.095  12.238 -0.2244 -0.5218  0.9038
 3993TIP3    H236175   0.369   2.022  12.139 -0.5604  0.1298  0.7136
 3994TIP3   OH236176   0.553   5.411  13.041  0.0003 -0.2745  0.0608
 3994TIP3    H136177   0.597   5.448  13.117  1.5978  0.0065 -0.9614
 3994TIP3    H236178   0.596   5.451  12.965 -1.9998 -0.0265 -1.0210
 3995TIP3   OH236179   4.445   6.394  12.841  0.4063  0.1523 -0.2598
 3995TIP3    H136180   4.442   6.340  12.920 -2.0927 -0.6572 -0.8169
 3995TIP3    H236181   4.490   6.340  12.776  0.9211  0.1341  0.1015
 3996TIP3   OH236182   5.443   5.966  12.051 -0.5391  0.3174  0.3538
 3996TIP3    H136183   5.421   5.894  11.992 -1.3583  0.0554  0.9688
 3996TIP3    H236184   5.519   6.008  12.009 -1.1096  0.1521 -0.8974
 3997TIP3   OH236185   6.529   7.006  10.270  0.0082 -0.2098 -0.2082
 3997TIP3    H136186   6.450   6.973  10.228 -0.6769  1.1375 -0.0254
 3997TIP3    H236187   6.601   6.977  10.213 -0.4474 -2.6705  0.3597
 3998TIP3   OH236188   2.269   4.667  12.554  0.4510  0.4410  0.4625
 3998TIP3    H136189   2.230   4.583  12.578 -0.9156  0.6039 -0.9730
 3998TIP3    H236190   2.217   4.732  12.601  0.9235  0.5295  0.8657
 3999TIP3   OH236191   4.475   1.356  11.002  0.7910  0.0912  0.3044
 3999TIP3    H136192   4.399   1.331  10.949 -0.6165  0.2273  2.1782
 3999TIP3    H236193   4.467   1.305  11.082  3.5848 -1.0850 -0.0549
 4000TIP3   OH236194   1.276   6.286  10.830  0.6538 -0.3862  0.1932
 4000TIP3    H136195   1.182   6.269  10.835  0.9618 -1.9716  1.0578
 4000TIP3    H236196   1.289   6.323  10.743 -1.0095  1.6305  0.7302
 4001TIP3   OH236197   1.087   6.531  12.152  0.1854  0.2032 -0.1584
 4001TIP3    H136198   1.173   6.495  12.129 -0.0982 -0.0843 -0.8003
 4001TIP3    H236199   1.025   6.471  12.111 -0.3095  1.1695 -0.8609
 4002TIP3   OH236200   3.349   6.629  12.810  0.0827  0.2533  0.6196
 4002TIP3    H136201   3.368   6.536  12.805  0.4245  0.3145  0.7610
 4002TIP3    H236202   3.429   6.668  12.846  0.0805  0.6491  0.1933
 4003TIP3   OH236203   2.156   6.195  10.017  0.5728  0.1292  0.0538
 4003TIP3    H136204   2.220   6.257   9.981  0.5404  1.0208  1.4407
 4003TIP3    H236205   2.132   6.233  10.101 -0.9642 -0.7712  0.0426
 4004TIP3   OH236206   4.687   6.870  11.713 -0.6566  0.1098 -0.6158
 4004TIP3    H136207   4.722   6.935  11.653  1.7425 -1.0185 -0.5594
 4004TIP3    H236208   4.624   6.820  11.661  0.5124 -0.0990 -1.8775
 4005TIP3   OH236209   4.937   2.064  12.377 -0.2710 -0.3667  0.1458
 4005TIP3    H136210   4.897   2.121  12.443 -2.2294 -0.2463 -1.0565
 4005TIP3    H236211   4.914   1.976  12.405 -0.9603 -0.3238 -0.2651
 4006TIP3   OH236212   0.177   2.249  11.582  0.7044 -0.1998  0.0512
 4006TIP3    H136213   0.164   2.320  11.644  0.4209 -0.6849  0.5522
 4006TIP3    H236214   0.104   2.256  11.520 -1.1918 -1.9449  1.9270
 4007TIP3   OH236215   5.940   2.814  11.608  0.0797  0.3321  0.2832
 4007TIP3    H136216   5.877   2.872  11.564 -0.3817 -0.1475  0.3086
 4007TIP3    H236217   5.917   2.819  11.701  1.0110  1.2896  0.4852
 4008TIP3   OH236218   5.081   0.191  12.809 -0.6820 -0.3711 -0.2163
 4008TIP3    H136219   5.014   0.150  12.863 -0.8138  1.1210  0.8190
 4008TIP3    H236220   5.151   0.126  12.803 -1.0647 -0.9105  0.9892
 4009TIP3   OH236221   5.572   6.470  11.368  0.3823  0.2345 -0.0714
 4009TIP3    H136222   5.589   6.458  11.461  1.1960  0.5310 -0.1726
 4009TIP3    H236223   5.574   6.382  11.331  0.3162  0.1410  0.1469
 4010TIP3   OH236224   3.401   2.141  11.220  0.2931 -0.3555 -0.3501
 4010TIP3    H136225   3.350   2.222  11.212  0.3560 -0.2709  0.0597
 4010TIP3    H236226   3.399   2.102  11.133 -1.0814 -0.7262 -0.1709
 4011TIP3   OH236227   1.907   2.018  11.136 -0.3536  0.0183  0.2475
 4011TIP3    H136228   1.897   1.943  11.195 -0.0911 -0.4991 -0.3525
 4011TIP3    H236229   2.002   2.030  11.129 -0.3964  0.4163  0.3565
 4012TIP3   OH236230   4.655   5.097  10.968 -0.0114 -0.2126 -0.2965
 4012TIP3    H136231   4.715   5.171  10.964  0.6666 -0.6371  1.2924
 4012TIP3    H236232   4.659   5.057  10.881  0.0054  1.2810 -1.0105
 4013TIP3   OH236233   6.117   5.758  10.035  0.0431 -0.9508  0.4807
 4013TIP3    H136234   6.149   5.809   9.960  1.6033 -0.1774  1.6284
 4013TIP3    H236235   6.061   5.819  10.083 -0.4501 -1.2563  0.3094
 4014TIP3   OH236236   6.928   0.628  11.553  0.6085  0.2587  0.1343
 4014TIP3    H136237   6.844   0.664  11.580  1.2875  1.1875  1.1130
 4014TIP3    H236238   6.991   0.666  11.615  1.5793 -1.4387  0.2484
 4015TIP3   OH236239   0.621   4.548   9.970  0.3135  0.6223  0.6895
 4015TIP3    H136240   0.697   4.567  10.024  1.7980  0.4039 -1.2012
 4015TIP3    H236241   0.591   4.634   9.940  0.1373  0.6722  1.0037
 4016TIP3   OH236242   7.304   6.714  10.150  0.0781  0.4427 -0.6137
 4016TIP3    H136243   7.323   6.752  10.236  0.4793  2.1333 -1.4096
 4016TIP3    H236244   7.254   6.782  10.105 -2.3133 -1.3458 -0.9032
 4017TIP3   OH236245   4.365   2.738  11.089  0.2653  0.0909  0.1593
 4017TIP3    H136246   4.398   2.767  11.004  0.5806  0.6046  0.4553
 4017TIP3    H236247   4.441   2.740  11.147  0.0637 -0.3071  0.4491
 4018TIP3   OH236248   0.203   6.146  10.930  0.9319  0.1492  0.4111
 4018TIP3    H136249   0.288   6.144  10.887  0.3929 -0.9868 -0.6506
 4018TIP3    H236250   0.208   6.077  10.997  0.8521  0.0750  0.3418
 4019TIP3   OH236251   5.067   2.402  10.986  0.4256  0.4142  0.0457
 4019TIP3    H136252   5.108   2.487  10.974  2.2919 -0.4895 -0.3196
 4019TIP3    H236253   5.086   2.354  10.905  0.7137 -0.8513  0.8358
 4020TIP3   OH236254   3.740   1.530  11.864 -0.2018  0.6703  0.1676
 4020TIP3    H136255   3.701   1.614  11.890  2.5944  1.7294  1.2770
 4020TIP3    H236256   3.720   1.523  11.770 -2.8430  1.1567  0.6089
 4021TIP3   OH236257   7.243   6.153  10.526 -0.1919  0.0396 -0.0626
 4021TIP3    H136258   7.317   6.188  10.575  0.0246 -2.1471  1.3199
 4021TIP3    H236259   7.178   6.132  10.593 -1.3300  0.2476 -1.0803
 4022TIP3   OH236260   6.478   7.151  11.525 -0.8348  0.0624 -0.1988
 4022TIP3    H136261   6.524   7.228  11.493 -1.3549 -0.1088 -1.4138
 4022TIP3    H236262   6.522   7.129  11.607 -0.0419  1.0576 -0.3392
 4023TIP3   OH236263   7.204   4.080  11.619 -0.1359 -0.4615 -0.4639
 4023TIP3    H136264   7.169   4.134  11.548  1.5389  0.8774 -0.3466
 4023TIP3    H236265   7.253   4.142  11.674  0.9895 -1.9319  0.2744
 4024TIP3   OH236266   6.671   0.608  12.141  0.0585  0.1422 -0.8465
 4024TIP3    H136267   6.657   0.582  12.050  0.9395  1.1887 -1.3023
 4024TIP3    H236268   6.730   0.542  12.176 -2.1780 -1.6951 -0.2472
 4025TIP3   OH236269   5.215   3.972  11.448  0.1556  0.0301  0.4139
 4025TIP3    H136270   5.285   3.950  11.509  0.3133 -0.4534  0.0556
 4025TIP3    H236271   5.207   4.068  11.455 -0.0737 -0.0549  1.4556
 4026TIP3   OH236272   2.274   2.898  10.506 -0.3114 -0.1708  0.2238
 4026TIP3    H136273   2.240   2.858  10.426  1.9577 -0.7787 -0.5145
 4026TIP3    H236274   2.302   2.823  10.559  0.3980  0.3218  0.5475
 4027TIP3   OH236275   6.006   7.411  11.328 -0.1360 -0.1437  0.6227
 4027TIP3    H136276   6.046   7.459  11.256 -2.1776 -0.6786 -0.9642
 4027TIP3    H236277   6.078   7.366  11.371  1.3148  1.3067 -0.1878
 4028TIP3   OH236278   2.759   7.453  12.280  0.3667 -0.9690 -0.3480
 4028TIP3    H136279   2.749   7.496  12.365  0.2883 -0.7737 -0.4553
 4028TIP3    H236280   2.850   7.469  12.256  0.0733  0.0462 -0.8715
 4029TIP3   OH236281   4.569   5.392  11.308 -0.0561  0.1312 -0.0199
 4029TIP3    H136282   4.623   5.344  11.371 -2.1740  1.0830  2.7047
 4029TIP3    H236283   4.543   5.472  11.353 -2.6280  0.3595 -1.6614
 4030TIP3   OH236284   5.528   6.704  11.755  0.0802 -0.4984  0.1247
 4030TIP3    H136285   5.541   6.613  11.728 -0.4721 -0.2999 -0.8637
 4030TIP3    H236286   5.481   6.745  11.682  0.8968  0.7598  0.2680
 4031TIP3   OH236287   5.241   4.747  12.767  0.6230 -0.8315  0.0598
 4031TIP3    H136288   5.288   4.821  12.806  2.2200 -1.4061 -0.6910
 4031TIP3    H236289   5.257   4.675  12.827  0.2366 -0.9056  0.0739
 4032TIP3   OH236290   2.131   6.397  11.622  0.3802 -0.0097  0.2033
 4032TIP3    H136291   2.139   6.492  11.617 -1.8145  0.1791 -0.7983
 4032TIP3    H236292   2.049   6.382  11.668  0.8217 -1.4502  0.5823
 4033TIP3   OH236293   2.372   4.755  10.698 -0.3294 -0.6836  0.5917
 4033TIP3    H136294   2.379   4.778  10.605 -0.2230  1.3529  1.0525
 4033TIP3    H236295   2.441   4.807  10.741  0.3949 -2.4644  1.6910
 4034TIP3   OH236296   6.849   1.952  12.273  0.3928 -0.5556  0.7079
 4034TIP3    H136297   6.835   1.928  12.365 -2.6899  0.7716  0.7243
 4034TIP3    H236298   6.817   1.877  12.224 -0.6866 -0.1560  0.7672
 4035TIP3   OH236299   6.737   0.045  11.119 -0.6082  0.0448 -0.1399
 4035TIP3    H136300   6.645   0.017  11.118 -1.0841  1.5591 -0.6720
 4035TIP3    H236301   6.745   0.096  11.199 -1.1611  2.7505 -1.7012
 4036TIP3   OH236302   6.482   0.499  10.464 -1.0619  0.0465 -0.0840
 4036TIP3    H136303   6.474   0.421  10.409 -2.6395 -0.0820  0.2884
 4036TIP3    H236304   6.400   0.547  10.449  0.9499  3.1723 -2.5605
 4037TIP3   OH236305   0.498   4.542  12.860 -0.4460  0.3093  0.2547
 4037TIP3    H136306   0.511   4.637  12.852 -0.3118  0.2211 -0.8227
 4037TIP3    H236307   0.418   4.533  12.911 -1.5625  1.0633 -1.2495
 4038TIP3   OH236308   2.867   2.454  11.262 -0.2169 -0.5126  0.5931
 4038TIP3    H136309   2.887   2.444  11.169 -0.6798 -0.4265  0.4817
 4038TIP3    H236310   2.855   2.548  11.274 -3.0533 -0.7152  0.1061
 4039TIP3   OH236311   4.932   7.070  11.011  0.6129  0.3629 -0.0374
 4039TIP3    H136312   5.009   7.098  10.962  2.5957 -0.5794  2.2927
 4039TIP3    H236313   4.894   6.999  10.959  1.9530  0.1348 -0.7412
 4040TIP3   OH236314   6.598   0.363  11.242 -0.8992  0.3718  0.2947
 4040TIP3    H136315   6.603   0.451  11.280  2.1445  2.2731 -3.7597
 4040TIP3    H236316   6.679   0.321  11.270  0.3100  1.0114 -1.9591
 4041TIP3   OH236317   0.938   4.295  10.842 -0.1990  0.1830  0.5475
 4041TIP3    H136318   0.967   4.214  10.885  3.3853  0.8439 -0.2350
 4041TIP3    H236319   0.848   4.308  10.872  0.1551 -2.4050  3.1985
 4042TIP3   OH236320   5.229   5.098  11.378  0.0512  0.0582 -0.2410
 4042TIP3    H136321   5.228   5.022  11.320 -1.1148  0.8860 -1.3558
 4042TIP3    H236322   5.293   5.158  11.339 -0.6816  0.5866 -0.6545
 4043TIP3   OH236323   5.459   1.992  11.793 -0.7064  0.3451  0.1715
 4043TIP3    H136324   5.438   2.030  11.878 -0.5213  0.0658  0.3459
 4043TIP3    H236325   5.516   1.918  11.814 -1.0395 -0.0067 -0.1659
 4044TIP3   OH236326   1.645   7.581  11.265  0.1005  0.4027 -0.2742
 4044TIP3    H136327   1.687   7.584  11.179  0.2653 -0.9681 -0.2564
 4044TIP3    H236328   1.706   7.626  11.323  0.6396  0.1272 -0.6171
 4045TIP3   OH236329   1.042   0.800  11.869  0.0116 -0.3113  0.3192
 4045TIP3    H136330   1.116   0.791  11.929  0.1891 -0.7893  0.0283
 4045TIP3    H236331   1.063   0.744  11.795 -0.2135  0.2686 -0.1915
 4046TIP3   OH236332   1.120   0.204   9.900  0.2353 -0.1226  0.0502
 4046TIP3    H136333   1.208   0.241   9.904 -0.1044  0.9048 -1.4423
 4046TIP3    H236334   1.064   0.277   9.876 -0.9604 -0.8882  0.4349
 4047TIP3   OH236335   2.595   2.784  12.412  0.1060  0.3820 -0.5326
 4047TIP3    H136336   2.559   2.828  12.334 -0.3326 -0.2602 -0.7010
 4047TIP3    H236337   2.599   2.853  12.478  1.9929  1.3393 -1.5577
 4048TIP3   OH236338   2.314   4.384  12.355 -0.0783 -0.0502 -0.2554
 4048TIP3    H136339   2.353   4.420  12.275  0.0496  3.2436  1.1601
 4048TIP3    H236340   2.387   4.371  12.414 -0.4650  0.3253  0.3161
 4049TIP3   OH236341   0.407   4.586  11.010 -0.2147  0.3811 -0.3406
 4049TIP3    H136342   0.348   4.511  11.014 -1.3850  1.2788 -0.2708
 4049TIP3    H236343   0.437   4.600  11.100 -0.0520  0.0505 -0.3435
 4050TIP3   OH236344   5.724   3.956  10.975 -0.7088 -0.0614 -0.3140
 4050TIP3    H136345   5.777   3.899  11.032 -1.4650  0.1746  0.6441
 4050TIP3    H236346   5.769   4.040  10.978 -1.9999  0.6281  1.8694
 4051TIP3   OH236347   3.884   6.696  12.357 -0.1116  0.6747 -0.0568
 4051TIP3    H136348   3.822   6.623  12.355 -1.6206  1.8969 -0.6696
 4051TIP3    H236349   3.969   6.657  12.338 -1.1598 -0.6687 -2.4855
 4052TIP3   OH236350   3.463   5.748  11.056 -0.3702  0.2974 -0.1623
 4052TIP3    H136351   3.559   5.751  11.056 -0.2471 -0.6522 -2.8460
 4052TIP3    H236352   3.436   5.839  11.073  1.0626  0.8392 -0.6015
 4053TIP3   OH236353   2.457   2.968  11.455 -0.2173 -0.0678 -0.0893
 4053TIP3    H136354   2.393   2.898  11.464 -0.0107 -0.1048  1.4470
 4053TIP3    H236355   2.537   2.932  11.494 -0.1703  1.0847  0.9318
 4054TIP3   OH236356   5.248   5.924  10.927 -0.1421 -0.8380  0.0576
 4054TIP3    H136357   5.187   5.850  10.918  0.4560 -1.3784  0.3351
 4054TIP3    H236358   5.335   5.885  10.912  0.0678  0.1358 -1.5018
 4055TIP3   OH236359   0.116   4.610  11.778 -0.2358  0.2058 -0.4195
 4055TIP3    H136360   0.172   4.583  11.705 -2.3070  0.4424 -2.2171
 4055TIP3    H236361   0.171   4.670  11.830  1.7858 -1.1330 -0.8976
 4056TIP3   OH236362   2.157   3.620  10.801 -0.2322 -0.0909 -0.2465
 4056TIP3    H136363   2.073   3.665  10.810 -0.3036 -0.4579  1.1814
 4056TIP3    H236364   2.187   3.607  10.891  0.2356 -2.0399 -0.6335
 4057TIP3   OH236365   0.911   2.172  11.628  0.2538 -0.0914 -0.2384
 4057TIP3    H136366   0.928   2.094  11.681 -1.5706 -1.4391 -1.4981
 4057TIP3    H236367   0.997   2.215  11.621  0.9523 -0.9646  1.9964
 4058TIP3   OH236368   3.110   7.301  12.001 -0.2795  0.2402 -0.0432
 4058TIP3    H136369   3.025   7.276  12.039  0.1270  1.9746  2.1961
 4058TIP3    H236370   3.089   7.369  11.937 -0.5884  0.8124  0.6518
 4059TIP3   OH236371   1.485   7.422  11.582  0.0000 -0.1468  0.2104
 4059TIP3    H136372   1.437   7.480  11.640 -0.6901  0.3068 -0.7848
 4059TIP3    H236373   1.575   7.453  11.586  0.1310 -0.6353  1.6369
 4060TIP3   OH236374   0.864   2.525  10.854  0.0461 -0.3691 -0.1876
 4060TIP3    H136375   0.866   2.466  10.779  0.5238 -1.2655  0.5055
 4060TIP3    H236376   0.815   2.478  10.921  0.9550 -0.2577  0.5926
 4061TIP3   OH236377   0.213   0.868  10.037  0.0465 -0.2489 -0.6329
 4061TIP3    H136378   0.154   0.911   9.975  0.4749  0.6978 -0.3954
 4061TIP3    H236379   0.171   0.880  10.122 -0.7536 -1.9065 -0.7500
 4062TIP3   OH236380   7.413   4.237  11.764  0.3609 -0.1070  0.2269
 4062TIP3    H136381   7.350   4.195  11.822  0.3953 -1.0429 -0.3948
 4062TIP3    H236382   7.419   4.327  11.796 -1.3955  0.0534  0.2014
 4063TIP3   OH236383   5.376   2.242  10.357  0.1588  0.4926 -0.0370
 4063TIP3    H136384   5.436   2.223  10.428 -0.0261 -0.3534 -0.0872
 4063TIP3    H236385   5.342   2.156  10.331  1.2681  0.5979 -2.0739
 4064TIP3   OH236386   7.415   5.166  10.175  0.0540  0.4084  0.4154
 4064TIP3    H136387   7.449   5.187  10.262 -1.6329 -0.6373  1.4021
 4064TIP3    H236388   7.466   5.090  10.147  0.3450  0.5091  0.6730
 4065TIP3   OH236389   5.820   2.122  12.406 -0.1629 -0.0956 -0.0026
 4065TIP3    H136390   5.768   2.190  12.362 -1.4481 -1.0497  0.0040
 4065TIP3    H236391   5.902   2.120  12.356  0.1522  1.8251  0.3281
 4066TIP3   OH236392   5.119   1.597  10.884 -0.2512 -0.0162  0.2748
 4066TIP3    H136393   5.061   1.594  10.960  0.2394  0.9931  0.6985
 4066TIP3    H236394   5.197   1.642  10.915 -0.4485  1.3510 -1.0972
 4067TIP3   OH236395   5.120   2.674  12.551 -0.1370 -0.1178  0.2788
 4067TIP3    H136396   5.054   2.694  12.485  1.1671  1.2183 -0.6967
 4067TIP3    H236397   5.195   2.642  12.501  0.9949  1.2285  1.0525
 4068TIP3   OH236398   0.733   7.409  10.671  0.0810 -0.1360  0.7315
 4068TIP3    H136399   0.828   7.418  10.666  0.1114  0.0041  1.5539
 4068TIP3    H236400   0.719   7.316  10.688  0.1490  0.1470  2.4451
 4069TIP3   OH236401   6.553   4.072  12.350  0.2612 -0.2425 -0.0884
 4069TIP3    H136402   6.565   4.165  12.366 -1.0785  0.0756 -0.7922
 4069TIP3    H236403   6.498   4.068  12.272 -0.5854 -1.5982  0.5353
 4070TIP3   OH236404   4.940   5.661  11.238 -0.8595  0.2163  0.0883
 4070TIP3    H136405   4.879   5.696  11.173 -1.6011 -0.5141  0.3609
 4070TIP3    H236406   4.941   5.726  11.308 -0.1787  0.9269 -0.5775
 4071TIP3   OH236407   5.194   6.022  12.093 -0.1970  0.0040 -0.2636
 4071TIP3    H136408   5.171   5.938  12.052  0.8952  0.4970 -2.0338
 4071TIP3    H236409   5.289   6.027  12.085 -0.2118  1.2622  0.1292
 4072TIP3   OH236410   3.648   1.817  11.876 -0.4004  0.0289  0.2199
 4072TIP3    H136411   3.707   1.805  11.801 -3.1492  0.2082 -2.1293
 4072TIP3    H236412   3.614   1.905  11.866 -3.0786 -0.9586 -0.1308
 4073TIP3   OH236413   6.162   3.290  11.201  0.3839 -0.2467  0.2485
 4073TIP3    H136414   6.189   3.381  11.210 -0.0238 -0.3264  3.1187
 4073TIP3    H236415   6.079   3.294  11.153  1.7136  0.5839 -2.1314
 4074TIP3   OH236416   6.702   4.731  12.558  0.5084 -0.0698  0.1400
 4074TIP3    H136417   6.698   4.810  12.611  1.0217  1.0741 -1.4382
 4074TIP3    H236418   6.616   4.725  12.516  0.2584 -0.7109  0.7263
 4075TIP3   OH236419   6.982   4.291  12.469  0.0392  0.0789 -0.2111
 4075TIP3    H136420   7.030   4.259  12.546 -0.4082  0.8146  0.3871
 4075TIP3    H236421   6.965   4.383  12.488 -2.1717 -0.2922 -0.1188
 4076TIP3   OH236422   2.348   6.517  12.178  0.8456  0.3348 -0.3841
 4076TIP3    H136423   2.284   6.541  12.112  0.1325  0.6645  0.3999
 4076TIP3    H236424   2.396   6.597  12.196 -1.5222  1.3470  2.2196
 4077TIP3   OH236425   0.206   5.250  11.645 -0.3106  0.7705  0.4392
 4077TIP3    H136426   0.124   5.246  11.597  0.2915 -0.2201 -0.5498
 4077TIP3    H236427   0.192   5.196  11.723 -0.6305  0.7282  0.3513
 4078TIP3   OH236428   6.388   7.040  11.269 -0.1108  0.6969  0.0271
 4078TIP3    H136429   6.313   7.067  11.322 -0.2052  0.0484  0.2279
 4078TIP3    H236430   6.464   7.073  11.317 -0.2049  0.2589  0.4892
 4079TIP3   OH236431   7.289   7.304  11.143 -0.8064 -0.0319  0.0728
 4079TIP3    H136432   7.265   7.395  11.158 -0.2658 -0.0074  0.8283
 4079TIP3    H236433   7.205   7.257  11.141 -1.0312  0.3176  0.8502
 4080TIP3   OH236434   0.757   6.541  10.687 -0.4986 -0.5540  0.2046
 4080TIP3    H136435   0.841   6.568  10.650  0.1246 -1.5724  0.8144
 4080TIP3    H236436   0.695   6.546  10.615  0.1272  0.0173 -0.3029
 4081TIP3   OH236437   3.788   7.246  11.177  0.6324 -0.3578  0.5128
 4081TIP3    H136438   3.709   7.213  11.135  1.1709  0.3428 -1.1711
 4081TIP3    H236439   3.774   7.341  11.184  1.3751 -0.1961  0.0043
 4082TIP3   OH236440   0.121   1.722  11.957 -0.0153 -0.5694 -0.3231
 4082TIP3    H136441   0.169   1.655  12.006 -2.0434 -3.2956 -1.7800
 4082TIP3    H236442   0.062   1.761  12.020  1.4748  0.1914  0.6469
 4083TIP3   OH236443   0.157   5.773  10.881  0.0197  0.0659 -0.3839
 4083TIP3    H136444   0.124   5.688  10.851 -0.7044  0.7736 -1.6437
 4083TIP3    H236445   0.080   5.828  10.889  0.4017  0.4456  1.1085
 4084TIP3   OH236446   5.460   3.940  10.199 -0.3402 -0.9607  0.0766
 4084TIP3    H136447   5.438   3.979  10.283 -0.9023  0.0937 -0.5374
 4084TIP3    H236448   5.413   3.857  10.199  0.8020 -1.6514  1.3630
 4085TIP3   OH236449   1.177   0.138  12.538  0.2399  0.2834 -0.0140
 4085TIP3    H136450   1.107   0.132  12.603  1.4860  0.2150  1.3641
 4085TIP3    H236451   1.131   0.152  12.455 -1.5425 -2.2555  0.4263
 4086TIP3   OH236452   1.380   0.090  11.681 -0.4475 -0.3397 -0.0882
 4086TIP3    H136453   1.426   0.173  11.691  0.5124 -0.9327  0.4674
 4086TIP3    H236454   1.321   0.105  11.607 -0.2281  0.8056 -0.0484
 4087TIP3   OH236455   5.010   4.126  12.018  0.6195  0.0384  0.0572
 4087TIP3    H136456   5.081   4.088  12.069  0.9903 -0.4575 -0.8091
 4087TIP3    H236457   4.972   4.051  11.971 -0.1809  0.3702  0.1602
 4088TIP3   OH236458   2.546   5.618  11.645  0.0907  0.6106  0.0536
 4088TIP3    H136459   2.500   5.542  11.680  0.9619 -0.7616 -1.6568
 4088TIP3    H236460   2.636   5.610  11.677 -0.3275  2.2942  1.8676
 4089TIP3   OH236461   4.819   2.634  11.403  0.0350  0.1646  0.4219
 4089TIP3    H136462   4.826   2.575  11.328 -2.2275 -0.3936  0.6063
 4089TIP3    H236463   4.904   2.680  11.404  1.1456 -1.7077 -0.8355
 4090TIP3   OH236464   2.199   1.117  11.742 -0.3878  0.0692  0.4209
 4090TIP3    H136465   2.254   1.187  11.778 -0.9955  0.2809  0.9577
 4090TIP3    H236466   2.250   1.037  11.758  0.2834  0.3715 -0.1499
 4091TIP3   OH236467   2.230   2.823  11.629  0.4053  0.1392 -0.2258
 4091TIP3    H136468   2.137   2.844  11.639  0.5280  0.3656  0.5009
 4091TIP3    H236469   2.270   2.852  11.712  1.2071  0.5335 -0.7396
 4092TIP3   OH236470   7.328   5.907  12.648  0.2451  0.6016 -0.0565
 4092TIP3    H136471   7.303   5.912  12.555 -0.7666 -0.0796  0.1636
 4092TIP3    H236472   7.422   5.893  12.647  0.0790 -0.6562 -1.0327
 4093TIP3   OH236473   3.356   4.649  12.076  0.1699 -0.0055  0.3974
 4093TIP3    H136474   3.405   4.724  12.043 -1.4778  0.9510  0.0543
 4093TIP3    H236475   3.313   4.612  11.999  0.5992 -1.0418  0.6399
 4094TIP3   OH236476   0.131   5.934  12.329  0.0085 -0.0970  0.0248
 4094TIP3    H136477   0.201   5.869  12.336  0.2797  0.1325 -0.4874
 4094TIP3    H236478   0.174   6.018  12.344 -0.3779 -0.0437  0.8756
 4095TIP3   OH236479   7.675   5.806  11.153 -0.2446 -0.1128  0.2077
 4095TIP3    H136480   7.599   5.819  11.096  0.7949  1.1814 -0.9776
 4095TIP3    H236481   7.711   5.722  11.126  0.2422  0.4911 -1.0985
 4096TIP3   OH236482   6.053   2.047  10.069  0.4649 -0.9111  0.0257
 4096TIP3    H136483   5.972   2.022  10.025  0.4932 -0.8484 -0.0632
 4096TIP3    H236484   6.115   2.063   9.997  0.2161  0.2023  0.0426
 4097TIP3   OH236485   4.887   6.653  11.582 -0.0168 -0.1748 -0.1895
 4097TIP3    H136486   4.976   6.687  11.587  0.1192 -0.6350  1.0334
 4097TIP3    H236487   4.838   6.721  11.536  0.2191  1.8005  2.2220
 4098TIP3   OH236488   4.916   5.093  12.655 -0.0742 -0.0455  0.3247
 4098TIP3    H136489   5.004   5.057  12.647  0.1307  0.6878 -1.0903
 4098TIP3    H236490   4.916   5.170  12.598 -1.9702 -0.6664 -0.6182
 4099TIP3   OH236491   3.479   2.756  11.162 -0.0205 -0.0683  0.0105
 4099TIP3    H136492   3.567   2.765  11.126 -0.2176 -0.7430 -0.6680
 4099TIP3    H236493   3.444   2.845  11.162  1.8548  0.8373  3.5629
 4100TIP3   OH236494   4.936   5.486  12.123 -0.4035  0.6726 -0.0944
 4100TIP3    H136495   4.988   5.487  12.043  0.4202 -0.4660  0.3955
 4100TIP3    H236496   4.981   5.547  12.182 -1.0583  1.5753 -0.5098
 4101TIP3   OH236497   6.598   6.806  11.095  0.1754  0.3115 -0.1007
 4101TIP3    H136498   6.631   6.890  11.127  3.3703 -1.9862  3.5950
 4101TIP3    H236499   6.628   6.801  11.004  0.5297  2.8207 -0.1859
 4102TIP3   OH236500   4.398   2.048  10.744  0.1317  0.4071  0.3553
 4102TIP3    H136501   4.462   2.053  10.673  0.2005  0.2929  0.4089
 4102TIP3    H236502   4.324   2.100  10.713 -0.2935 -0.5390 -0.2825
 4103TIP3   OH236503   0.240   5.660  11.270 -0.3005 -0.0908 -0.5227
 4103TIP3    H136504   0.319   5.616  11.302  0.4079  0.1486 -1.8832
 4103TIP3    H236505   0.191   5.592  11.223 -0.1276  0.1175 -1.0136
 4104TIP3   OH236506   3.639   5.430  10.178  0.1442 -0.1479 -0.6169
 4104TIP3    H136507   3.619   5.523  10.194 -0.7162 -0.3946 -0.1760
 4104TIP3    H236508   3.557   5.385  10.198  0.9772 -1.1707  0.6585
 4105TIP3   OH236509   6.114   0.119  10.894  0.0232 -0.2153 -0.2268
 4105TIP3    H136510   6.158   0.034  10.889  1.0824  0.3851 -1.7831
 4105TIP3    H236511   6.031   0.100  10.938 -0.2711 -2.2606 -1.5164
 4106TIP3   OH236512   3.266   6.123  10.204  0.0567  1.0613  0.1644
 4106TIP3    H136513   3.194   6.112  10.266 -1.5266  1.3222 -1.5280
 4106TIP3    H236514   3.224   6.123  10.118  2.0520  1.6355 -0.8840
 4107TIP3   OH236515   4.920   1.875  11.472  0.2880  0.1807  0.0123
 4107TIP3    H136516   5.016   1.871  11.467  0.2406 -0.7149 -0.3641
 4107TIP3    H236517   4.893   1.784  11.481 -0.5599  0.3942 -0.3171
 4108TIP3   OH236518   0.037   4.622  12.160  0.3816  0.2195  0.2005
 4108TIP3    H136519  -0.002   4.567  12.228  0.5973 -0.4707 -0.2260
 4108TIP3    H236520   0.110   4.666  12.203 -0.1185  0.5881  0.6845
 4109TIP3   OH236521   0.849   5.655  10.017 -0.1265 -0.8532  0.1640
 4109TIP3    H136522   0.779   5.719  10.029  0.3599 -0.4018  0.6024
 4109TIP3    H236523   0.924   5.707   9.989 -0.5207 -1.5478 -2.5331
 4110TIP3   OH236524   1.134   4.727  11.005  1.0317  0.1671 -0.5297
 4110TIP3    H136525   1.062   4.682  10.962  0.0035  1.1292  0.1470
 4110TIP3    H236526   1.197   4.657  11.026  0.0262 -0.7662 -0.5668
 4111TIP3   OH236527   5.686   5.876  12.457 -0.4819 -0.2924 -0.0921
 4111TIP3    H136528   5.650   5.924  12.532  0.1759  0.7708 -0.4457
 4111TIP3    H236529   5.628   5.899  12.384 -1.1570 -1.3740  0.0794
 4112TIP3   OH236530   4.675   0.771  10.926  0.2563  0.6545  0.2510
 4112TIP3    H136531   4.667   0.761  10.831 -3.4568 -1.7779  0.6126
 4112TIP3    H236532   4.603   0.830  10.949  0.7628  0.7671  1.5935
 4113TIP3   OH236533   6.858   6.047  12.027  0.0374  0.3388  0.3452
 4113TIP3    H136534   6.793   6.085  11.969  1.6443  0.4150 -1.5066
 4113TIP3    H236535   6.874   6.115  12.093 -2.3914 -0.0637  1.4668
 4114TIP3   OH236536   5.902   4.472  11.313 -0.7569 -0.4786 -0.4208
 4114TIP3    H136537   5.913   4.379  11.290  0.8772 -0.1296 -1.2007
 4114TIP3    H236538   5.959   4.485  11.389 -2.4149 -0.5076  0.8714
 4115TIP3   OH236539   3.328   2.059  10.981 -0.0613  0.1031  0.1887
 4115TIP3    H136540   3.331   1.981  10.925  0.1460  1.7123 -2.2073
 4115TIP3    H236541   3.347   2.131  10.922 -2.7911  2.2872  1.7212
 4116TIP3   OH236542   5.749   5.925  10.269 -0.1952 -0.2223  0.0172
 4116TIP3    H136543   5.673   5.957  10.317  0.6327  1.0225  0.5440
 4116TIP3    H236544   5.716   5.850  10.220 -1.5482 -0.2599  0.9258
 4117TIP3   OH236545   2.206   3.632  11.087 -0.3640  0.5200  0.1307
 4117TIP3    H136546   2.184   3.720  11.116  1.3029  0.5996  1.2824
 4117TIP3    H236547   2.150   3.575  11.140 -0.4317  0.8353  0.4040
 4118TIP3   OH236548   1.779   6.143  11.160 -0.0906 -0.1505  0.5047
 4118TIP3    H136549   1.832   6.103  11.229  1.0407 -0.0646 -0.2773
 4118TIP3    H236550   1.709   6.080  11.143 -0.6541  0.0210  2.0034
 4119TIP3   OH236551   0.460   4.922  11.648 -0.0342 -0.4028 -0.4063
 4119TIP3    H136552   0.449   4.827  11.642  0.2236 -0.4514 -0.0895
 4119TIP3    H236553   0.396   4.957  11.585 -1.3351 -0.7228  0.6948
 4120TIP3   OH236554   4.291   4.391  10.435  0.3999 -1.0657  0.3509
 4120TIP3    H136555   4.289   4.295  10.438 -0.4873 -1.0443  1.0804
 4120TIP3    H236556   4.360   4.412  10.373  2.0590 -2.1679  1.7190
 4121TIP3   OH236557   0.363   6.910  12.542 -0.3116  0.5156 -0.2118
 4121TIP3    H136558   0.444   6.894  12.591  0.2734 -1.4467 -1.6566
 4121TIP3    H236559   0.301   6.846  12.577 -0.8557  1.1597  0.0185
 4122TIP3   OH236560   0.638   5.516  11.720 -0.3162 -0.6350 -0.4924
 4122TIP3    H136561   0.697   5.570  11.668  0.4113 -1.0843 -0.1487
 4122TIP3    H236562   0.565   5.573  11.741  0.1333  0.0178 -0.6803
 4123TIP3   OH236563   4.233   7.036  13.136 -0.4194  0.8948 -0.1235
 4123TIP3    H136564   4.256   6.943  13.124 -0.0695  0.9916 -0.2151
 4123TIP3    H236565   4.290   7.066  13.206  1.6461  1.8088 -2.0805
 4124TIP3   OH236566   5.252   6.520  11.948  0.8132 -0.1602  0.1215
 4124TIP3    H136567   5.250   6.536  11.853  3.8900  1.4625  0.2023
 4124TIP3    H236568   5.223   6.429  11.958 -1.2156  0.1399 -2.1596
 4125TIP3   OH236569   7.240   7.606  11.414 -0.1612 -0.3818  0.0466
 4125TIP3    H136570   7.328   7.569  11.407 -0.5558 -1.4220  0.4297
 4125TIP3    H236571   7.204   7.599  11.326  0.9153  2.1690 -0.7110
 4126TIP3   OH236572   2.374   3.990  12.157  0.1190 -0.2002  0.0012
 4126TIP3    H136573   2.296   3.997  12.103  0.3806 -1.0006 -0.4993
 4126TIP3    H236574   2.401   3.898  12.150  0.3577 -0.2493  1.2169
 4127TIP3   OH236575   1.948   6.821  10.825 -0.4495 -0.7158  0.4043
 4127TIP3    H136576   2.042   6.808  10.839  0.3277 -0.0456 -3.1518
 4127TIP3    H236577   1.915   6.854  10.908  2.6247 -0.1217  1.5043
 4128TIP3   OH236578   0.889   5.491  11.863 -0.2068 -0.3004 -0.0100
 4128TIP3    H136579   0.796   5.506  11.845  0.0638 -0.1773 -1.4489
 4128TIP3    H236580   0.907   5.406  11.824  0.9360  0.9919 -2.5710
 4129TIP3   OH236581   0.004   3.926  10.069 -0.2194 -0.0251 -0.4495
 4129TIP3    H136582   0.063   4.001  10.077  0.7891 -0.9365  1.4710
 4129TIP3    H236583  -0.083   3.964  10.076  0.2722  0.9925  0.6972
 4130TIP3   OH236584   2.670   1.662  12.356  0.3306  0.2320 -0.4891
 4130TIP3    H136585   2.598   1.677  12.418 -0.5261 -1.9104 -0.8876
 4130TIP3    H236586   2.645   1.712  12.279  1.8741  3.7349  1.0768
 4131TIP3   OH236587   0.095   0.967  11.463 -0.4234 -0.0275  0.3078
 4131TIP3    H136588   0.092   0.934  11.374 -2.0401  0.4974  0.1355
 4131TIP3    H236589   0.023   1.030  11.468  0.7117  1.2594  1.4726
 4132TIP3   OH236590   1.699   4.961  12.126  0.2295 -0.5080  0.2430
 4132TIP3    H136591   1.754   4.885  12.142  0.5211 -0.4984 -0.6810
 4132TIP3    H236592   1.752   5.019  12.072 -0.4074 -0.1620 -0.0292
 4133TIP3   OH236593   6.447   1.092  11.709  0.2014 -0.3449  0.1853
 4133TIP3    H136594   6.389   1.025  11.746  2.4460 -0.6473  3.5512
 4133TIP3    H236595   6.433   1.168  11.764  0.3110  0.8443 -1.3645
 4134TIP3   OH236596   6.432   5.608  12.986  0.2668  0.3294 -0.0891
 4134TIP3    H136597   6.466   5.682  12.935  0.3878 -0.2171 -0.8147
 4134TIP3    H236598   6.500   5.591  13.052  0.3568  0.6928 -0.0849
 4135TIP3   OH236599   6.691   3.308  12.537 -0.0375 -0.0378 -0.1476
 4135TIP3    H136600   6.604   3.269  12.533 -0.3131  0.3047  1.8420
 4135TIP3    H236601   6.750   3.235  12.515 -0.7567 -0.4707 -0.7028
 4136TIP3   OH236602   2.922   6.650  10.955 -0.3843  0.2432 -0.1104
 4136TIP3    H136603   2.904   6.598  10.877  2.7125  1.1033 -1.5623
 4136TIP3    H236604   3.001   6.611  10.992  1.3388  3.0336 -0.5788
 4137TIP3   OH236605   5.853   5.234  11.951  0.0965  0.1097 -0.2088
 4137TIP3    H136606   5.838   5.172  12.023 -1.5424  2.1405  1.3279
 4137TIP3    H236607   5.885   5.180  11.879 -3.1854 -2.9015  0.3265
 4138TIP3   OH236608   2.129   4.421  12.573 -0.5885 -0.2863  0.3640
 4138TIP3    H136609   2.074   4.345  12.557 -1.1374  0.2112 -0.1675
 4138TIP3    H236610   2.195   4.418  12.503 -0.3726 -0.4826  0.5736
 4139TIP3   OH236611   2.197   6.181  11.145  0.1761 -0.4419  0.0022
 4139TIP3    H136612   2.279   6.180  11.094  1.7473 -1.1485  2.3605
 4139TIP3    H236613   2.162   6.092  11.136 -0.8236  0.0888 -1.6738
 4140TIP3   OH236614   6.925   4.665  10.633 -0.1258  0.2450 -0.6645
 4140TIP3    H136615   6.961   4.586  10.592  0.3598 -0.0633  0.3427
 4140TIP3    H236616   6.846   4.684  10.582  0.8010  0.2482 -2.1536
 4141TIP3   OH236617   5.667   7.120  12.913  0.2799  0.0099 -0.0059
 4141TIP3    H136618   5.753   7.079  12.921 -0.0217 -0.4399  1.0844
 4141TIP3    H236619   5.683   7.213  12.930  0.5107 -0.1226  0.5312
 4142TIP3   OH236620   7.363   6.064   9.915 -0.0232  0.0893  0.1385
 4142TIP3    H136621   7.440   6.079   9.860 -0.4191  0.6941 -0.2647
 4142TIP3    H236622   7.391   6.089  10.003 -0.0607  1.3022 -0.1789
 4143TIP3   OH236623   4.060   2.834  10.658 -0.7955  0.4066 -0.6782
 4143TIP3    H136624   4.039   2.900  10.592 -0.7577  0.0610 -1.0428
 4143TIP3    H236625   4.156   2.827  10.654 -0.6719  1.3273  0.3424
 4144TIP3   OH236626   0.825   3.044  10.959 -0.1148 -0.2990  0.0688
 4144TIP3    H136627   0.752   3.038  11.021  0.4322 -1.1660  0.6671
 4144TIP3    H236628   0.784   3.048  10.873 -0.8880  0.6452  0.4594
 4145TIP3   OH236629   4.554   6.290  12.121 -0.7449 -0.4503  0.1766
 4145TIP3    H136630   4.533   6.296  12.027  0.0802  0.3538  0.0268
 4145TIP3    H236631   4.474   6.316  12.165 -1.2859 -1.2722 -0.2882
 4146TIP3   OH236632   1.647   1.800  11.536  0.8213 -0.0077 -0.0455
 4146TIP3    H136633   1.692   1.722  11.569 -0.9329  0.1717  3.2545
 4146TIP3    H236634   1.564   1.767  11.500  1.6211  0.0731 -2.0962
 4147TIP3   OH236635   2.009   3.845  10.270 -0.2128  0.3673 -0.2912
 4147TIP3    H136636   2.059   3.796  10.204 -0.5360 -0.4387  0.0451
 4147TIP3    H236637   1.999   3.784  10.342  0.1819  1.2666  0.5441
 4148TIP3   OH236638   2.626   2.916  10.347 -0.2342  0.1280 -0.1260
 4148TIP3    H136639   2.608   2.942  10.257 -1.0005  0.5411  0.1403
 4148TIP3    H236640   2.652   2.824  10.340 -0.3279  0.1438 -0.7614
 4149TIP3   OH236641   2.815   5.788  11.805  0.1214  0.8203  0.1036
 4149TIP3    H136642   2.751   5.800  11.876  0.7166  0.2217  0.7533
 4149TIP3    H236643   2.819   5.693  11.792 -0.9442  0.9639 -1.6505
 4150TIP3   OH236644   3.356   0.382  12.336 -0.5061  0.0273 -0.2554
 4150TIP3    H136645   3.435   0.436  12.332 -0.4185 -0.1576 -1.7605
 4150TIP3    H236646   3.386   0.295  12.307 -0.9362 -0.4584  0.7296
 4151TIP3   OH236647   2.348   1.633  10.416  1.2535  0.4968 -0.3568
 4151TIP3    H136648   2.403   1.555  10.414  0.5390 -0.0686  1.0917
 4151TIP3    H236649   2.364   1.672  10.502 -0.6808  0.2543  0.1553
 4152TIP3   OH236650   6.317   7.451  11.468  0.7448  0.0178  0.3061
 4152TIP3    H136651   6.375   7.465  11.542  1.4304  0.6605 -0.3371
 4152TIP3    H236652   6.243   7.510  11.484 -0.1537 -1.3779  1.5293
 4153TIP3   OH236653   0.396   0.199  11.561 -0.5104 -0.2023  0.7084
 4153TIP3    H136654   0.398   0.104  11.551 -3.2985 -0.2958  0.1673
 4153TIP3    H236655   0.411   0.215  11.654  0.9041 -1.0681  0.6543
 4154TIP3   OH236656   1.871   4.897  10.717  0.1405  0.0046  0.6499
 4154TIP3    H136657   1.878   4.837  10.643  0.2852  0.7709  0.0362
 4154TIP3    H236658   1.814   4.967  10.686  1.5500  1.2009  0.6721
 4155TIP3   OH236659   3.883   1.568  10.572 -0.4698 -0.4313  0.1090
 4155TIP3    H136660   3.809   1.609  10.527  0.9529  3.4926  0.9640
 4155TIP3    H236661   3.959   1.592  10.519  0.6604 -0.4810  1.6565
 4156TIP3   OH236662   5.598   4.791  12.479  0.3582  0.5955 -0.7922
 4156TIP3    H136663   5.586   4.696  12.474 -0.2840  0.6690 -0.6565
 4156TIP3    H236664   5.529   4.827  12.423 -1.0846  1.0845  1.2001
 4157TIP3   OH236665   3.989   6.028  12.439 -0.1665 -0.0403 -0.7552
 4157TIP3    H136666   3.988   5.995  12.349  1.7678  0.4682 -1.0184
 4157TIP3    H236667   3.905   6.073  12.450 -1.1286 -1.5218 -1.7247
 4158TIP3   OH236668   2.838   6.509  12.209 -0.6016 -0.3296  0.1503
 4158TIP3    H136669   2.928   6.518  12.241  0.0966  0.1164 -1.8270
 4158TIP3    H236670   2.815   6.597  12.179 -0.0355 -1.2280 -3.3823
 4159TIP3   OH236671   3.516   3.460  11.411  0.3607  0.2553 -0.6187
 4159TIP3    H136672   3.601   3.451  11.453  0.2433 -1.8576 -0.7428
 4159TIP3    H236673   3.460   3.397  11.457 -0.9318  1.0571 -1.0497
 4160TIP3   OH236674   7.025   6.794  11.739 -0.4440 -0.3499 -0.1749
 4160TIP3    H136675   6.982   6.738  11.804 -2.7910 -0.3063 -1.5633
 4160TIP3    H236676   7.015   6.746  11.656  0.8518  0.4328 -0.8192
 4161TIP3   OH236677   5.423   5.223  12.931  0.4480  0.0563  0.4719
 4161TIP3    H136678   5.480   5.236  13.008  0.5592  0.7945  0.2777
 4161TIP3    H236679   5.440   5.300  12.877  3.2968 -2.1813 -2.1851
 4162TIP3   OH236680   6.535   6.803  11.723  0.2142 -0.0176  0.7093
 4162TIP3    H136681   6.510   6.760  11.805  0.7488  0.2348  1.0158
 4162TIP3    H236682   6.624   6.835  11.739  0.9214 -1.2764 -0.4857
 4163TIP3   OH236683   6.847   3.577  10.575 -0.2120 -0.2662  0.3357
 4163TIP3    H136684   6.814   3.590  10.486 -1.6552 -0.6580  0.7858
 4163TIP3    H236685   6.925   3.632  10.580 -0.1463 -0.1885 -1.1503
 4164TIP3   OH236686   5.730   2.142  10.652 -0.5904 -0.3274 -0.1736
 4164TIP3    H136687   5.645   2.138  10.696 -1.3581 -2.3107 -1.6945
 4164TIP3    H236688   5.756   2.051  10.640  0.9667  0.2078 -1.1931
 4165TIP3   OH236689   0.585   0.470  11.974  0.2794 -0.1319  0.9862
 4165TIP3    H136690   0.567   0.538  12.038 -0.1678  2.1027 -1.3660
 4165TIP3    H236691   0.653   0.508  11.917 -0.3777 -1.3976 -0.7250
 4166TIP3   OH236692   3.778   7.155  12.176 -0.2092 -0.4899 -0.2606
 4166TIP3    H136693   3.771   7.232  12.232  1.9350 -0.7914  0.5255
 4166TIP3    H236694   3.759   7.187  12.088 -1.1816  0.5177  0.2958
 4167TIP3   OH236695   0.716   7.262  12.579 -0.0712 -0.1482 -0.3786
 4167TIP3    H136696   0.716   7.320  12.655 -1.1412 -1.9498  1.0958
 4167TIP3    H236697   0.646   7.296  12.522 -1.9790 -0.9728  1.3469
 4168TIP3   OH236698   4.285   4.279  11.001 -0.4040  0.4761 -0.0688
 4168TIP3    H136699   4.321   4.250  10.917  0.0232 -2.0086  0.8841
 4168TIP3    H236700   4.362   4.303  11.052 -0.6595  1.9168 -0.3147
 4169TIP3   OH236701   1.153   1.619  11.111 -0.0283  0.3796  0.0955
 4169TIP3    H136702   1.124   1.696  11.062  1.6123  1.0529  0.0997
 4169TIP3    H236703   1.112   1.628  11.197 -0.5247  0.7942 -0.1766
 4170TIP3   OH236704   4.310   4.524  11.336  0.8705  0.9083 -0.3660
 4170TIP3    H136705   4.234   4.481  11.297 -0.0223 -0.1104  2.3225
 4170TIP3    H236706   4.278   4.609  11.365  0.4175  0.0755  1.6967
 4171TIP3   OH236707   1.577   2.884  11.630 -0.5850  0.1416 -0.7675
 4171TIP3    H136708   1.630   2.886  11.709  0.9756  2.0295 -1.7631
 4171TIP3    H236709   1.496   2.930  11.653 -1.5205 -1.9967  0.5192
 4172TIP3   OH236710   3.328   4.304   9.971  0.0673  0.7221  0.2789
 4172TIP3    H136711   3.414   4.268   9.952 -0.0282  0.5955  0.0816
 4172TIP3    H236712   3.269   4.228   9.968  0.4213  0.1235  3.9003
 4173TIP3   OH236713   4.004   5.481  10.486 -0.3379  0.1980 -0.1866
 4173TIP3    H136714   4.017   5.526  10.403 -0.5248  0.0277 -0.3105
 4173TIP3    H236715   3.957   5.401  10.462  0.5661 -0.3799 -0.0468
 4174TIP3   OH236716   1.993   3.884  10.998 -0.1163 -0.4894 -0.4908
 4174TIP3    H136717   2.049   3.942  11.049  1.3818 -1.9646 -0.3834
 4174TIP3    H236718   1.930   3.850  11.062  1.0524 -1.4676  0.1818
 4175TIP3   OH236719   1.680   6.924  10.365 -0.0033  0.1417 -0.3643
 4175TIP3    H136720   1.732   6.921  10.445  1.1803 -0.6202 -1.1181
 4175TIP3    H236721   1.745   6.934  10.295 -0.9867  0.5879 -1.2456
 4176TIP3   OH236722   7.343   2.968  11.347 -0.1131  0.3426 -0.4921
 4176TIP3    H136723   7.435   2.942  11.336 -0.5449 -0.9049 -1.3584
 4176TIP3    H236724   7.301   2.891  11.384 -0.8478  0.8676 -0.2154
 4177TIP3   OH236725   5.137   0.613  12.635  0.2402 -0.3140  0.0854
 4177TIP3    H136726   5.074   0.685  12.646 -0.1694 -0.8204  1.2435
 4177TIP3    H236727   5.083   0.534  12.630  0.7319 -0.6471 -0.0207
 4178TIP3   OH236728   4.767   6.860  10.934 -0.0984 -0.0124 -0.4197
 4178TIP3    H136729   4.689   6.894  10.977  0.2354 -1.0073  1.0540
 4178TIP3    H236730   4.736   6.785  10.882  0.1952 -2.5231  2.7271
 4179TIP3   OH236731   6.052   4.525  11.593  0.1508 -0.2884 -0.1865
 4179TIP3    H136732   5.996   4.457  11.629 -2.1844  2.2071  1.2720
 4179TIP3    H236733   6.133   4.520  11.645 -0.4495 -1.1490  0.6932
 4180TIP3   OH236734   7.380   4.075  10.391  0.2540 -0.6748  0.1639
 4180TIP3    H136735   7.358   4.163  10.422 -1.1270 -0.7805 -0.4164
 4180TIP3    H236736   7.296   4.037  10.366  0.8813 -2.0041 -0.0240
 4181TIP3   OH236737   6.109   6.335  10.725 -0.2803  0.3595  0.0564
 4181TIP3    H136738   6.133   6.278  10.652 -0.2264 -0.5425  0.7491
 4181TIP3    H236739   6.163   6.303  10.798 -0.5313  1.0589  0.5537
 4182TIP3   OH236740   3.566   7.548  12.626  0.1059  0.9969 -0.2887
 4182TIP3    H136741   3.646   7.550  12.574 -0.3015  1.1374 -0.9231
 4182TIP3    H236742   3.596   7.547  12.717  0.8658 -1.2098 -0.5118
 4183TIP3   OH236743   5.613   5.683  11.690  0.3424 -0.1393 -0.2328
 4183TIP3    H136744   5.584   5.659  11.602 -2.8776 -0.4169  0.7987
 4183TIP3    H236745   5.556   5.634  11.749  2.7998 -0.4310  2.0967
 4184TIP3   OH236746   1.035   7.337  11.960 -0.0717 -0.2862  0.1223
 4184TIP3    H136747   1.021   7.271  12.027  1.2663 -1.0329 -0.2858
 4184TIP3    H236748   1.062   7.415  12.008  2.9052 -1.3814  0.4596
 4185TIP3   OH236749   6.204   2.938  12.980  0.6213 -0.2605  0.2481
 4185TIP3    H136750   6.260   2.878  13.030 -0.9482 -1.7178  0.3500
 4185TIP3    H236751   6.125   2.888  12.964 -0.1675  1.3166 -0.9728
 4186TIP3   OH236752   5.583   1.105  10.516 -0.3296 -0.2330 -0.4508
 4186TIP3    H136753   5.667   1.071  10.547 -0.1190  1.0969  0.4973
 4186TIP3    H236754   5.544   1.146  10.593 -2.0844 -1.2361 -0.7578
 4187TIP3   OH236755   6.230   4.673  10.255 -0.4144 -0.0244  0.2498
 4187TIP3    H136756   6.192   4.588  10.279 -0.3036 -0.7733 -1.9751
 4187TIP3    H236757   6.217   4.728  10.332  2.8304 -3.0465  3.3184
 4188TIP3   OH236758   1.658   1.924   9.845  0.2751 -0.3358 -0.2814
 4188TIP3    H136759   1.654   1.873   9.764 -0.6629  0.7960 -0.9780
 4188TIP3    H236760   1.629   1.863   9.913 -0.7633 -0.7751 -1.0866
 4189TIP3   OH236761   3.226   6.607  12.120 -0.8127  0.4554  0.6958
 4189TIP3    H136762   3.293   6.649  12.174 -1.2180  0.2559  1.3660
 4189TIP3    H236763   3.188   6.540  12.177 -0.8536 -0.1515 -0.0336
 4190TIP3   OH236764   1.752   2.235  12.381 -0.2685  0.3897  0.2515
 4190TIP3    H136765   1.793   2.189  12.308 -1.8007  0.1802 -0.5095
 4190TIP3    H236766   1.762   2.177  12.456 -0.4725 -0.3106 -0.2587
 4191TIP3   OH236767   4.752   3.753  11.486  0.1158  0.0786 -0.3064
 4191TIP3    H136768   4.680   3.772  11.546 -1.0290  0.1429 -1.6434
 4191TIP3    H236769   4.787   3.669  11.516 -1.2035 -0.4767 -0.2202
 4192TIP3   OH236770   7.111   2.941  12.269 -0.2820 -0.0691 -0.0540
 4192TIP3    H136771   7.197   2.908  12.293  1.1508  0.6888 -3.5160
 4192TIP3    H236772   7.096   3.014  12.328  3.1028  1.9490 -1.3762
 4193TIP3   OH236773   1.537   5.706  10.464 -0.3194  0.4765  0.2696
 4193TIP3    H136774   1.464   5.767  10.471 -1.0288 -0.3919  0.6575
 4193TIP3    H236775   1.510   5.630  10.516  1.1708  0.4352  1.0647
 4194TIP3   OH236776   1.948   6.510  12.315 -0.4307 -0.4315 -0.2999
 4194TIP3    H136777   1.889   6.455  12.263  0.0688  0.5339 -1.9456
 4194TIP3    H236778   1.993   6.448  12.373 -0.5061 -1.6645 -1.4932
 4195TIP3   OH236779   4.094   0.387  11.105  0.2937 -0.3621  0.2952
 4195TIP3    H136780   4.081   0.423  11.017  0.6930 -2.4354 -0.6867
 4195TIP3    H236781   4.022   0.421  11.156  0.3463  1.3237 -0.6834
 4196TIP3   OH236782   5.612   7.166  12.575  0.3279 -0.8169  0.4132
 4196TIP3    H136783   5.576   7.094  12.627 -0.4867  0.0021  1.0241
 4196TIP3    H236784   5.535   7.208  12.536  0.8297 -0.5796 -0.3395
 4197TIP3   OH236785   2.928   5.242  12.628  0.3460 -0.1018  0.7047
 4197TIP3    H136786   2.891   5.325  12.599  0.8208 -0.2702 -0.3972
 4197TIP3    H236787   2.852   5.193  12.662 -0.5905 -0.5619 -1.8093
 4198TIP3   OH236788   3.219   2.275  12.541 -0.3170  0.2432  0.3573
 4198TIP3    H136789   3.254   2.229  12.618 -1.4949 -0.2305  0.6404
 4198TIP3    H236790   3.220   2.209  12.472 -1.4751 -0.0677  0.6128
 4199TIP3   OH236791   2.102   0.300  10.869  0.1362  0.1021  0.3063
 4199TIP3    H136792   2.074   0.346  10.790 -2.3349 -1.8371 -0.0559
 4199TIP3    H236793   2.104   0.368  10.936 -0.1307  1.3414 -0.8951
 4200TIP3   OH236794   1.323   3.328  11.067  1.1098 -0.4575  0.1400
 4200TIP3    H136795   1.269   3.255  11.036  1.0904 -0.8823  1.1514
 4200TIP3    H236796   1.408   3.288  11.086  1.1917 -0.1598  0.4010
 4201TIP3   OH236797   3.965   0.908  10.757 -0.4683  0.8120  0.0722
 4201TIP3    H136798   3.973   0.973  10.687  0.0962 -1.1903 -1.8128
 4201TIP3    H236799   4.047   0.915  10.806 -0.4070  1.4936 -0.1149
 4202TIP3   OH236800   4.102   6.138  10.572 -0.4051 -0.5928 -0.3959
 4202TIP3    H136801   4.038   6.076  10.535 -1.9054  0.0982  0.9388
 4202TIP3    H236802   4.058   6.223  10.568  1.0522  0.1651 -0.8379
 4203TIP3   OH236803   1.247   1.838  10.428  0.7747 -0.4907 -0.1068
 4203TIP3    H136804   1.161   1.863  10.461  1.6846 -0.2594  2.3247
 4203TIP3    H236805   1.291   1.922  10.412  1.2232 -0.5818  0.6212
 4204TIP3   OH236806   5.998   2.752  11.227  0.5910 -0.1712  0.0506
 4204TIP3    H136807   5.931   2.786  11.287  1.7281  0.0481  1.2679
 4204TIP3    H236808   6.072   2.812  11.239  0.4416  0.6819 -2.6014
 4205TIP3   OH236809   0.584   4.077  12.145  0.1688  0.0614 -0.2549
 4205TIP3    H136810   0.648   4.148  12.153 -0.8104  1.2024 -1.8662
 4205TIP3    H236811   0.532   4.100  12.068 -0.9322 -1.8394 -0.1518
 4206TIP3   OH236812   1.446   0.358  10.161  0.0987 -0.1149 -0.3387
 4206TIP3    H136813   1.413   0.433  10.211  0.7751 -0.1854  0.2165
 4206TIP3    H236814   1.459   0.289  10.226  1.5494 -0.0146 -0.5012
 4207TIP3   OH236815   1.386   0.822  12.285 -0.2138 -0.3040 -0.3089
 4207TIP3    H136816   1.413   0.865  12.366 -1.7935 -0.1299  0.1623
 4207TIP3    H236817   1.396   0.728  12.304 -2.1042 -0.3493  0.7187
 4208TIP3   OH236818   3.761   3.370  11.519  0.9950  0.2587 -0.1866
 4208TIP3    H136819   3.763   3.311  11.594  0.1956 -0.4457 -0.7155
 4208TIP3    H236820   3.851   3.370  11.486  1.0365 -0.5218 -0.0768
 4209TIP3   OH236821   3.150   5.083  11.737  0.2627 -0.3440 -0.2544
 4209TIP3    H136822   3.059   5.112  11.733  0.6593  1.0614  0.2100
 4209TIP3    H236823   3.149   4.994  11.703 -1.5231 -0.9031  1.1126
 4210TIP3   OH236824   5.245   6.025  11.177 -0.3741 -0.3510  0.1203
 4210TIP3    H136825   5.285   6.110  11.159 -1.7556  0.3307  0.1540
 4210TIP3    H236826   5.245   5.980  11.092 -0.3582  0.0031 -0.0677
 4211TIP3   OH236827   7.649   2.123  10.722  0.4788  0.4009  0.0285
 4211TIP3    H136828   7.624   2.081  10.804 -1.1913  1.5886  0.1691
 4211TIP3    H236829   7.692   2.053  10.672  0.3724 -0.6795  1.3825
 4212TIP3   OH236830   3.630   7.290  10.412  0.4049  0.0131 -0.6356
 4212TIP3    H136831   3.547   7.335  10.425  0.0170 -0.6114 -0.9118
 4212TIP3    H236832   3.696   7.350  10.447 -0.1162  0.7122 -0.8452
 4213TIP3   OH236833   1.213   7.277  10.696 -0.2389  0.6242  0.4466
 4213TIP3    H136834   1.279   7.212  10.720 -0.0379  0.7632  0.2659
 4213TIP3    H236835   1.243   7.313  10.612 -0.9380  0.1380 -0.0263
 4214TIP3   OH236836   4.504   2.953  10.542 -0.7636  0.0461  0.3899
 4214TIP3    H136837   4.572   2.967  10.608 -0.3808  0.6235 -0.1109
 4214TIP3    H236838   4.551   2.956  10.458 -1.2981 -0.2837  0.0761
 4215TIP3   OH236839   5.509   5.908  10.952  0.5594  0.3277 -0.0331
 4215TIP3    H136840   5.549   5.922  11.038 -0.1170  1.4199  0.1371
 4215TIP3    H236841   5.555   5.969  10.894  2.4615 -1.8535 -0.9801
 4216TIP3   OH236842   4.372   2.366  12.419  0.2670  0.0973  0.2062
 4216TIP3    H136843   4.279   2.351  12.400  0.0518  1.6604 -0.1402
 4216TIP3    H236844   4.371   2.433  12.488  1.1102  1.3475 -0.9408
 4217TIP3   OH236845   7.658   3.025  12.262 -0.3853  0.0757  0.4257
 4217TIP3    H136846   7.752   3.036  12.251 -0.2203  2.1185  2.9029
 4217TIP3    H236847   7.641   2.933  12.240  1.7836  0.1540 -2.0328
 4218TIP3   OH236848   1.078   4.953  11.157 -0.2555 -0.0519  0.4719
 4218TIP3    H136849   1.125   4.929  11.237  0.6984  0.0776 -0.0424
 4218TIP3    H236850   1.086   4.876  11.100  1.5671  0.8866 -0.6166
 4219TIP3   OH236851   7.175   3.084  11.929 -0.0717  0.2652 -0.7707
 4219TIP3    H136852   7.153   3.058  12.018 -1.3127 -0.1514 -1.1824
 4219TIP3    H236853   7.270   3.075  11.924 -0.0470 -0.1813  0.3636
 4220TIP3   OH236854   0.158   0.974  10.524  0.6185 -0.1351  0.5546
 4220TIP3    H136855   0.163   0.878  10.527 -1.4174 -0.5211 -2.6295
 4220TIP3    H236856   0.065   0.993  10.540  0.4620  1.0007 -1.3619
 4221TIP3   OH236857   6.222   6.198  10.928 -0.0688 -0.3818  0.0756
 4221TIP3    H136858   6.277   6.128  10.893  2.7925  1.4889  0.4585
 4221TIP3    H236859   6.213   6.177  11.021  1.1038 -0.1078  0.2701
 4222TIP3   OH236860   5.133   7.537  10.401 -0.6738  0.0663 -0.4221
 4222TIP3    H136861   5.181   7.619  10.403 -0.9400  0.2325 -0.7237
 4222TIP3    H236862   5.087   7.533  10.485 -4.2432  2.4114 -2.0157
 4223TIP3   OH236863   2.704   3.038  10.790  0.4629  0.2736  0.0736
 4223TIP3    H136864   2.673   3.111  10.736  2.8318 -0.4643 -2.4996
 4223TIP3    H236865   2.752   3.080  10.861  0.0083  1.2302 -0.1637
 4224TIP3   OH236866   1.009   1.450  12.541  0.3800  0.3892 -0.1511
 4224TIP3    H136867   0.981   1.508  12.471  1.4721  1.2115  0.0605
 4224TIP3    H236868   1.093   1.415  12.509  0.3827 -0.0183  0.3071
 4225TIP3   OH236869   7.667   0.384  10.996  0.1349  0.8330  0.0623
 4225TIP3    H136870   7.712   0.321  10.940 -0.7088  0.4266 -0.1717
 4225TIP3    H236871   7.627   0.446  10.935  1.2993  1.8527  0.2996
 4226TIP3   OH236872   7.415   1.108  10.992 -0.4482 -0.1112 -0.2962
 4226TIP3    H136873   7.336   1.089  11.042 -0.5837  2.7254  0.7691
 4226TIP3    H236874   7.468   1.162  11.051  1.4108 -0.3436 -1.6768
 4227TIP3   OH236875   2.631   3.915  11.965  0.6359 -0.1531  0.0661
 4227TIP3    H136876   2.568   3.875  12.025 -0.1752 -0.8784 -1.2245
 4227TIP3    H236877   2.715   3.876  11.989  0.2667 -0.7214  0.4766
 4228TIP3   OH236878   7.160   7.271   9.643 -0.0804  0.1269 -0.8014
 4228TIP3    H136879   7.228   7.338   9.632  1.7348 -1.9269 -3.3077
 4228TIP3    H236880   7.187   7.223   9.722 -0.0175  0.7930 -0.4037
 4229TIP3   OH236881   7.283   0.503  11.286 -0.4056 -0.2309  0.7653
 4229TIP3    H136882   7.254   0.452  11.361 -2.3607 -0.1381  0.1335
 4229TIP3    H236883   7.365   0.543  11.314  0.4050 -2.4758  1.8077
 4230TIP3   OH236884   4.365   7.371  12.852  0.7862 -0.6854 -0.6490
 4230TIP3    H136885   4.295   7.401  12.795 -0.2090 -0.8530  0.4450
 4230TIP3    H236886   4.366   7.276  12.841 -1.1486 -1.0391  1.4352
 4231TIP3   OH236887   7.302   3.942  12.006 -0.6073  0.1387 -0.1466
 4231TIP3    H136888   7.263   3.857  12.028 -2.2315  0.7197 -0.6228
 4231TIP3    H236889   7.304   3.943  11.911  2.8212 -0.7945 -0.2132
 4232TIP3   OH236890   3.978   6.114  12.954 -0.1484  0.0696 -0.2512
 4232TIP3    H136891   3.980   6.143  12.862  0.1416  0.0859 -0.2426
 4232TIP3    H236892   3.920   6.039  12.954 -0.3842  0.2483 -0.3974
 4233TIP3   OH236893   2.039   4.505  11.847 -0.5354 -0.1262 -0.2808
 4233TIP3    H136894   2.115   4.539  11.799 -2.2938  1.4417 -2.1340
 4233TIP3    H236895   1.964   4.531  11.794 -2.4947 -0.3120  2.2351
 4234TIP3   OH236896   2.382   2.784  11.153  0.2162  0.2585 -0.2572
 4234TIP3    H136897   2.338   2.706  11.119  0.3639  0.2944 -0.5359
 4234TIP3    H236898   2.350   2.792  11.243 -0.1075  0.1064 -0.3558
 4235TIP3   OH236899   4.996   1.232  11.679 -0.6899  0.4076  0.3618
 4235TIP3    H136900   5.078   1.261  11.719 -1.5301  1.8551  1.1301
 4235TIP3    H236901   4.946   1.194  11.751 -0.8399 -0.1558 -0.0311
 4236TIP3   OH236902   7.422   1.411   9.837  0.2354 -0.1499 -0.1060
 4236TIP3    H136903   7.503   1.453   9.867  0.0546  1.1521 -1.3378
 4236TIP3    H236904   7.448   1.360   9.760  0.4613 -2.4437  1.3986
 4237TIP3   OH236905   7.495   3.378   9.929  0.1082 -0.1553  0.2204
 4237TIP3    H136906   7.473   3.373   9.836 -1.2831  0.6991  0.4726
 4237TIP3    H236907   7.476   3.291   9.963 -0.0252 -0.2784 -0.1654
 4238TIP3   OH236908   1.634   2.237  11.863  0.0500 -0.4061  0.3375
 4238TIP3    H136909   1.721   2.265  11.889  0.6921 -1.1987 -0.8690
 4238TIP3    H236910   1.639   2.228  11.768 -1.1599 -1.0541  0.3124
 4239TIP3   OH236911   6.918   4.028  11.429 -0.1238  0.1864  0.0495
 4239TIP3    H136912   6.958   4.079  11.358  2.3407  0.1235  1.3041
 4239TIP3    H236913   6.843   4.081  11.456  1.5222  2.5125  0.3710
 4240TIP3   OH236914   1.163   7.346  11.708 -0.1954 -0.2184 -0.1616
 4240TIP3    H136915   1.235   7.286  11.687 -2.0039 -2.6644  0.1287
 4240TIP3    H236916   1.126   7.311  11.789 -2.6033  0.0073 -1.0858
 4241TIP3   OH236917   5.489   4.596  11.589  0.0751 -0.0036 -0.7386
 4241TIP3    H136918   5.394   4.602  11.578  0.0616  3.1268  0.1291
 4241TIP3    H236919   5.504   4.606  11.683  1.2913  0.6019 -0.9670
 4242TIP3   OH236920   0.619   0.538  11.324  0.7014 -0.6533 -0.2598
 4242TIP3    H136921   0.655   0.551  11.411  0.8256  1.4952 -0.5560
 4242TIP3    H236922   0.526   0.559  11.333  0.7830 -0.0531 -0.6741
 4243TIP3   OH236923   0.646   5.166  10.379 -0.3446 -0.3717 -0.8256
 4243TIP3    H136924   0.726   5.207  10.413  0.1764 -2.2902  0.4260
 4243TIP3    H236925   0.672   5.130  10.294  0.1619 -0.9925 -0.4219
 4244TIP3   OH236926   1.964   6.690  12.605 -0.1609  0.5982  0.1163
 4244TIP3    H136927   1.893   6.724  12.660 -1.1248  0.0504 -0.7568
 4244TIP3    H236928   1.921   6.664  12.524  0.7859 -1.3387  0.1951
 4245TIP3   OH236929   1.167   1.462  10.834  0.0168  0.1275  0.2471
 4245TIP3    H136930   1.165   1.532  10.899  3.3378  0.7216 -0.1384
 4245TIP3    H236931   1.152   1.506  10.750  0.1225  0.0603  0.1924
 4246TIP3   OH236932   6.716   7.038  11.177  0.2442 -0.3385  0.0663
 4246TIP3    H136933   6.687   7.108  11.236 -0.2782 -1.3484  1.0499
 4246TIP3    H236934   6.759   7.084  11.105 -1.3442  1.0829 -0.0535
 4247TIP3   OH236935   7.618   1.701  12.360  0.1382 -0.2260 -0.4847
 4247TIP3    H136936   7.540   1.659  12.325 -0.3739 -0.4523  0.8629
 4247TIP3    H236937   7.638   1.652  12.440  1.2380  0.2780 -0.4251
 4248TIP3   OH236938   0.542   6.685  10.158 -0.2241  0.1000  0.0051
 4248TIP3    H136939   0.517   6.761  10.210 -2.3624  0.1674 -1.0300
 4248TIP3    H236940   0.612   6.718  10.101 -0.4278  1.0021  0.2594
 4249TIP3   OH236941   4.274   1.030  11.528 -0.4841 -0.5404 -0.2355
 4249TIP3    H136942   4.293   0.936  11.532  1.0737 -0.2745 -0.8685
 4249TIP3    H236943   4.310   1.065  11.610  1.8837 -0.0376 -1.4277
 4250TIP3   OH236944   5.510   6.180  11.413  0.0464 -0.1060  0.0299
 4250TIP3    H136945   5.442   6.232  11.456  0.7703  0.1133  0.9417
 4250TIP3    H236946   5.539   6.118  11.479  0.0298 -0.8755 -0.6752
 4251TIP3   OH236947   1.230   6.331  11.274 -0.1149  0.1003 -0.0767
 4251TIP3    H136948   1.174   6.393  11.228  0.8898  0.5609 -0.7126
 4251TIP3    H236949   1.280   6.288  11.205 -2.2457 -2.9964  0.1129
 4252TIP3   OH236950   6.946   2.002  11.905  1.0796 -0.7328 -0.0169
 4252TIP3    H136951   6.893   2.029  11.830  2.0068 -0.4715 -0.5880
 4252TIP3    H236952   6.896   1.930  11.945 -0.0249 -0.0512 -0.1398
 4253TIP3   OH236953   6.747   3.699  11.935  0.4177 -0.0150  0.1141
 4253TIP3    H136954   6.772   3.650  12.013  0.4037  0.6225  0.5232
 4253TIP3    H236955   6.749   3.791  11.962  1.8364  0.3228 -1.0178
 4254TIP3   OH236956   1.651   2.321  11.296  0.0659  0.4426 -0.2583
 4254TIP3    H136957   1.711   2.345  11.225  1.7263 -0.1534  0.8673
 4254TIP3    H236958   1.625   2.231  11.275  1.0971  0.0161  0.1934
 4255TIP3   OH236959   7.052   2.283  12.538  0.0325  0.0361 -0.5450
 4255TIP3    H136960   7.061   2.379  12.534 -0.3326  0.1716  1.2707
 4255TIP3    H236961   6.989   2.268  12.608  1.6201 -1.5958  0.6269
 4256TIP3   OH236962   1.579   5.625  11.714  0.3629 -0.1675 -0.7518
 4256TIP3    H136963   1.495   5.612  11.670 -0.1973 -1.2777  0.5674
 4256TIP3    H236964   1.586   5.551  11.774  1.6118  0.6976  0.2219
 4257TIP3   OH236965   7.526   3.270  11.352 -0.0144  0.5213  0.4183
 4257TIP3    H136966   7.509   3.350  11.401 -2.4358  0.7263 -0.5936
 4257TIP3    H236967   7.450   3.260  11.295  1.8869 -0.5872 -2.1113
 4258TIP3   OH236968   6.087   1.695  12.193  0.2488 -0.0636  0.0502
 4258TIP3    H136969   6.103   1.777  12.240  0.3556 -0.8504  1.4113
 4258TIP3    H236970   6.004   1.663  12.228 -0.1172 -0.2426 -0.9351
 4259TIP3   OH236971   1.525   0.216  11.391  0.3359  0.4483  0.1324
 4259TIP3    H136972   1.569   0.224  11.306  2.0776 -1.9049  0.7114
 4259TIP3    H236973   1.479   0.299  11.402  2.5042  2.0189 -1.7426
 4260TIP3   OH236974   2.142   5.783  12.120 -0.3824 -0.0114  0.1862
 4260TIP3    H136975   2.108   5.831  12.195 -0.1216  1.6044 -0.6854
 4260TIP3    H236976   2.219   5.833  12.092  0.0072 -1.0374 -0.6583
 4261TIP3   OH236977   0.951   7.450  10.874 -0.1150 -0.3473 -0.4090
 4261TIP3    H136978   0.916   7.530  10.834 -0.7387 -1.0472 -1.3082
 4261TIP3    H236979   0.961   7.471  10.966 -0.2912  0.7648 -0.6324
 4262TIP3   OH236980   0.694   4.899  11.835  0.1073 -0.4429 -0.6930
 4262TIP3    H136981   0.708   4.810  11.868 -0.0414  0.4001  1.9042
 4262TIP3    H236982   0.621   4.891  11.774 -0.4183 -2.0144  0.0821
 4263TIP3   OH236983   1.655   6.070  11.719 -0.1218  0.1968  0.8446
 4263TIP3    H136984   1.720   6.101  11.782 -1.8576  1.8625  1.9411
 4263TIP3    H236985   1.572   6.073  11.767 -1.0926 -1.5832 -0.5775
 4264TIP3   OH236986   1.844   3.756  11.180 -0.0846 -0.6928 -0.1365
 4264TIP3    H136987   1.787   3.693  11.136 -1.8044  0.2181  0.7204
 4264TIP3    H236988   1.867   3.715  11.263  0.7477 -1.1581 -0.5797
 4265TIP3   OH236989   6.931   1.253  11.321  0.5459 -0.0978  0.1413
 4265TIP3    H136990   7.014   1.217  11.289  0.0359 -1.1385 -0.0331
 4265TIP3    H236991   6.869   1.237  11.249 -0.1152 -0.5426  0.8019
 4266TIP3   OH236992   1.507   7.333  11.281 -0.5902 -0.1152 -0.4994
 4266TIP3    H136993   1.423   7.334  11.328 -0.7726 -0.6858 -0.8054
 4266TIP3    H236994   1.539   7.423  11.288 -1.2665  0.1289 -0.4490
 4267TIP3   OH236995   3.918   3.538  10.510 -0.2064 -0.5820 -0.2361
 4267TIP3    H136996   3.896   3.564  10.599 -1.4991 -0.0468 -0.6807
 4267TIP3    H236997   3.833   3.532  10.465  0.3647 -1.5064 -1.2530
 4268TIP3   OH236998   5.000   4.802  11.877 -0.5496 -0.0263  0.2399
 4268TIP3    H136999   4.984   4.850  11.958 -0.4728 -1.8238  1.3738
 4268TIP3    H237000   5.086   4.834  11.848 -0.3690  0.3319  1.1173
 4269TIP3   OH237001   1.927   2.563  12.124 -0.1721  0.2280 -0.3065
 4269TIP3    H137002   1.852   2.622  12.120  0.7448  1.4308 -0.6734
 4269TIP3    H237003   1.959   2.571  12.214 -1.7019 -1.9408  0.5127
 4270TIP3   OH237004   1.247   5.206  11.142 -0.0724  0.6507 -0.4033
 4270TIP3    H137005   1.182   5.145  11.179  1.0640  0.4386  1.4072
 4270TIP3    H237006   1.201   5.250  11.071 -0.9913 -2.2285 -1.7571
 4271TIP3   OH237007   3.634   2.281  10.201  0.4449  0.1131 -0.1786
 4271TIP3    H137008   3.690   2.325  10.137 -1.3713  1.2624 -1.0525
 4271TIP3    H237009   3.649   2.187  10.186  1.2882  0.3817 -1.1277
 4272TIP3   OH237010   7.224   0.110  10.282  0.5726  0.0279 -0.4530
 4272TIP3    H137011   7.279   0.032  10.276 -0.8294 -1.0859  0.5651
 4272TIP3    H237012   7.233   0.153  10.197  3.3052  0.1276 -0.2180
 4273TIP3   OH237013   7.488   2.512  10.930 -0.0898 -0.5864 -0.0418
 4273TIP3    H137014   7.463   2.599  10.960  1.6768  0.7482 -2.1549
 4273TIP3    H237015   7.580   2.504  10.955  0.0371 -1.4486 -0.7555
 4274TIP3   OH237016   4.381   6.632  12.760 -0.4054 -0.1413 -0.4798
 4274TIP3    H137017   4.328   6.565  12.717 -0.9536  0.4864 -0.8158
 4274TIP3    H237018   4.425   6.587  12.832 -1.8963 -0.5520  0.2065
 4275TIP3   OH237019   1.646   3.994  11.664  0.1474 -0.5094 -0.0954
 4275TIP3    H137020   1.737   3.995  11.695 -0.7721  1.6096  3.0455
 4275TIP3    H237021   1.601   3.935  11.724 -0.7943 -0.6525 -0.9106
 4276TIP3   OH237022   7.639   4.281  10.652  0.0532 -0.4234  0.2791
 4276TIP3    H137023   7.586   4.209  10.687  0.6155 -0.9709  0.0345
 4276TIP3    H237024   7.591   4.313  10.577  0.9163 -2.1501 -1.0973
 4277TIP3   OH237025   1.759   6.300  10.949  0.1394  0.4544  0.1402
 4277TIP3    H137026   1.825   6.365  10.971 -0.2323  0.5960  0.9000
 4277TIP3    H237027   1.770   6.231  11.015 -1.1984  1.0195  1.0079
 4278TIP3   OH237028   6.505   0.477  12.389  0.4537 -0.5153  0.3235
 4278TIP3    H137029   6.442   0.457  12.320  1.6264 -0.9722 -0.6302
 4278TIP3    H237030   6.532   0.391  12.423  0.3887 -0.3134  0.9066
 4279TIP3   OH237031   5.987   6.758  11.465 -0.1685 -0.6695 -0.1485
 4279TIP3    H137032   6.033   6.758  11.381 -1.2922  0.6461 -0.8099
 4279TIP3    H237033   5.936   6.839  11.465 -1.3156 -1.3312  1.1778
 4280TIP3   OH237034   0.792   1.025  10.203  0.0550  0.2222  0.1656
 4280TIP3    H137035   0.797   0.961  10.274  1.8638 -1.6563 -1.5290
 4280TIP3    H237036   0.866   1.084  10.220  1.7425 -1.4074 -1.1245
 4281TIP3   OH237037   6.052   2.361  11.729 -0.7771  0.3042 -0.5329
 4281TIP3    H137038   6.096   2.409  11.800 -0.3413 -0.2957 -0.3880
 4281TIP3    H237039   5.985   2.421  11.697  0.0523  1.1892 -0.6480
 4282TIP3   OH237040   1.265   2.052  12.817 -0.1750  0.1248 -0.3241
 4282TIP3    H137041   1.232   2.130  12.773  0.2428 -0.5262 -1.8801
 4282TIP3    H237042   1.316   2.085  12.891  0.6998  1.3709 -1.4300
 4283TIP3   OH237043   7.186   3.955  12.828  0.4583 -0.3049 -0.3878
 4283TIP3    H137044   7.140   3.874  12.848  0.7158  0.0034  1.6440
 4283TIP3    H237045   7.272   3.926  12.797  0.5181 -0.8313  0.2372
 4284TIP3   OH237046   4.618   5.920  11.243 -0.0914  0.4762  0.0312
 4284TIP3    H137047   4.541   5.976  11.260  0.3353  0.5618  1.8484
 4284TIP3    H237048   4.691   5.967  11.283  0.7724 -0.0566 -0.8746
 4285TIP3   OH237049   5.375   5.130  12.472 -0.1637 -0.0393  0.3091
 4285TIP3    H137050   5.310   5.063  12.451 -1.6652  1.5993 -0.6459
 4285TIP3    H237051   5.326   5.195  12.523  1.3606  0.1187  1.6221
 4286TIP3   OH237052   2.521   0.615  12.692  0.3021  0.3789  0.1994
 4286TIP3    H137053   2.428   0.592  12.700  0.1590  0.5075 -0.8958
 4286TIP3    H237054   2.565   0.560  12.755 -0.5230  0.3017  0.7251
 4287TIP3   OH237055   4.014   0.297  12.770  0.1401  0.0854  0.5853
 4287TIP3    H137056   4.095   0.287  12.720 -0.7556 -0.6605 -0.7786
 4287TIP3    H237057   4.029   0.248  12.851  0.7700 -0.7129 -0.0042
 4288TIP3   OH237058   7.435   5.732  12.252 -0.0801 -0.6851  0.4676
 4288TIP3    H137059   7.500   5.669  12.223 -0.5398 -1.5182  1.2019
 4288TIP3    H237060   7.471   5.768  12.333  0.7158  0.8750 -0.5155
 4289TIP3   OH237061   4.134   4.074  12.542  0.1075  0.2291  0.4313
 4289TIP3    H137062   4.144   4.154  12.594 -1.9104  1.7144 -1.2977
 4289TIP3    H237063   4.045   4.044  12.561  0.0227 -0.2813 -0.6874
 4290TIP3   OH237064   7.015   1.541  12.243  0.2055  0.3546  0.1979
 4290TIP3    H137065   6.948   1.590  12.195 -0.1049 -0.7866 -0.5751
 4290TIP3    H237066   7.072   1.504  12.175  0.9583  0.3716  0.8013
 4291TIP3   OH237067   2.783   1.079  12.581 -0.7137 -0.4994  0.1927
 4291TIP3    H137068   2.809   0.990  12.607  0.2612 -0.3539 -0.2574
 4291TIP3    H237069   2.850   1.136  12.619 -1.7533  0.1490  1.1529
 4292TIP3   OH237070   4.382   0.079  12.381  0.2110  0.3944 -0.5468
 4292TIP3    H137071   4.416   0.065  12.469  1.5302 -0.0020 -1.0957
 4292TIP3    H237072   4.458   0.104  12.329 -0.6162  1.0441 -1.4976
 4293TIP3   OH237073   6.684   2.205  10.811 -0.0541 -0.3438 -0.6871
 4293TIP3    H137074   6.671   2.117  10.846  0.9119 -0.8071 -1.4706
 4293TIP3    H237075   6.644   2.263  10.877  0.2662 -1.2874  0.3630
 4294TIP3   OH237076   6.218   2.647  12.604 -0.1365  0.1251  0.0033
 4294TIP3    H137077   6.241   2.558  12.630 -0.4271  0.0071 -0.1346
 4294TIP3    H237078   6.138   2.637  12.553  0.6474  0.2894 -1.3125
 4295TIP3   OH237079   5.938   0.377  11.925  0.0983 -0.4436 -0.3116
 4295TIP3    H137080   5.873   0.336  11.983  0.7205 -0.9181  0.0639
 4295TIP3    H237081   5.898   0.374  11.838 -1.0136  0.6300  0.1404
 4296TIP3   OH237082   0.493   4.131  12.397 -0.4775 -0.3268  0.4638
 4296TIP3    H137083   0.549   4.091  12.331  0.0027 -0.3664  0.8916
 4296TIP3    H237084   0.426   4.065  12.416 -0.9579 -0.0950 -0.3963
 4297TIP3   OH237085   0.158   5.740  11.517 -0.6046  0.0549  0.0678
 4297TIP3    H137086   0.163   5.716  11.425  0.0522 -0.6565  0.2846
 4297TIP3    H237087   0.180   5.660  11.565 -0.5620  0.5104  0.8378
 4298TIP3   OH237088   3.576   1.592  12.149  0.4850 -0.5567  0.4977
 4298TIP3    H137089   3.546   1.616  12.061 -0.3348 -1.6647  0.4559
 4298TIP3    H237090   3.576   1.675  12.197  0.8147  0.0421 -0.5034
 4299TIP3   OH237091   4.498   0.086  10.197 -0.1681 -0.7472 -0.1545
 4299TIP3    H137092   4.517   0.065  10.289  1.6235  0.4785 -0.1920
 4299TIP3    H237093   4.580   0.122  10.163 -1.6846  1.9743 -1.2931
 4300TIP3   OH237094   4.021   5.970  10.185  0.4542  0.1554 -0.2697
 4300TIP3    H137095   4.014   6.032  10.113 -0.2332  0.6599  0.2161
 4300TIP3    H237096   3.952   5.906  10.169  2.2322 -1.5355 -1.7108
 4301TIP3   OH237097   4.743   4.432  12.475 -0.8483 -0.1848 -0.0254
 4301TIP3    H137098   4.654   4.464  12.489 -1.2060 -1.0651 -0.1880
 4301TIP3    H237099   4.736   4.337  12.484  0.0203 -0.2890 -0.3254
 4302TIP3   OH237100   4.227   5.200  11.030  0.0117 -0.0871  0.1948
 4302TIP3    H137101   4.228   5.152  10.947 -0.4608  0.9910 -0.4503
 4302TIP3    H237102   4.313   5.183  11.068  0.4400 -0.1595 -0.7751
 4303TIP3   OH237103   5.015   4.755  11.425 -0.2931  0.5111  0.1927
 4303TIP3    H137104   4.934   4.711  11.452 -0.0876 -0.4999 -0.8083
 4303TIP3    H237105   4.985   4.829  11.372 -0.5844  0.6730  0.5774
 4304TIP3   OH237106   3.850   1.212  11.501 -0.1816  0.3022 -0.2736
 4304TIP3    H137107   3.865   1.226  11.595 -1.2872  0.8677 -0.1532
 4304TIP3    H237108   3.758   1.183  11.496 -0.0040 -0.1486 -1.1456
 4305TIP3   OH237109   7.233   7.607  10.837 -0.0565  0.4445  0.2996
 4305TIP3    H137110   7.234   7.562  10.752  0.1921  0.1531  0.4532
 4305TIP3    H237111   7.319   7.589  10.874  0.1363  1.2527  0.2614
 4306TIP3   OH237112   1.358   1.811  10.734  0.0570 -0.3034  0.2894
 4306TIP3    H137113   1.336   1.882  10.673 -0.8667 -0.5358  0.3336
 4306TIP3    H237114   1.290   1.816  10.801  0.8030 -0.3400  1.0623
 4307TIP3   OH237115   1.292   2.581  12.147 -0.4970  0.3937  0.2473
 4307TIP3    H137116   1.311   2.609  12.058  0.6633  0.3446  0.4624
 4307TIP3    H237117   1.357   2.514  12.166 -0.5310  0.6155  1.2330
 4308TIP3   OH237118   1.975   3.698  11.419 -0.1565 -0.3576 -0.0463
 4308TIP3    H137119   1.975   3.659  11.506 -0.8613  0.3558  0.2888
 4308TIP3    H237120   1.997   3.790  11.435  1.0073 -0.4839 -0.7654
 4309TIP3   OH237121   1.301   6.656  10.665  0.4280  0.0485 -0.5560
 4309TIP3    H137122   1.349   6.659  10.747  0.2927  2.8353 -0.4842
 4309TIP3    H237123   1.319   6.740  10.623 -2.0341  0.0072 -1.8888
 4310TIP3   OH237124   0.668   4.336  11.329 -0.1954 -0.0152 -0.3724
 4310TIP3    H137125   0.724   4.410  11.348 -1.2566  0.9417 -0.8239
 4310TIP3    H237126   0.605   4.334  11.401  0.0874 -0.7565 -0.1360
 4311TIP3   OH237127   6.548   0.298  10.266 -0.1063 -0.0387 -0.3406
 4311TIP3    H137128   6.622   0.257  10.311 -0.4259  0.4753  0.6955
 4311TIP3    H237129   6.524   0.236  10.197  0.2123 -1.0063  0.3949
 4312TIP3   OH237130   6.577   4.683  11.570  0.5653  0.3680  0.1118
 4312TIP3    H137131   6.667   4.714  11.557  0.4525  0.0516 -1.8174
 4312TIP3    H237132   6.544   4.734  11.644  2.0040  1.2004  0.2182
 4313TIP3   OH237133   2.701   1.373  11.200  0.3097 -0.1897 -0.0855
 4313TIP3    H137134   2.709   1.452  11.253 -2.0504  0.7600 -1.0238
 4313TIP3    H237135   2.740   1.397  11.115 -0.4574  0.0016 -0.3888
 4314TIP3   OH237136   4.678   4.920  11.644 -0.2462 -0.0284  0.1490
 4314TIP3    H137137   4.613   4.868  11.596 -1.3490  1.6042 -0.2238
 4314TIP3    H237138   4.641   4.929  11.732 -0.6231  1.0192 -0.1034
 4315TIP3   OH237139   7.384   6.950   9.984  0.0098 -0.1015  1.0092
 4315TIP3    H137140   7.394   7.020  10.048 -2.0476  0.1982  1.0646
 4315TIP3    H237141   7.326   6.986   9.917  2.2337 -0.3402 -1.1990
 4316TIP3   OH237142   6.960   4.784  11.520  0.6318  0.4112 -0.4575
 4316TIP3    H137143   6.950   4.691  11.539 -0.9727  0.8868  1.3216
 4316TIP3    H237144   6.999   4.821  11.599 -0.4540  1.5154 -0.4015
 4317TIP3   OH237145   2.602   3.625  10.787 -1.1819  0.1106  0.2500
 4317TIP3    H137146   2.536   3.694  10.783 -2.4940 -0.9122  2.3721
 4317TIP3    H237147   2.607   3.592  10.697 -0.5538  2.8218 -0.8011
 4318TIP3   OH237148   0.355   4.707  12.189  0.0736 -0.0485  0.2353
 4318TIP3    H137149   0.356   4.799  12.217  0.9813 -0.6350  2.3188
 4318TIP3    H237150   0.444   4.690  12.159 -0.1859 -0.1754 -0.4879
 4319TIP3   OH237151   1.920   2.220  10.246  0.2896 -0.3804 -0.1894
 4319TIP3    H137152   1.859   2.162  10.200  1.6245 -1.4424 -0.6989
 4319TIP3    H237153   2.007   2.189  10.219  1.0711  0.4693  1.2469
 4320TIP3   OH237154   4.370   0.470  10.955  0.1209 -0.1623 -0.3584
 4320TIP3    H137155   4.324   0.549  10.982 -0.3299 -0.9115  1.1910
 4320TIP3    H237156   4.430   0.451  11.027  1.9488  0.0496 -1.7596
 4321TIP3   OH237157   0.271   0.236  10.600 -0.2818 -0.1659 -0.0603
 4321TIP3    H137158   0.248   0.329  10.602  1.1479  0.2520 -1.0199
 4321TIP3    H237159   0.291   0.218  10.508 -0.4330 -1.4052  0.1269
 4322TIP3   OH237160   5.118   2.987  11.695 -0.5016 -0.2039 -0.5812
 4322TIP3    H137161   5.197   2.943  11.661  0.3564  1.0942 -0.3145
 4322TIP3    H237162   5.048   2.957  11.636  0.2768 -0.9652 -1.1566
 4323TIP3   OH237163   3.207   3.662  11.183 -0.0164  0.2916 -0.1346
 4323TIP3    H137164   3.147   3.686  11.113 -0.1555  1.3147  0.3213
 4323TIP3    H237165   3.229   3.570  11.165 -2.5113 -0.4629  0.2587
 4324TIP3   OH237166   0.256   2.524  12.420 -0.2403  0.3865  0.0648
 4324TIP3    H137167   0.264   2.441  12.468 -0.3344 -0.2250 -0.9505
 4324TIP3    H237168   0.165   2.552  12.436 -0.5078 -0.2088 -0.3691
 4325TIP3   OH237169   6.494   1.515  12.030  0.1942  0.2360 -0.5441
 4325TIP3    H137170   6.400   1.504  12.016  0.4959  0.0172 -2.7325
 4325TIP3    H237171   6.518   1.586  11.971  1.2164  1.2209  0.9774
 4326TIP3   OH237172   5.979   5.009  10.917  0.0943 -0.1103 -0.8375
 4326TIP3    H137173   5.942   4.934  10.872  0.3237 -0.7771  0.0486
 4326TIP3    H237174   5.904   5.067  10.932 -0.5453 -1.1898  0.4408
 4327TIP3   OH237175   5.417   7.316  12.380 -0.5799 -0.4049 -0.0979
 4327TIP3    H137176   5.343   7.360  12.421  0.3242 -1.2126  2.6228
 4327TIP3    H237177   5.377   7.263  12.310 -2.1643  1.3051 -0.5721
 4328TIP3   OH237178   2.226   0.885  12.347 -0.0851 -0.3959 -0.3045
 4328TIP3    H137179   2.228   0.790  12.349 -0.2449 -0.4389 -1.4573
 4328TIP3    H237180   2.221   0.907  12.254  1.9899  0.7993 -0.1909
 4329TIP3   OH237181   2.074   2.584  12.517 -0.2396 -0.1172 -0.3998
 4329TIP3    H137182   2.168   2.593  12.535 -0.1829  0.9318 -1.1730
 4329TIP3    H237183   2.037   2.554  12.600  0.9440 -1.8181 -0.4191
 4330TIP3   OH237184   6.528   5.999  12.246 -0.6901 -0.9049  0.0573
 4330TIP3    H137185   6.529   5.904  12.263  0.2372 -1.4533 -2.5608
 4330TIP3    H237186   6.614   6.029  12.275 -1.1144 -0.7554  1.2208
 4331TIP3   OH237187   3.115   0.097  12.305 -0.0305  0.0643  0.0671
 4331TIP3    H137188   3.166   0.035  12.253 -0.8744 -0.4311 -0.2033
 4331TIP3    H237189   3.129   0.071  12.396  0.5553  0.2248  0.0256
 4332TIP3   OH237190   1.506   4.094  10.737 -0.2731  1.1745 -0.3234
 4332TIP3    H137191   1.454   4.154  10.791 -1.9014 -0.2102 -0.2402
 4332TIP3    H237192   1.456   4.084  10.656  0.3488  0.5362 -0.6490
 4333TIP3   OH237193   7.370   3.904  11.765  0.5001 -0.1970 -0.4568
 4333TIP3    H137194   7.413   3.830  11.722 -1.2329 -0.6780 -1.5003
 4333TIP3    H237195   7.343   3.961  11.693 -0.9200 -0.1333  0.0797
 4334TIP3   OH237196   4.028   6.680  12.749  0.2350  0.2560 -0.0361
 4334TIP3    H137197   4.014   6.597  12.794 -0.0663 -0.7499 -1.8892
 4334TIP3    H237198   4.044   6.656  12.658  3.1416  2.0166 -0.1488
 4335TIP3   OH237199   4.514   4.570  12.482 -0.6014  0.1088  0.5186
 4335TIP3    H137200   4.567   4.635  12.526  0.2314 -0.1464 -0.0835
 4335TIP3    H237201   4.424   4.603  12.489 -0.2065  1.2752  0.2850
 4336TIP3   OH237202   3.043   1.156  12.645 -0.0826 -0.0700  0.9139
 4336TIP3    H137203   3.073   1.074  12.607  0.4210  0.4824  0.0757
 4336TIP3    H237204   3.122   1.196  12.681  0.4763  1.7782 -2.0332
 4337TIP3   OH237205   5.010   2.789  12.776  0.0381 -0.3646  0.0617
 4337TIP3    H137206   5.067   2.854  12.817  1.1257 -1.8118  0.9541
 4337TIP3    H237207   5.055   2.765  12.695  0.9643 -1.7414  0.9192
 4338TIP3   OH237208   5.770   0.210  10.014  0.2772 -0.3616 -0.5076
 4338TIP3    H137209   5.702   0.149  10.041 -0.7409 -0.0616 -2.2709
 4338TIP3    H237210   5.729   0.296  10.019  2.2521  0.6081  3.8589
 4339TIP3   OH237211   7.633   7.122  10.316  0.5770  0.5849 -0.1102
 4339TIP3    H137212   7.686   7.050  10.352  2.0770  1.8975  0.4428
 4339TIP3    H237213   7.559   7.129  10.376  0.0150 -0.9479 -0.5852
 4340TIP3   OH237214   6.302   1.931  10.178 -0.2424 -0.4363 -0.2951
 4340TIP3    H137215   6.241   1.912  10.107  1.2470 -1.2063 -1.4415
 4340TIP3    H237216   6.325   2.023  10.165 -2.1602  0.2746  0.9969
 4341TIP3   OH237217   5.652   2.657  12.021 -0.0726 -0.7246  0.2097
 4341TIP3    H137218   5.561   2.638  12.001 -0.5450  0.7312  0.8023
 4341TIP3    H237219   5.662   2.750  12.001  1.1407 -0.7416  0.6408
 4342TIP3   OH237220   1.209   1.943  12.571  0.3105  0.6891  0.0483
 4342TIP3    H137221   1.229   1.981  12.656 -0.7429  0.8318  0.2426
 4342TIP3    H237222   1.118   1.916  12.577  0.6285 -0.6554 -0.5333
 4343TIP3   OH237223   2.790   1.071  10.668  0.1306  0.1793  0.1438
 4343TIP3    H137224   2.759   1.068  10.758 -0.2395  0.7021  0.0419
 4343TIP3    H237225   2.833   0.987  10.654  0.8668  0.3923  1.0426
 4344TIP3   OH237226   6.850   4.102  11.746 -0.1202 -0.4940 -0.2760
 4344TIP3    H137227   6.881   4.022  11.703  0.7086  0.5069 -1.6394
 4344TIP3    H237228   6.911   4.116  11.818 -0.1514 -0.9796 -0.1523
 4345TIP3   OH237229   5.163   1.541  11.264 -0.2182 -0.1951  0.3902
 4345TIP3    H137230   5.196   1.463  11.218  2.1998  1.0634 -0.1917
 4345TIP3    H237231   5.183   1.525  11.356  0.4222 -0.2138  0.2510
 4346TIP3   OH237232   7.172   3.719  12.082 -0.0015 -0.1391 -0.2603
 4346TIP3    H137233   7.192   3.660  12.009  2.3856 -0.8500  0.8661
 4346TIP3    H237234   7.089   3.686  12.117 -0.1083 -1.0914 -1.3326
 4347TIP3   OH237235   0.710   0.619  11.575 -0.5030 -0.1205 -0.0029
 4347TIP3    H137236   0.703   0.570  11.657  2.3522 -0.2785  0.2620
 4347TIP3    H237237   0.685   0.709  11.597 -0.7543 -0.3837  0.7844
 4348TIP3   OH237238   5.801   2.883  10.608  0.0063  0.3981 -0.0671
 4348TIP3    H137239   5.846   2.887  10.524  0.2002  0.7508  0.0501
 4348TIP3    H237240   5.708   2.890  10.586  0.1165  2.0790 -0.1642
 4349TIP3   OH237241   5.904   5.604  10.188  0.3389 -0.0296 -0.3279
 4349TIP3    H137242   5.857   5.619  10.106 -0.2023 -0.9291 -0.2004
 4349TIP3    H237243   5.835   5.590  10.253  0.7094 -2.5664 -0.3654
 4350TIP3   OH237244   5.087   0.583  11.834  0.0374  0.4026 -0.5750
 4350TIP3    H137245   5.137   0.665  11.842  0.0695  0.2755  0.6679
 4350TIP3    H237246   5.000   0.605  11.866  0.6203 -0.5435  1.8749
 4351TIP3   OH237247   2.848   1.478  11.408 -0.3451 -0.3281 -0.2447
 4351TIP3    H137248   2.934   1.519  11.399 -0.0470 -1.0035 -0.5175
 4351TIP3    H237249   2.864   1.385  11.399 -0.7691 -0.6859  2.1064
 4352TIP3   OH237250   6.365   5.602  10.161  0.1704 -0.6378 -0.2585
 4352TIP3    H137251   6.405   5.661  10.097  1.6558  0.9438  1.9631
 4352TIP3    H237252   6.396   5.515  10.136  2.0743  0.1238 -0.7649
 4353TIP3   OH237253   6.841   3.076  10.961 -0.2028 -0.3016 -0.2684
 4353TIP3    H137254   6.793   2.994  10.969 -0.8923  0.1718  0.6066
 4353TIP3    H237255   6.828   3.103  10.869  0.0693 -1.1831 -0.5722
 4354TIP3   OH237256   1.168   2.559  11.848 -0.5325  0.4456  0.2566
 4354TIP3    H137257   1.252   2.566  11.802 -0.7665  2.2646  0.0067
 4354TIP3    H237258   1.123   2.641  11.826 -2.8936 -0.9908 -0.5835
 4355TIP3   OH237259   4.311   6.680  11.507 -0.5486 -0.0537  0.0838
 4355TIP3    H137260   4.228   6.704  11.465 -0.0106 -0.8695 -1.5505
 4355TIP3    H237261   4.351   6.764  11.529 -1.3552  0.3734 -0.0322
 4356TIP3   OH237262   6.373   2.411  12.636 -0.3008  0.2521  0.1421
 4356TIP3    H137263   6.417   2.332  12.668 -1.1845  0.2976  1.5546
 4356TIP3    H237264   6.441   2.478  12.633  0.4552 -0.5268 -1.0584
 4357TIP3   OH237265   4.818   3.784  12.525  0.0700  0.0350 -0.6439
 4357TIP3    H137266   4.867   3.863  12.505  0.6625  0.1991  1.2810
 4357TIP3    H237267   4.883   3.714  12.529  0.0911  0.1072  1.1030
 4358TIP3   OH237268   3.211   7.200  12.444  0.6231 -0.2982 -0.1610
 4358TIP3    H137269   3.134   7.256  12.452  0.0090 -0.9618 -1.1768
 4358TIP3    H237270   3.273   7.235  12.508 -0.3128  0.5836  0.2938
 4359TIP3   OH237271   5.368   7.315  11.165  0.4525  0.4771  0.0701
 4359TIP3    H137272   5.451   7.292  11.123 -0.5471 -1.6946 -0.8357
 4359TIP3    H237273   5.309   7.335  11.092 -0.5378 -0.6158  0.5368
 4360TIP3   OH237274   2.360   3.227  10.815  0.2173  0.1456  0.4259
 4360TIP3    H137275   2.350   3.318  10.788 -0.2537 -0.2608 -0.8465
 4360TIP3    H237276   2.284   3.210  10.872 -1.9053 -0.4871 -2.3707
 4361TIP3   OH237277   1.918   4.063  10.473  0.2586  0.1756 -0.0467
 4361TIP3    H137278   2.008   4.056  10.505  0.1332  2.3597  0.9918
 4361TIP3    H237279   1.872   4.110  10.543 -0.9578  1.7948 -1.8517
 4362TIP3   OH237280   0.705   6.544  11.923  0.3842  0.0103  0.1562
 4362TIP3    H137281   0.684   6.622  11.872  1.0987 -0.2821 -0.5978
 4362TIP3    H237282   0.649   6.475  11.886  0.8859 -0.1965 -0.2255
 4363TIP3   OH237283   3.932   4.844  12.087 -0.2960 -0.0974  0.3977
 4363TIP3    H137284   3.966   4.782  12.022 -1.9690 -1.2036  0.5097
 4363TIP3    H237285   4.004   4.905  12.102  0.5551 -0.5265 -1.5927
 4364TIP3   OH237286   2.605   4.436  12.231 -0.1553  0.2835 -0.6058
 4364TIP3    H137287   2.568   4.499  12.293  2.9898  0.3131  1.5255
 4364TIP3    H237288   2.640   4.490  12.160  2.2067  1.1328  1.0359
 4365TIP3   OH237289   6.302   1.899  12.012 -0.1917  0.2794  0.2713
 4365TIP3    H137290   6.216   1.941  12.012 -0.5797 -0.4133  2.1268
 4365TIP3    H237291   6.317   1.875  11.921 -1.2443  1.8163 -0.3472
 4366TIP3   OH237292   7.084   6.993  10.968  0.0219 -0.3902 -0.4164
 4366TIP3    H137293   7.029   7.071  10.981  0.6247 -0.2426  1.5753
 4366TIP3    H237294   7.102   6.992  10.874  0.8359  2.4884 -0.3858
 4367TIP3   OH237295   5.822   3.755  12.666 -0.2570  0.2689 -0.2832
 4367TIP3    H137296   5.746   3.786  12.617 -1.1768  0.0195  0.9225
 4367TIP3    H237297   5.877   3.833  12.676 -0.6861  0.6176 -0.5784
 4368TIP3   OH237298   6.584   0.277  11.850  0.2328  0.1940 -0.7313
 4368TIP3    H137299   6.511   0.215  11.858 -1.1478  1.7643 -0.8555
 4368TIP3    H237300   6.598   0.308  11.940  1.3411 -0.7210 -0.5655
 4369TIP3   OH237301   2.666   0.375  11.625  0.9194  0.1115 -0.1062
 4369TIP3    H137302   2.634   0.439  11.688  1.1593 -0.9289  1.1293
 4369TIP3    H237303   2.653   0.416  11.540 -0.5558  1.0767  0.5450
 4370TIP3   OH237304   7.676   5.606  12.143  0.2219 -0.6007 -0.0844
 4370TIP3    H137305   7.708   5.695  12.128  2.4311 -1.4970 -0.9920
 4370TIP3    H237306   7.655   5.573  12.055 -0.5877 -0.9973  0.2465
 4371TIP3   OH237307   4.314   0.349  12.310  0.2173  0.4095 -0.0013
 4371TIP3    H137308   4.289   0.425  12.256  1.3255  1.7922  1.3372
 4371TIP3    H237309   4.351   0.287  12.247 -2.3553  0.1243 -1.3993
 4372TIP3   OH237310   2.688   5.563  10.866  0.7071  0.0146  0.4986
 4372TIP3    H137311   2.729   5.616  10.935  0.8326 -0.4369  0.7753
 4372TIP3    H237312   2.625   5.508  10.913  0.8901 -0.3914  0.2683
 4373TIP3   OH237313   5.127   1.877  11.914 -0.0049 -0.2036  0.0208
 4373TIP3    H137314   5.081   1.812  11.860 -3.0943  1.2579  0.7022
 4373TIP3    H237315   5.075   1.883  11.994  1.0589  2.0083  0.6233
 4374TIP3   OH237316   0.379   1.795  11.164  0.1348  0.5398 -1.0821
 4374TIP3    H137317   0.441   1.868  11.167  1.3763 -0.4984  0.3649
 4374TIP3    H237318   0.427   1.725  11.120  0.6951 -0.8072  1.4800
 4375TIP3   OH237319   4.533   6.601  11.673  0.0665 -0.2697  0.1201
 4375TIP3    H137320   4.461   6.586  11.611  0.0719 -1.7242  0.4391
 4375TIP3    H237321   4.562   6.513  11.698  2.4300  0.2583 -0.5159
 4376TIP3   OH237322   5.804   7.210  11.275  0.3619 -0.6013 -0.3256
 4376TIP3    H137323   5.718   7.223  11.314  0.2562 -1.7020 -0.1424
 4376TIP3    H237324   5.856   7.285  11.304 -0.7613  0.5435 -1.1535
 4377TIP3   OH237325   5.438   7.650  11.902  0.0450  0.0361  0.4013
 4377TIP3    H137326   5.410   7.725  11.850  0.9943 -0.7663 -1.3248
 4377TIP3    H237327   5.439   7.577  11.841  1.5393 -0.8804  1.4600
 4378TIP3   OH237328   2.439   6.036  12.117 -0.5411 -0.1696 -0.1408
 4378TIP3    H137329   2.459   5.960  12.061  2.6814  0.2482  0.2104
 4378TIP3    H237330   2.444   6.002  12.206  1.0596  0.3865  0.0249
 4379TIP3   OH237331   4.812   3.900  11.141  0.0009  0.3608  0.1874
 4379TIP3    H137332   4.742   3.861  11.194  0.1190  1.3573  1.1186
 4379TIP3    H237333   4.768   3.960  11.083 -0.0148  0.1613 -0.0095
 4380TIP3   OH237334   0.680   1.090   9.978  0.1833 -0.2519 -0.5802
 4380TIP3    H137335   0.719   1.066  10.062  0.1764 -1.1591 -0.8202
 4380TIP3    H237336   0.706   1.181   9.964  0.6599 -0.2730  0.1367
 4381TIP3   OH237337   1.017   1.690  11.352  0.8267  0.2227 -0.1248
 4381TIP3    H137338   0.961   1.613  11.357  0.9232  0.1523 -0.1098
 4381TIP3    H237339   1.027   1.718  11.443  0.1126  0.7508 -0.2028
 4382TIP3   OH237340   6.678   2.318  11.611 -0.4775  0.3807  0.2211
 4382TIP3    H137341   6.612   2.341  11.676 -0.2373  1.2886  0.1524
 4382TIP3    H237342   6.746   2.384  11.621  0.2684 -0.3514  0.0638
 4383TIP3   OH237343   1.168   4.430  12.084  0.0127  0.3881 -0.5730
 4383TIP3    H137344   1.119   4.501  12.126  0.9606  1.4829 -1.2289
 4383TIP3    H237345   1.135   4.350  12.125 -2.0411  1.0862 -0.7275
 4384TIP3   OH237346   4.442   5.761  10.150 -0.2018  0.1506  0.3129
 4384TIP3    H137347   4.385   5.685  10.153 -0.5725  0.2450 -2.4219
 4384TIP3    H237348   4.390   5.829  10.109  0.2864  1.8191  2.2636
 4385TIP3   OH237349   5.695   1.820  11.028  0.2336 -0.2894  0.5714
 4385TIP3    H137350   5.715   1.739  10.983  3.0330  0.7293 -0.2196
 4385TIP3    H237351   5.760   1.825  11.099  0.9573  1.7936 -0.1633
 4386TIP3   OH237352   0.873   1.646   9.752  0.7662  0.6071  0.3337
 4386TIP3    H137353   0.910   1.650   9.840 -1.6171  1.6671  1.3710
 4386TIP3    H237354   0.785   1.610   9.764  0.9597 -0.8533 -1.8712
 4387TIP3   OH237355   4.519   4.140  11.880  0.6898  0.0477 -0.1079
 4387TIP3    H137356   4.457   4.212  11.868  1.6421  1.2464  1.6516
 4387TIP3    H237357   4.603   4.183  11.896  1.0731 -1.3608  2.1888
 4388TIP3   OH237358   0.928   0.748  11.398  0.5393  0.0343  1.0350
 4388TIP3    H137359   0.869   0.726  11.470  0.3359  2.0587  1.5268
 4388TIP3    H237360   0.948   0.841  11.409  1.2770  0.1786 -0.9760
 4389TIP3   OH237361   3.737   2.376  10.975 -0.0003 -0.2390  0.6590
 4389TIP3    H137362   3.697   2.394  11.060 -0.5502 -0.5438  0.4730
 4389TIP3    H237363   3.733   2.460  10.929  1.6952  0.3333  1.4686
 4390TIP3   OH237364   2.238   7.264  11.629  0.3062  0.6517 -0.1081
 4390TIP3    H137365   2.319   7.215  11.644  0.0469  0.3590  0.4052
 4390TIP3    H237366   2.258   7.324  11.557  0.5079 -0.5177 -1.0586
 4391TIP3   OH237367   2.096   3.136  11.892  0.6804 -0.4606 -0.1399
 4391TIP3    H137368   2.169   3.128  11.952  0.7207 -0.8422 -0.2348
 4391TIP3    H237369   2.120   3.082  11.817 -0.2877 -1.7258  0.4158
 4392TIP3   OH237370   7.541   4.260  11.307  0.8523  0.1248  0.0358
 4392TIP3    H137371   7.455   4.231  11.277  0.7811  1.0267 -0.6639
 4392TIP3    H237372   7.562   4.335  11.252  2.0907 -0.0704  0.2032
 4393TIP3   OH237373   1.721   1.578  12.062  0.1758 -0.3867  0.2506
 4393TIP3    H137374   1.740   1.485  12.069 -0.8041 -0.5618  0.8729
 4393TIP3    H237375   1.684   1.601  12.148 -0.5140  0.3391 -0.2254
 4394TIP3   OH237376   5.304   5.171  10.553  0.4266  0.4152  0.5139
 4394TIP3    H137377   5.333   5.106  10.490 -0.0709  0.9303 -0.2546
 4394TIP3    H237378   5.311   5.255  10.508 -0.8521  0.7002  0.7787
 4395TIP3   OH237379   5.491   2.537  12.684  0.4699  0.5375 -0.3702
 4395TIP3    H137380   5.399   2.538  12.712  0.0114 -1.0374 -1.6842
 4395TIP3    H237381   5.496   2.606  12.618  0.3516  0.9400  0.0352
 4396TIP3   OH237382   0.681   4.121  11.155  0.1734 -0.4059 -0.5554
 4396TIP3    H137383   0.691   4.182  11.228 -0.2263 -1.3566  0.3245
 4396TIP3    H237384   0.706   4.036  11.192 -0.3778 -0.9654 -1.4341
 4397TIP3   OH237385   4.225   3.918  11.703  0.5508 -0.5824  0.0241
 4397TIP3    H137386   4.183   3.970  11.634  2.5637 -0.2857 -1.0624
 4397TIP3    H237387   4.153   3.871  11.744 -0.8849  0.1999 -1.4546
 4398TIP3   OH237388   0.633   5.548  10.889  0.5751 -0.6426 -0.2753
 4398TIP3    H137389   0.544   5.580  10.905  1.0958 -0.0773  1.8549
 4398TIP3    H237390   0.685   5.627  10.876  0.9210 -0.9330 -0.6792
 4399TIP3   OH237391   2.338   5.695  10.953  0.0011  0.1963  0.0989
 4399TIP3    H137392   2.361   5.604  10.971  0.5499  0.0844 -1.1213
 4399TIP3    H237393   2.374   5.743  11.028  0.9078 -0.4315  0.0843
 4400TIP3   OH237394   4.506   7.303  10.690 -0.2516 -0.1799 -0.3733
 4400TIP3    H137395   4.479   7.299  10.782 -0.1736  2.1168 -0.1763
 4400TIP3    H237396   4.431   7.340  10.644  1.2795  3.5233 -0.2917
 4401TIP3   OH237397   6.609   3.474  11.117  0.1469  0.5539  0.3566
 4401TIP3    H137398   6.585   3.382  11.108 -0.2363  0.7848 -1.3090
 4401TIP3    H237399   6.529   3.522  11.099  0.6417  1.2333 -0.1053
 4402TIP3   OH237400   2.608   0.820  11.930  0.3030 -0.1290  0.1301
 4402TIP3    H137401   2.551   0.773  11.991 -1.3101  0.1811 -1.0594
 4402TIP3    H237402   2.683   0.847  11.983 -0.9826  0.0554  1.9679
 4403TIP3   OH237403   4.775   5.849  12.085  0.4982  0.3384  0.4509
 4403TIP3    H137404   4.693   5.826  12.128  0.5346  1.1628  0.9862
 4403TIP3    H237405   4.843   5.828  12.149  0.6122  0.7744  0.4796
 4404TIP3   OH237406   3.669   2.390  12.477 -0.3718 -0.0613  0.2029
 4404TIP3    H137407   3.698   2.413  12.388 -1.4439  0.7140  0.0364
 4404TIP3    H237408   3.592   2.444  12.492 -1.0683 -1.2433  1.0627
 4405TIP3   OH237409   6.789   1.948  11.401  0.1868 -0.1527 -0.5577
 4405TIP3    H137410   6.726   1.934  11.471 -1.4467 -0.5027 -2.0210
 4405TIP3    H237411   6.846   2.018  11.433 -0.2456 -0.5780  1.2460
 4406TIP3   OH237412   7.600   0.838  11.927  0.3579  0.4046 -0.4421
 4406TIP3    H137413   7.616   0.836  11.833  0.9977 -2.0147 -0.3339
 4406TIP3    H237414   7.683   0.810  11.966 -0.0957  0.7570  0.8265
 4407TIP3   OH237415   2.603   7.034  11.973  0.2236  0.5407 -0.6096
 4407TIP3    H137416   2.592   7.111  11.918 -0.1430  0.2671 -0.9278
 4407TIP3    H237417   2.516   7.020  12.011  0.6259  1.1104  0.5555
 4408TIP3   OH237418   4.746   1.909  11.892 -0.6913 -0.5847 -0.2462
 4408TIP3    H137419   4.776   1.948  11.974 -0.1730 -0.7185 -0.3727
 4408TIP3    H237420   4.650   1.918  11.895 -0.5721  1.1621 -0.4958
 4409TIP3   OH237421   6.042   6.232  11.535 -0.0741 -0.7928  0.5321
 4409TIP3    H137422   6.110   6.296  11.515  0.2149 -0.9072  1.1128
 4409TIP3    H237423   5.971   6.252  11.475  0.0666 -0.0107  0.6184
 4410TIP3   OH237424   7.588   5.802  11.431 -0.5970 -0.2551 -0.0203
 4410TIP3    H137425   7.642   5.801  11.352  0.3174  0.4455  0.5689
 4410TIP3    H237426   7.644   5.762  11.498 -0.6818  0.7384  0.6636
 4411TIP3   OH237427   1.118   6.861  11.090 -0.0379  0.5491 -0.2079
 4411TIP3    H137428   1.033   6.893  11.062  0.7250  2.7988 -0.1689
 4411TIP3    H237429   1.179   6.895  11.024  0.9155 -0.4833  0.1038
 4412TIP3   OH237430   6.987   5.327  10.831  0.0742 -0.1688 -0.0582
 4412TIP3    H137431   7.037   5.282  10.763  0.4732  0.0147  0.1098
 4412TIP3    H237432   6.926   5.261  10.864  1.7934 -1.1443  1.3623
 4413TIP3   OH237433   4.688   2.004  11.507  0.0005  0.1025 -0.1825
 4413TIP3    H137434   4.740   2.078  11.537 -0.9130  0.8334 -0.3643
 4413TIP3    H237435   4.752   1.935  11.490  0.8443  0.7809  0.1850
 4414TIP3   OH237436   7.212   0.213  12.474 -0.2675 -0.1074 -0.1044
 4414TIP3    H137437   7.283   0.241  12.532  1.0796  0.2807 -1.8508
 4414TIP3    H237438   7.241   0.127  12.441 -1.4262 -0.7267  0.4513
 4415TIP3   OH237439   0.385   0.352  10.898  0.0091 -0.3704  0.3868
 4415TIP3    H137440   0.342   0.398  10.826 -0.4311  0.5332  1.2044
 4415TIP3    H237441   0.363   0.403  10.976  3.2048  0.6696  0.7910
 4416TIP3   OH237442   0.311   4.980  12.113  0.5080 -0.1546 -0.1139
 4416TIP3    H137443   0.242   4.984  12.179  0.6069 -0.0194 -0.0198
 4416TIP3    H237444   0.338   5.070  12.101 -2.0027  0.3628 -2.9931
 4417TIP3   OH237445   5.393   2.258  11.095 -0.2571  0.5396 -0.0578
 4417TIP3    H137446   5.417   2.214  11.013  0.0289  1.1038 -0.2876
 4417TIP3    H237447   5.341   2.194  11.143  1.7842 -0.7710  0.5045
 4418TIP3   OH237448   1.418   6.932  11.884 -0.3138  0.3884  0.0536
 4418TIP3    H137449   1.367   6.919  11.805 -0.6253  0.8057  0.1807
 4418TIP3    H237450   1.508   6.912  11.859 -0.2393  1.5513 -0.7032
 4419TIP3   OH237451   0.498   7.424  11.098  0.4656 -0.1223 -0.8827
 4419TIP3    H137452   0.527   7.513  11.120  0.5492  0.0655 -1.7433
 4419TIP3    H237453   0.465   7.431  11.009  2.3722 -1.3949 -1.7350
 4420TIP3   OH237454   1.660   3.287  11.486 -0.2454  0.1417 -0.0003
 4420TIP3    H137455   1.571   3.317  11.468  0.0740  0.8030 -0.4970
 4420TIP3    H237456   1.703   3.288  11.401 -0.2786 -2.0012 -0.1184
 4421TIP3   OH237457   0.378   5.244   9.957 -0.2619 -0.4590  0.0854
 4421TIP3    H137458   0.458   5.267   9.910  0.5884 -2.0603  0.6844
 4421TIP3    H237459   0.334   5.328   9.971  1.4690  0.5056  0.0218
 4422TIP3   OH237460   0.575   2.809  12.218  0.1739  0.0127 -0.2089
 4422TIP3    H137461   0.528   2.811  12.135  1.0159  2.3125 -0.7076
 4422TIP3    H237462   0.664   2.784  12.196  0.2659  0.0796  0.0764
 4423TIP3   OH237463   1.261   3.320  12.194 -0.7714 -0.5214  0.4791
 4423TIP3    H137464   1.325   3.317  12.124 -1.7180 -0.6880 -0.4084
 4423TIP3    H237465   1.292   3.257  12.259  0.4498  0.1039  0.5266
 4424TIP3   OH237466   3.850   7.615  12.678  0.4166  0.2923 -0.3632
 4424TIP3    H137467   3.849   7.579  12.589  0.8081  1.1176 -0.7134
 4424TIP3    H237468   3.911   7.559  12.725  0.4858  0.0682 -0.7096
 4425TIP3   OH237469   5.745   3.012  12.474 -0.2807 -0.3624  0.5184
 4425TIP3    H137470   5.793   2.985  12.396 -0.6376 -0.7065  0.4116
 4425TIP3    H237471   5.659   2.969  12.465 -0.1793 -0.7573  1.3055
 4426TIP3   OH237472   7.372   5.370  10.658  0.7132 -0.4740  0.5413
 4426TIP3    H137473   7.294   5.414  10.622  1.1093 -0.8474 -0.8220
 4426TIP3    H237474   7.404   5.430  10.726  2.2093  2.2681 -2.3478
 4427TIP3   OH237475   5.334   6.354  12.403  0.3006  0.1251  0.7504
 4427TIP3    H137476   5.338   6.402  12.486  1.1783 -0.1469  0.8828
 4427TIP3    H237477   5.242   6.354  12.379  0.1812  1.1600  1.1671
 4428TIP3   OH237478   4.366   7.502  11.494  0.4612 -0.4075 -0.2692
 4428TIP3    H137479   4.320   7.439  11.550 -0.0402 -0.7282 -1.0269
 4428TIP3    H237480   4.459   7.486  11.511  0.3169 -0.4064  0.5660
 4429TIP3   OH237481   2.784   2.088  12.172  0.6933  0.1191  0.6027
 4429TIP3    H137482   2.808   2.054  12.086 -2.7048 -2.8886  0.5968
 4429TIP3    H237483   2.822   2.026  12.234 -0.1880 -0.0275  1.0115
 4430TIP3   OH237484   4.870   2.739  12.420 -0.3206 -0.0502 -0.1561
 4430TIP3    H137485   4.821   2.698  12.350  0.5843 -0.3740 -0.6168
 4430TIP3    H237486   4.810   2.739  12.495 -1.2920  0.2917 -0.9122
 4431TIP3   OH237487   2.806   5.455  11.728  0.1269  0.7616  0.8048
 4431TIP3    H137488   2.885   5.453  11.674 -0.1386  2.2421  0.2984
 4431TIP3    H237489   2.777   5.364  11.731  1.3384  0.3283  0.2408
 4432TIP3   OH237490   1.431   2.256  12.350  0.2178  0.8778 -0.0255
 4432TIP3    H137491   1.409   2.294  12.434  1.1621  1.5534 -0.0758
 4432TIP3    H237492   1.484   2.322  12.306  1.3181 -0.1964 -0.3890
 4433TIP3   OH237493   5.177   3.705  10.410 -0.2866 -0.2270  0.5919
 4433TIP3    H137494   5.092   3.695  10.368 -0.1730 -1.2609  0.5724
 4433TIP3    H237495   5.234   3.739  10.341 -0.4071 -0.6889  0.2550
 4434TIP3   OH237496   4.323   5.784  11.308  0.1885 -0.2366 -0.7180
 4434TIP3    H137497   4.242   5.764  11.260  1.4414 -2.5585 -2.0383
 4434TIP3    H237498   4.337   5.878  11.292 -1.3302 -0.1663 -1.9210
 4435TIP3   OH237499   7.208   0.791  11.314 -0.1071 -0.3377 -0.1555
 4435TIP3    H137500   7.128   0.820  11.359 -0.0539 -1.8228  0.9686
 4435TIP3    H237501   7.197   0.697  11.303  0.4906 -0.2161 -2.1291
 4436TIP3   OH237502   3.508   1.186  10.494 -0.3423 -0.0794  0.0653
 4436TIP3    H137503   3.575   1.117  10.492  0.1458  0.3948 -0.2935
 4436TIP3    H237504   3.429   1.142  10.526  0.1149 -0.6718  0.4139
 4437TIP3   OH237505   2.338   3.312  12.721  0.2653 -0.3287  0.2968
 4437TIP3    H137506   2.281   3.388  12.711  0.4771 -0.1208  0.6431
 4437TIP3    H237507   2.371   3.318  12.810 -0.7000 -1.5301  0.7679
 4438TIP3   OH237508   7.475   2.996  11.950 -0.1713  0.3259 -0.3437
 4438TIP3    H137509   7.468   2.929  12.018  0.1694  1.1691  0.5489
 4438TIP3    H237510   7.547   2.967  11.895 -0.2324 -0.2081 -0.1476
 4439TIP3   OH237511   5.099   6.359  12.677 -0.6008 -0.6229  0.1846
 4439TIP3    H137512   5.086   6.453  12.665 -2.0042 -0.4690  2.3299
 4439TIP3    H237513   5.016   6.320  12.654 -0.4051 -1.2025  0.4365
 4440TIP3   OH237514   0.842   6.550  11.634 -0.0491  0.2219  0.0678
 4440TIP3    H137515   0.909   6.516  11.575 -0.1600  0.3137 -0.1127
 4440TIP3    H237516   0.888   6.617  11.685 -0.2685  1.0917 -0.8391
 4441TIP3   OH237517   3.675   1.312  12.247 -0.1523 -0.1564 -0.6235
 4441TIP3    H137518   3.694   1.406  12.237  0.4841 -0.3485 -1.3257
 4441TIP3    H237519   3.698   1.274  12.162 -0.7183 -0.9042 -0.4533
 4442TIP3   OH237520   1.598   7.227  11.949 -0.2212 -0.1237 -0.1143
 4442TIP3    H137521   1.589   7.162  12.018  0.5390 -1.4581 -1.2259
 4442TIP3    H237522   1.509   7.237  11.914 -0.8608  1.4907  1.8006
 4443TIP3   OH237523   5.112   6.835  10.765 -0.3080 -0.0661 -0.3290
 4443TIP3    H137524   5.064   6.805  10.843 -0.3623  1.0131  0.0795
 4443TIP3    H237525   5.186   6.776  10.759 -1.1176 -1.1087 -0.3475
 4444TIP3   OH237526   3.539   6.792  12.009 -0.8113 -0.1848  0.4037
 4444TIP3    H137527   3.619   6.845  12.015  0.0916 -1.4109 -0.3142
 4444TIP3    H237528   3.533   6.750  12.095 -0.5438 -0.2852  0.3743
 4445TIP3   OH237529   5.950   5.266  10.649 -0.4624 -0.2091 -0.7862
 4445TIP3    H137530   6.028   5.213  10.661  0.0281  0.3108 -1.5789
 4445TIP3    H237531   5.931   5.302  10.735 -0.8470 -1.7001 -0.2144
 4446TIP3   OH237532   7.558   6.850  10.219 -0.5043  0.0265  0.2534
 4446TIP3    H137533   7.560   6.906  10.142  0.7136  0.2190  0.4049
 4446TIP3    H237534   7.626   6.885  10.277 -1.8240  0.2872  1.7222
 4447TIP3   OH237535   1.272   1.153  12.325  0.2862 -0.0465 -0.1738
 4447TIP3    H137536   1.254   1.141  12.232 -0.8819  1.4339 -0.1863
 4447TIP3    H237537   1.228   1.079  12.368  2.4391 -1.8286 -0.8696
 4448TIP3   OH237538   0.508   3.095  12.020 -0.1151  0.1122 -0.1261
 4448TIP3    H137539   0.467   3.037  12.084  2.3984 -1.2651  0.4093
 4448TIP3    H237540   0.438   3.151  11.989 -1.8307 -0.4535  2.4370
 4449TIP3   OH237541   6.271   0.349  10.826  0.1460 -0.3486  0.2509
 4449TIP3    H137542   6.363   0.335  10.850  0.2159  1.1918  1.0566
 4449TIP3    H237543   6.227   0.268  10.851  1.0079 -0.4743  1.4708
 4450TIP3   OH237544   7.010   6.562  10.715 -0.7160  0.5730 -0.0579
 4450TIP3    H137545   7.059   6.589  10.793  0.9185 -1.0886 -0.4374
 4450TIP3    H237546   7.071   6.578  10.642 -2.5710  3.0444 -1.2064
 4451TIP3   OH237547   5.367   0.719  10.919  0.1471 -0.6524 -0.5468
 4451TIP3    H137548   5.383   0.758  10.833  2.2949 -0.5871 -0.1879
 4451TIP3    H237549   5.308   0.646  10.902 -1.6157  0.9414 -1.6508
 4452TIP3   OH237550   7.263   7.432   9.946 -0.2700  0.5177  0.4465
 4452TIP3    H137551   7.346   7.418   9.901 -1.1655 -0.0546 -1.1230
 4452TIP3    H237552   7.236   7.520   9.920  0.6280  1.4319  2.3690
 4453TIP3   OH237553   4.340   5.747  10.572 -0.0253 -0.0246 -0.6917
 4453TIP3    H137554   4.386   5.675  10.529  0.3733  0.9652 -2.0049
 4453TIP3    H237555   4.289   5.788  10.501  0.7131  1.7117 -0.2699
 4454TIP3   OH237556   6.905   0.852  11.884  0.3403 -0.6839 -0.5073
 4454TIP3    H137557   6.916   0.947  11.876  0.6325 -0.5537  1.1318
 4454TIP3    H237558   6.811   0.840  11.899  0.3289 -0.6409 -0.5457
 4455TIP3   OH237559   5.107   1.211  11.953 -0.5543 -0.4543 -0.5709
 4455TIP3    H137560   5.026   1.163  11.939 -0.3846 -0.4554 -1.5946
 4455TIP3    H237561   5.094   1.256  12.037 -1.0615 -1.5547 -0.0383
 4456TIP3   OH237562   5.209   5.988  11.457  0.2478 -0.1431 -0.3088
 4456TIP3    H137563   5.182   6.073  11.492 -2.3284 -1.0659  0.1482
 4456TIP3    H237564   5.231   6.005  11.365 -2.3107  0.7213 -0.8336
 4457TIP3   OH237565   3.660   1.634  11.631  0.5880 -0.1899  0.3696
 4457TIP3    H137566   3.749   1.668  11.641  0.4097 -0.1991  2.1972
 4457TIP3    H237567   3.606   1.713  11.625  0.5282 -0.1560  1.2345
 4458TIP3   OH237568   2.109   7.404  10.860 -0.3176  0.2389  0.0019
 4458TIP3    H137569   2.189   7.456  10.847  0.0851 -0.4394 -0.3433
 4458TIP3    H237570   2.069   7.439  10.939  1.5192 -0.8672  1.5184
 4459TIP3   OH237571   3.048   4.141  10.482  0.2098  0.4408 -0.2334
 4459TIP3    H137572   2.994   4.137  10.561  0.3710  1.6305 -0.0553
 4459TIP3    H237573   3.124   4.086  10.503 -0.7552 -1.0298 -0.3905
 4460TIP3   OH237574   5.914   7.432  10.712 -0.1484 -0.0153  0.0283
 4460TIP3    H137575   5.904   7.394  10.625  0.3201  0.9697 -0.4677
 4460TIP3    H237576   6.003   7.467  10.713  0.2605 -1.0103  1.3054
 4461TIP3   OH237577   6.607   5.171  11.778  0.7101  0.2696 -0.3057
 4461TIP3    H137578   6.631   5.085  11.812 -0.2314  0.3432  0.6035
 4461TIP3    H237579   6.684   5.226  11.792  0.9942 -0.1986 -0.0333
 4462TIP3   OH237580   4.808   4.610  10.606  0.3294  0.2885 -0.5509
 4462TIP3    H137581   4.854   4.683  10.648  0.2053  0.4224 -0.6493
 4462TIP3    H237582   4.834   4.616  10.514  0.4409  0.1150 -0.5311
 4463TIP3   OH237583   2.815   7.261  12.563 -0.2742  0.5138 -0.3055
 4463TIP3    H137584   2.891   7.302  12.523 -0.6775 -0.3423 -2.0344
 4463TIP3    H237585   2.770   7.332  12.608  0.1131  1.5758 -1.5468
 4464TIP3   OH237586   2.870   3.784  12.012 -0.2161 -0.2164 -0.2893
 4464TIP3    H137587   2.898   3.777  11.921  1.8479 -1.1713  0.3508
 4464TIP3    H237588   2.930   3.726  12.060 -0.5906  1.0225  1.8077
 4465TIP3   OH237589   0.365   0.734  11.884  0.0615  0.1460  0.3404
 4465TIP3    H137590   0.434   0.800  11.883  0.5180 -0.2481 -2.4019
 4465TIP3    H237591   0.296   0.772  11.939  1.1407  1.9870  0.4960
 4466TIP3   OH237592   3.117   4.067  11.931 -0.0492 -0.0008  0.3274
 4466TIP3    H137593   3.101   3.977  11.960 -0.5380  0.1433  0.5152
 4466TIP3    H237594   3.143   4.114  12.011  1.0187 -0.1525  0.0890
 4467TIP3   OH237595   1.290   7.029  10.033 -0.2675 -0.3394 -0.0946
 4467TIP3    H137596   1.345   7.065   9.963 -0.7945  2.6170  0.8470
 4467TIP3    H237597   1.346   6.966  10.078  1.2004  0.1520 -1.1553
 4468TIP3   OH237598   7.603   2.566  11.236  0.4043 -0.6339  0.7822
 4468TIP3    H137599   7.686   2.534  11.270  1.1981  1.4975  1.0174
 4468TIP3    H237600   7.617   2.660  11.224 -2.2827  0.0006  1.8666
 4469TIP3   OH237601   1.923   1.689  11.914  0.4293 -0.5638  0.1112
 4469TIP3    H137602   1.874   1.772  11.916  1.3896  0.0654 -0.9238
 4469TIP3    H237603   1.880   1.634  11.980 -1.3332  0.1276 -0.3935
 4470TIP3   OH237604   2.559   4.943  11.071 -0.6272 -0.3724 -0.3837
 4470TIP3    H137605   2.466   4.929  11.090 -0.2537 -0.9379  1.1711
 4470TIP3    H237606   2.603   4.870  11.115  0.6861  0.8806  0.4597
 4471TIP3   OH237607   2.954   3.369  11.155  0.0094 -0.4888 -0.5420
 4471TIP3    H137608   2.997   3.374  11.070  1.3046  2.1286  0.1539
 4471TIP3    H237609   2.881   3.431  11.148  0.9227  0.7593  0.6255
 4472TIP3   OH237610   3.495   3.899  11.479  0.4147  0.3817 -0.6160
 4472TIP3    H137611   3.569   3.957  11.462  0.0304  0.5825 -1.6284
 4472TIP3    H237612   3.484   3.903  11.574  1.0085  1.2019 -0.5682
 4473TIP3   OH237613   1.097   0.599  10.108 -0.9700  0.1577  0.0694
 4473TIP3    H137614   1.143   0.585  10.025 -1.3698 -0.4768 -0.0558
 4473TIP3    H237615   1.118   0.689  10.132 -0.6114  0.2554 -0.5714
 4474TIP3   OH237616   4.231   7.068  12.427 -0.0143 -0.2151  0.5326
 4474TIP3    H137617   4.275   7.152  12.414 -1.7708  1.2691  3.2770
 4474TIP3    H237618   4.142   7.092  12.454 -0.6082 -2.9733  1.3062
 4475TIP3   OH237619   5.005   6.010  12.593  0.3297  0.4802 -0.0749
 4475TIP3    H137620   4.989   6.102  12.614  0.4319  0.4111  0.3209
 4475TIP3    H237621   5.021   6.009  12.499  0.4857  0.8888 -0.0550
 4476TIP3   OH237622   7.662   3.722  11.904  0.0034  0.4608  0.6385
 4476TIP3    H137623   7.641   3.809  11.938 -0.6349  0.2906  0.6881
 4476TIP3    H237624   7.635   3.662  11.974 -3.4201 -0.0632 -0.9460
 4477TIP3   OH237625   0.728   6.311  10.453 -0.2238 -0.1465 -0.1007
 4477TIP3    H137626   0.697   6.364  10.526 -0.7810 -0.9812  0.2874
 4477TIP3    H237627   0.710   6.365  10.375 -0.6152  0.3070  0.2932
 4478TIP3   OH237628   3.694   3.785  10.624 -0.8536 -1.2391 -0.5841
 4478TIP3    H137629   3.614   3.821  10.585 -1.1712 -2.7038 -1.3444
 4478TIP3    H237630   3.701   3.828  10.709 -2.2096 -0.7666 -0.6972
 4479TIP3   OH237631   5.533   1.801  10.511 -0.5195  0.4083  0.1207
 4479TIP3    H137632   5.482   1.733  10.467 -0.7013  0.4268  0.3021
 4479TIP3    H237633   5.594   1.752  10.567  1.4570  0.2943 -2.0117
 4480TIP3   OH237634   7.598   2.076  11.772 -0.1708 -0.3468 -0.4485
 4480TIP3    H137635   7.608   2.171  11.765 -0.4568 -0.1769  1.0878
 4480TIP3    H237636   7.514   2.057  11.730 -0.7138  0.2605  0.3352
 4481TIP3   OH237637   1.662   2.455  12.747  0.2977  0.2141 -0.3601
 4481TIP3    H137638   1.729   2.461  12.679 -0.6685 -0.7698 -1.4391
 4481TIP3    H237639   1.637   2.363  12.749 -1.4066  0.6407 -0.3600
 4482TIP3   OH237640   6.944   7.403  10.808  0.1685  0.1483 -0.7592
 4482TIP3    H137641   7.029   7.424  10.770  0.0619  0.2399 -0.9477
 4482TIP3    H237642   6.928   7.475  10.870  0.0930  0.2869 -0.9398
 4483TIP3   OH237643   1.936   2.635  11.239 -0.2411  0.2992  0.1372
 4483TIP3    H137644   1.981   2.584  11.307  0.4813 -0.6891 -1.0519
 4483TIP3    H237645   1.948   2.726  11.267 -0.6014 -0.0995  1.7126
 4484TIP3   OH237646   7.089   2.344  10.598  0.3507  0.5079  0.1212
 4484TIP3    H137647   7.154   2.404  10.634  2.1235 -1.3537  0.1812
 4484TIP3    H237648   7.115   2.331  10.508 -0.1915  0.0475  0.0225
 4485TIP3   OH237649   7.124   1.053  11.020  0.3440  0.4416  0.2005
 4485TIP3    H137650   7.075   1.112  10.963  2.0027  0.2628 -1.5202
 4485TIP3    H237651   7.069   0.975  11.028 -0.0984  0.6309 -0.8514
 4486TIP3   OH237652   4.644   7.298  12.360 -0.0672  0.2204  0.8304
 4486TIP3    H137653   4.565   7.247  12.341  0.4721 -0.5005  0.4505
 4486TIP3    H237654   4.627   7.339  12.444 -1.1118  0.6173  0.4365
 4487TIP3   OH237655   0.504   7.315  12.409 -0.1526  0.5919 -0.2529
 4487TIP3    H137656   0.439   7.259  12.451  0.2881  0.0758 -0.2525
 4487TIP3    H237657   0.511   7.281  12.320  3.1419 -2.1465  0.8140
 4488TIP3   OH237658   1.803   4.387  10.458  0.4620  0.9776 -0.4944
 4488TIP3    H137659   1.886   4.358  10.420 -0.9386 -1.6579 -1.8503
 4488TIP3    H237660   1.782   4.319  10.523  0.3476  2.7744  1.4498
 4489TIP3   OH237661   4.018   3.671  12.554  0.1701 -0.0216 -0.3115
 4489TIP3    H137662   4.111   3.694  12.563  0.4743 -0.7249 -1.4457
 4489TIP3    H237663   3.971   3.744  12.595  1.2407 -0.5716  2.0468
 4490TIP3   OH237664   5.197   2.136  11.246 -0.2598  0.9246 -0.1482
 4490TIP3    H137665   5.138   2.061  11.236 -1.2019  1.3284  1.8038
 4490TIP3    H237666   5.142   2.205  11.283  0.4558  2.8085 -2.3512
 4491TIP3   OH237667   7.631   3.419  10.820 -0.4805 -0.4995 -0.1078
 4491TIP3    H137668   7.641   3.394  10.727 -1.3667 -0.3582 -0.2442
 4491TIP3    H237669   7.595   3.507  10.818 -0.2193 -0.3803  0.3774
 4492TIP3   OH237670   2.787   3.615  12.510  0.2489  0.0734 -0.4078
 4492TIP3    H137671   2.790   3.561  12.430  1.3951 -0.0223 -0.3113
 4492TIP3    H237672   2.798   3.552  12.581  2.6847  0.4921 -0.3337
 4493TIP3   OH237673   2.120   0.274  11.307 -0.4600  0.7560  0.3895
 4493TIP3    H137674   2.099   0.190  11.266 -2.0926  0.9526  0.7506
 4493TIP3    H237675   2.198   0.256  11.359 -0.1992 -0.2788 -0.3078
 4494TIP3   OH237676   1.569   5.963  11.081 -0.3969 -0.2107  0.0172
 4494TIP3    H137677   1.560   5.938  11.172 -0.1583  0.4304  0.2271
 4494TIP3    H237678   1.582   5.881  11.034 -0.2957 -0.5231  0.5872
 4495TIP3   OH237679   4.775   4.276  11.894 -0.5600  0.2838  0.2571
 4495TIP3    H137680   4.853   4.253  11.843 -0.6457  0.5592  0.0009
 4495TIP3    H237681   4.792   4.241  11.981  1.6437  3.8245  1.4280
 4496TIP3   OH237682   1.099   4.765  11.380 -0.8114  0.3856  0.4055
 4496TIP3    H137683   1.119   4.704  11.451  0.6776  0.0268 -0.2894
 4496TIP3    H237684   1.024   4.727  11.335 -0.9751 -0.0358  1.0297
 4497TIP3   OH237685   2.525   6.511  12.416  0.2287 -0.2784 -0.0002
 4497TIP3    H137686   2.438   6.547  12.401 -0.7405 -1.7393  1.6461
 4497TIP3    H237687   2.511   6.442  12.481  2.7006 -0.2014  0.7148
 4498TIP3   OH237688   6.903   1.052  10.787 -0.1471  0.1359  0.0614
 4498TIP3    H137689   6.808   1.041  10.795 -0.5604  1.4682 -2.1288
 4498TIP3    H237690   6.921   1.137  10.828  0.1932 -0.3048  0.8490
 4499TIP3   OH237691   1.413   2.950  10.967  0.0076  0.4504  0.7797
 4499TIP3    H137692   1.361   2.963  11.046  0.5769 -0.4147  1.3054
 4499TIP3    H237693   1.432   3.039  10.937 -1.1826  0.7879  0.9531
 4500TIP3   OH237694   6.328   2.483  12.934  0.6416  0.1924 -0.1827
 4500TIP3    H137695   6.253   2.541  12.925  0.0738 -0.7514 -2.3821
 4500TIP3    H237696   6.340   2.446  12.846  2.7262 -0.8613  0.4718
 4501TIP3   OH237697   0.104   4.444  11.369  0.4890  0.6609 -0.2613
 4501TIP3    H137698   0.175   4.422  11.309  0.2642 -1.3362  0.1568
 4501TIP3    H237699   0.032   4.386  11.345  0.6101 -0.7051  2.3132
 4502TIP3   OH237700   7.331   2.846  12.415 -0.1275  0.1442 -0.1341
 4502TIP3    H137701   7.420   2.845  12.450 -0.3681  0.7341  0.5225
 4502TIP3    H237702   7.283   2.783  12.469 -1.0300  2.5925  2.1504
 4503TIP3   OH237703   4.821   5.423  12.911  0.0364  0.0273 -0.1810
 4503TIP3    H137704   4.889   5.371  12.955 -0.2048 -0.8465 -0.8051
 4503TIP3    H237705   4.847   5.514  12.925  0.4736 -0.2531  0.9478
 4504TIP3   OH237706   7.243   4.804  12.114 -0.3352 -0.2297  0.0006
 4504TIP3    H137707   7.188   4.844  12.182  1.7265 -0.0032  1.6558
 4504TIP3    H237708   7.327   4.851  12.120  0.4891 -1.4053 -1.5145
 4505TIP3   OH237709   5.270   3.277  11.732 -0.1058  0.0286 -0.0117
 4505TIP3    H137710   5.191   3.225  11.723 -0.8579  0.9931  0.9038
 4505TIP3    H237711   5.320   3.257  11.652 -0.5412 -1.7481  0.1117
 4506TIP3   OH237712   1.129   1.797  12.239 -0.0952  0.3118 -0.0723
 4506TIP3    H137713   1.156   1.864  12.176 -2.0553  1.1759 -0.0444
 4506TIP3    H237714   1.034   1.792  12.230 -0.8480  2.2257  4.4994
 4507TIP3   OH237715   3.234   1.118  10.494 -0.3403  0.3694 -0.1361
 4507TIP3    H137716   3.192   1.042  10.534  0.2543  0.7531  1.2822
 4507TIP3    H237717   3.162   1.171  10.460 -0.7760 -0.6582 -0.8672
 4508TIP3   OH237718   6.337   0.386  12.192  0.5451 -0.6042  0.2182
 4508TIP3    H137719   6.286   0.381  12.111 -1.8305  1.3819  1.4677
 4508TIP3    H237720   6.351   0.295  12.218 -2.1136 -1.2654 -0.4024
 4509TIP3   OH237721   5.862   6.217  10.504  0.0053  0.2478  0.0722
 4509TIP3    H137722   5.860   6.216  10.599  0.7586 -0.0835  0.0898
 4509TIP3    H237723   5.824   6.133  10.478 -2.1718  1.1700  0.0082
 4510TIP3   OH237724   5.318   5.701  12.767 -0.8882  0.0030  0.4071
 4510TIP3    H137725   5.288   5.792  12.776 -1.6475 -0.1388 -0.5370
 4510TIP3    H237726   5.276   5.670  12.687  0.2262 -0.8498  0.1364
 4511TIP3   OH237727   6.463   0.281  11.532 -0.3766  0.0262  0.0211
 4511TIP3    H137728   6.382   0.332  11.529 -1.7683 -1.9235  1.9510
 4511TIP3    H237729   6.441   0.200  11.486  0.6881 -0.2852  0.0437
 4512TIP3   OH237730   7.615   4.964  12.404  0.6434 -0.3927 -0.2843
 4512TIP3    H137731   7.666   4.904  12.459  0.6273 -0.6839 -0.5822
 4512TIP3    H237732   7.680   5.013  12.355  0.7474  1.3473  1.4846
 4513TIP3   OH237733   7.675   7.565  11.843  0.3302  0.2914 -0.3405
 4513TIP3    H137734   7.601   7.510  11.817  0.8208 -0.8554  0.6044
 4513TIP3    H237735   7.652   7.652  11.813 -2.2723  0.3586  1.5280
 4514TIP3   OH237736   6.530   1.992  10.955  0.0228 -0.3182  0.1354
 4514TIP3    H137737   6.583   1.961  11.028 -0.0226 -0.9200 -0.0763
 4514TIP3    H237738   6.493   2.075  10.984 -0.2597 -0.7145  0.9260
 4515TIP3   OH237739   5.253   2.997  11.059  0.0590  0.0376 -0.1349
 4515TIP3    H137740   5.197   3.074  11.048 -1.2609 -0.6701  1.2123
 4515TIP3    H237741   5.303   3.016  11.139 -0.5282 -0.6268  0.4020
 4516TIP3   OH237742   2.766   5.413  12.487  0.3313  0.3010  0.1197
 4516TIP3    H137743   2.730   5.348  12.427 -1.1097  0.5679  0.6457
 4516TIP3    H237744   2.804   5.480  12.430  3.1851 -1.6174 -0.4342
 4517TIP3   OH237745   0.990   6.778  11.343  0.5868 -0.6670  0.5728
 4517TIP3    H137746   1.010   6.820  11.426 -3.3831  0.5709  1.0833
 4517TIP3    H237747   1.023   6.839  11.277 -0.1454  0.5331  1.2924
 4518TIP3   OH237748   6.999   5.948  10.334 -0.5017  0.0395  0.5266
 4518TIP3    H137749   6.999   5.853  10.344  0.2340 -0.3230 -2.1593
 4518TIP3    H237750   6.907   5.972  10.326 -0.8129 -0.1686  2.7179
 4519TIP3   OH237751   3.832   5.828  11.794 -0.0439  0.3711 -0.1896
 4519TIP3    H137752   3.772   5.755  11.807  1.6639 -1.0103  0.2548
 4519TIP3    H237753   3.830   5.876  11.877 -1.5126  1.1541 -0.6372
 4520TIP3   OH237754   6.203   6.457  12.045  0.4699 -0.3006  0.0328
 4520TIP3    H137755   6.187   6.426  11.956 -1.1939  0.6314 -0.0311
 4520TIP3    H237756   6.124   6.433  12.094  1.2061 -0.4721  1.1805
 4521TIP3   OH237757   5.776   3.859  11.578  0.0571  0.2853  0.0006
 4521TIP3    H137758   5.749   3.844  11.487 -0.5921  1.2036  0.0217
 4521TIP3    H237759   5.771   3.773  11.619 -1.6693  0.2008 -0.3184
 4522TIP3   OH237760   2.713   5.849  12.092  0.3773  0.0962  0.4517
 4522TIP3    H137761   2.689   5.886  12.177  1.9015  1.5087  0.3033
 4522TIP3    H237762   2.754   5.766  12.113 -0.7249 -0.3460  0.9639
 4523TIP3   OH237763   7.200   0.381  11.507 -0.5818  0.0457  0.2174
 4523TIP3    H137764   7.217   0.428  11.589  0.3708  0.0882  0.0074
 4523TIP3    H237765   7.111   0.346  11.518 -2.7964  4.5062 -0.8750
 4524TIP3   OH237766   2.460   6.927  11.251  0.5872  0.1171 -0.3850
 4524TIP3    H137767   2.372   6.899  11.225  0.8047  0.3112 -1.4038
 4524TIP3    H237768   2.515   6.850  11.237  0.5935  0.0095  0.2079
 4525TIP3   OH237769   4.471   4.686   9.826  0.2060 -0.1125  0.0860
 4525TIP3    H137770   4.489   4.697   9.732 -1.0280  0.3555 -0.1144
 4525TIP3    H237771   4.511   4.763   9.867  0.5564 -0.2045 -0.0758
 4526TIP3   OH237772   2.826   1.922  11.940 -0.1330 -0.3556 -0.4953
 4526TIP3    H137773   2.766   1.864  11.892 -0.6808 -0.4621  0.3058
 4526TIP3    H237774   2.889   1.863  11.981 -0.8847 -0.4283  0.5899
 4527TIP3   OH237775   1.025   5.104  12.105 -0.0987 -0.4218  0.8037
 4527TIP3    H137776   0.931   5.110  12.084  0.0618 -0.0613  0.1468
 4527TIP3    H237777   1.069   5.138  12.027  0.5985 -1.0368  0.9170
 4528TIP3   OH237778   6.087   6.303  12.253 -0.1156 -0.0975 -0.2581
 4528TIP3    H137779   6.110   6.211  12.266 -2.2081 -0.7493 -0.6546
 4528TIP3    H237780   6.044   6.329  12.335  0.0930  0.4067 -0.3030
 4529TIP3   OH237781   5.290   7.403  10.767 -0.5853  0.0610 -0.4552
 4529TIP3    H137782   5.377   7.386  10.802 -0.7290  0.8527  0.3087
 4529TIP3    H237783   5.290   7.497  10.747 -1.1767  0.0118 -0.7115
 4530TIP3   OH237784   4.585   6.328  11.661 -0.4428  0.1006 -0.2190
 4530TIP3    H137785   4.561   6.303  11.750 -2.2500  1.0377 -0.4012
 4530TIP3    H237786   4.572   6.248  11.610 -2.5077  0.3456 -0.1573
 4531TIP3   OH237787   7.081   0.176  11.305  0.5898 -0.1657  0.0545
 4531TIP3    H137788   7.157   0.156  11.360  0.0824 -2.2412  0.1004
 4531TIP3    H237789   7.117   0.181  11.216  0.8282 -1.0699  0.0847
 4532TIP3   OH237790   5.836   1.862  10.727  0.2838 -0.3140  0.3696
 4532TIP3    H137791   5.876   1.893  10.808  1.8382 -0.4954 -0.2843
 4532TIP3    H237792   5.771   1.798  10.755 -0.6770  1.1206  1.5633
 4533TIP3   OH237793   0.374   0.968  11.548 -0.0155  0.3614 -0.5089
 4533TIP3    H137794   0.292   0.936  11.509 -0.1561  0.8883 -0.6526
 4533TIP3    H237795   0.383   1.057  11.514  0.4300  0.4355 -0.1983
 4534TIP3   OH237796   6.293   6.106  11.190 -0.6358 -0.2849  0.5181
 4534TIP3    H137797   6.226   6.047  11.225 -0.4428 -0.2872  0.8941
 4534TIP3    H237798   6.370   6.088  11.244 -0.6358  0.4643  0.7820
 4535TIP3   OH237799   2.064   2.346  11.699  0.3424 -0.3346  0.6307
 4535TIP3    H137800   2.031   2.341  11.609 -0.7290  1.3109  0.8850
 4535TIP3    H237801   2.145   2.396  11.693  0.3350 -0.3307  0.5666
 4536TIP3   OH237802   0.747   1.822  11.283  0.7598 -0.2060 -0.2145
 4536TIP3    H137803   0.759   1.762  11.208 -1.2211 -1.2921  0.2618
 4536TIP3    H237804   0.746   1.764  11.359 -0.2431  0.5540  0.3586
 4537TIP3   OH237805   4.533   0.312  11.657 -0.2548 -0.1327  0.0881
 4537TIP3    H137806   4.624   0.284  11.651 -0.5776 -1.0151 -0.8209
 4537TIP3    H237807   4.482   0.237  11.626 -1.3325  0.1122  1.1792
 4538TIP3   OH237808   5.416   6.722  11.990  0.1187 -0.3927  0.1804
 4538TIP3    H137809   5.450   6.734  11.901  0.3150 -1.0920  0.1537
 4538TIP3    H237810   5.356   6.648  11.982 -1.5836  0.9350  0.1861
 4539TIP3   OH237811   2.611   5.120  10.383  0.1705  0.6900  0.2473
 4539TIP3    H137812   2.679   5.109  10.449 -1.2258  0.5207  1.7123
 4539TIP3    H237813   2.600   5.032  10.345  0.2180  0.5442  0.5686
 4540TIP3   OH237814   4.422   2.840  10.839 -0.1055 -0.1598 -0.0719
 4540TIP3    H137815   4.396   2.926  10.872 -3.6306 -0.6362 -1.1185
 4540TIP3    H237816   4.477   2.858  10.763  0.2536  1.1229  0.4759
 4541TIP3   OH237817   6.937   0.055  11.822 -0.3357 -0.3128 -0.2621
 4541TIP3    H137818   6.890   0.023  11.899  0.2998 -1.5226 -0.3356
 4541TIP3    H237819   7.007  -0.009  11.810  0.8859  1.0488 -0.5746
 4542TIP3   OH237820   3.759   2.143  12.376 -0.0794 -0.2567 -0.1180
 4542TIP3    H137821   3.731   2.075  12.436 -0.7422  0.6503  0.6159
 4542TIP3    H237822   3.720   2.224  12.409  0.0784  0.3779 -1.3867
 4543TIP3   OH237823   6.005   4.930  12.914  0.1329 -0.4431 -0.5573
 4543TIP3    H137824   5.970   4.869  12.849  0.3577 -0.6867 -0.4550
 4543TIP3    H237825   6.099   4.929  12.899  0.0326  0.9597 -1.4813
 4544TIP3   OH237826   5.532   2.993  11.122 -0.2254  0.0092 -0.1597
 4544TIP3    H137827   5.475   2.950  11.059 -0.6625 -0.0244  0.2494
 4544TIP3    H237828   5.605   2.933  11.135 -0.5917 -0.3940  0.0472
 4545TIP3   OH237829   6.674   1.391  11.699  0.0511  0.0826  0.0099
 4545TIP3    H137830   6.755   1.413  11.745  0.4535  0.9628 -1.0587
 4545TIP3    H237831   6.701   1.330  11.631  0.1700  1.6405 -1.4220
 4546TIP3   OH237832   5.302   0.257  11.392  0.3196  0.3753  0.3113
 4546TIP3    H137833   5.375   0.272  11.331 -1.6241  1.5590 -1.8730
 4546TIP3    H237834   5.302   0.334  11.448  1.1558  0.0213  0.8276
 4547TIP3   OH237835   0.472   6.250  10.069  0.0150  0.0366  1.1293
 4547TIP3    H137836   0.431   6.222  10.151  0.0361 -2.3724  0.3921
 4547TIP3    H237837   0.555   6.290  10.097 -0.6612  0.6359  2.3498
 4548TIP3   OH237838   1.451   1.588  10.599  0.1362 -0.4980  0.0806
 4548TIP3    H137839   1.498   1.542  10.668 -0.6530 -1.2151  0.1480
 4548TIP3    H237840   1.425   1.671  10.639 -2.6522 -1.9753  1.5819
 4549TIP3   OH237841   5.648   6.102  10.830  0.6735  0.2360 -0.6323
 4549TIP3    H137842   5.634   6.197  10.823 -0.5384  0.1852  0.6754
 4549TIP3    H237843   5.742   6.093  10.844  0.6405  1.3354  0.4339
 4550TIP3   OH237844   1.749   0.268  12.187  0.0333  0.2157  0.1041
 4550TIP3    H137845   1.745   0.351  12.140 -1.5735  0.2272  0.1898
 4550TIP3    H237846   1.754   0.293  12.279  0.8003  0.2071  0.0660
 4551TIP3   OH237847   6.655   0.286  12.157 -0.3771  0.2766 -0.1519
 4551TIP3    H137848   6.648   0.286  12.253  0.3496 -0.8337 -0.0823
 4551TIP3    H237849   6.737   0.332  12.138 -0.2103 -0.0369 -0.2026
 4552TIP3   OH237850   4.020   1.074  11.687 -0.7808  0.3500  0.2618
 4552TIP3    H137851   4.052   1.044  11.772  0.0887 -0.5749 -0.3753
 4552TIP3    H237852   4.098   1.087  11.634 -1.1989  2.5544  0.0865
 4553TIP3   OH237853   3.597   5.300  10.950 -0.5601  0.3368 -0.0779
 4553TIP3    H137854   3.542   5.363  10.997 -0.0876 -0.3823  1.5013
 4553TIP3    H237855   3.534   5.236  10.915 -0.8428  0.3364  0.4233
 4554TIP3   OH237856   4.001   3.505  10.073 -0.5838  0.3291 -0.1161
 4554TIP3    H137857   3.999   3.565   9.998 -1.4461 -1.0290 -1.2130
 4554TIP3    H237858   4.085   3.523  10.115 -1.0026  2.6140 -0.1407
 4555TIP3   OH237859   2.278   7.406  11.936  0.0732  0.3308  0.5916
 4555TIP3    H137860   2.201   7.442  11.891  1.7949 -0.1404 -3.1050
 4555TIP3    H237861   2.316   7.481  11.982 -1.4293  1.0181  0.8025
 4556TIP3   OH237862   4.906   4.043  12.329 -0.5213  0.1667 -0.0912
 4556TIP3    H137863   4.920   4.135  12.306  0.1036  0.1750  0.3009
 4556TIP3    H237864   4.961   3.994  12.268  0.4545  0.1462  0.7703
 4557TIP3   OH237865   1.010   0.252  12.334  0.0203  0.1966  0.2311
 4557TIP3    H137866   0.993   0.274  12.426 -1.7292 -1.6897  0.4296
 4557TIP3    H237867   0.924   0.257  12.293  0.8203  1.2777 -1.4105
 4558TIP3   OH237868   0.761   7.057  10.157  0.4037 -0.5501 -0.2109
 4558TIP3    H137869   0.671   7.043  10.186  0.2283  0.4863 -0.2425
 4558TIP3    H237870   0.809   7.080  10.236  0.4555 -0.2089 -0.3434
 4559TIP3   OH237871   2.360   0.344  11.111  0.0345  0.1480 -0.2023
 4559TIP3    H137872   2.329   0.254  11.101  0.8399  0.0823 -2.7537
 4559TIP3    H237873   2.452   0.335  11.136 -0.1391  0.2907  0.5074
 4560TIP3   OH237874   4.575   4.500  10.735  0.9305  0.1474  0.4669
 4560TIP3    H137875   4.581   4.595  10.736 -0.0834  0.2666 -1.2434
 4560TIP3    H237876   4.644   4.473  10.674  1.1049 -0.2004  0.8162
 4561TIP3   OH237877   3.927   0.548  11.254 -0.2515  0.1654 -0.6962
 4561TIP3    H137878   3.845   0.562  11.302 -0.5173  0.9269 -1.3434
 4561TIP3    H237879   3.992   0.600  11.302 -0.6477  1.4370 -1.4803
 4562TIP3   OH237880   1.785   1.468  12.747 -0.3297 -0.2158  1.0013
 4562TIP3    H137881   1.715   1.466  12.682 -0.5078 -0.7418  1.2077
 4562TIP3    H237882   1.756   1.410  12.817 -0.3211  0.6558  1.7477
 4563TIP3   OH237883   7.671   2.892  11.774  0.9501  0.2199 -0.3895
 4563TIP3    H137884   7.688   2.833  11.847 -0.3361  0.8442  0.4624
 4563TIP3    H237885   7.665   2.835  11.697 -1.7176 -1.0095  0.6192
 4564TIP3   OH237886   1.869   6.884  12.406 -0.0097  0.4074 -0.0489
 4564TIP3    H137887   1.875   6.963  12.461 -0.2226  0.5769 -0.2701
 4564TIP3    H237888   1.799   6.903  12.344 -2.2372 -1.1453  1.8289
 4565TIP3   OH237889   5.993   2.123  11.882 -0.0502 -0.3776 -0.1001
 4565TIP3    H137890   6.015   2.185  11.812  2.3878 -0.4521  0.5351
 4565TIP3    H237891   6.030   2.162  11.961 -0.7251 -1.4410  0.7672
 4566TIP3   OH237892   4.490   6.985  10.973 -0.2448  0.1698 -0.0250
 4566TIP3    H137893   4.401   7.005  10.945  0.5788  0.2638 -2.8250
 4566TIP3    H237894   4.541   6.984  10.893  2.3125  0.1184  1.4927
 4567TIP3   OH237895   6.758   1.482  10.474 -0.3494  0.3588  0.0031
 4567TIP3    H137896   6.683   1.438  10.514  0.5222 -1.8769 -0.6751
 4567TIP3    H237897   6.722   1.525  10.396 -0.9319 -0.6515 -0.2924
 4568TIP3   OH237898   6.053   6.381  13.031 -0.1302 -0.0404  0.3570
 4568TIP3    H137899   5.964   6.415  13.025  0.0097  0.2208 -0.2679
 4568TIP3    H237900   6.106   6.444  12.983  0.3042 -0.5310  0.1888
 4569TIP3   OH237901   5.215   1.266  10.176  0.8151  0.5899 -0.2057
 4569TIP3    H137902   5.291   1.209  10.187 -0.0066 -0.3132  1.1722
 4569TIP3    H237903   5.245   1.352  10.206  1.4556  0.3675 -0.1882
 4570TIP3   OH237904   4.173   4.061  11.401 -0.1655 -0.1804  0.1722
 4570TIP3    H137905   4.111   4.062  11.328  0.0883 -0.5345 -0.0497
 4570TIP3    H237906   4.145   4.134  11.457 -0.8362 -0.3826  0.1173
 4571TIP3   OH237907   7.176   2.952  10.223 -0.0941  0.1988 -0.4995
 4571TIP3    H137908   7.243   2.890  10.252  0.6950  1.8087  1.4080
 4571TIP3    H237909   7.140   2.913  10.144  1.6789 -1.7305 -0.4585
 4572TIP3   OH237910   2.240   4.035  10.279  0.2096 -0.3369 -0.2140
 4572TIP3    H137911   2.318   3.988  10.310 -0.4346 -0.8028  0.7648
 4572TIP3    H237912   2.173   3.967  10.273 -0.2376  0.1370 -0.6269
 4573TIP3   OH237913   2.716   4.434  11.943 -0.4212 -0.0012  0.4104
 4573TIP3    H137914   2.636   4.423  11.892 -0.3707 -0.3470  0.4016
 4573TIP3    H237915   2.722   4.354  11.996  0.9812 -0.9861 -1.0878
 4574TIP3   OH237916   4.722   0.367  12.679  0.3281  0.0733 -0.6881
 4574TIP3    H137917   4.809   0.363  12.640  0.4570 -0.0117 -0.3914
 4574TIP3    H237918   4.737   0.366  12.773 -0.0397 -1.1764 -0.6140
 4575TIP3   OH237919   1.306   6.713  10.282  0.2380  0.1653 -0.5392
 4575TIP3    H137920   1.370   6.646  10.304 -0.6061 -0.6452 -0.5171
 4575TIP3    H237921   1.350   6.796  10.304  0.9260 -0.4143  0.3566
 4576TIP3   OH237922   2.997   2.638  11.441 -0.2106  0.3154  0.1328
 4576TIP3    H137923   2.973   2.552  11.474 -2.1057  0.4206 -0.8620
 4576TIP3    H237924   2.971   2.699  11.511 -1.7333  0.3065 -0.3854
 4577TIP3   OH237925   1.188   3.046  11.948 -0.6514  0.1813  0.2412
 4577TIP3    H137926   1.110   2.990  11.954 -0.5761 -0.4160 -2.7524
 4577TIP3    H237927   1.154   3.135  11.958 -1.2706 -0.1929  1.7112
 4578TIP3   OH237928   1.726   0.789  11.633 -0.0381  0.2255  0.0177
 4578TIP3    H137929   1.644   0.778  11.681  0.4128 -0.2169  0.6984
 4578TIP3    H237930   1.725   0.881  11.605 -1.5808 -0.1999 -1.5364
 4579TIP3   OH237931   2.366   3.707  12.475  0.3769  1.2150 -0.1267
 4579TIP3    H137932   2.440   3.743  12.523  1.1461 -0.5574  0.1182
 4579TIP3    H237933   2.400   3.689  12.387  0.0031  1.1629 -0.2622
 4580TIP3   OH237934   2.166   5.165  11.674  0.4277 -0.0566  0.3796
 4580TIP3    H137935   2.252   5.201  11.650  0.7105  1.0906  2.7961
 4580TIP3    H237936   2.140   5.216  11.750 -1.5435 -1.6844  0.8696
 4581TIP3   OH237937   1.179   7.083  11.972  0.5897 -0.3154 -0.3396
 4581TIP3    H137938   1.095   7.061  11.931 -0.6538  0.4568  1.6334
 4581TIP3    H237939   1.193   7.175  11.951  1.6561 -0.7726 -1.7678
 4582TIP3   OH237940   7.428   0.183  11.002 -0.0141  0.6551 -0.0029
 4582TIP3    H137941   7.446   0.259  10.946 -0.1602  0.8731  0.2427
 4582TIP3    H237942   7.465   0.109  10.954 -0.6297  0.7562 -0.6664
 4583TIP3   OH237943   7.608   1.903  12.641  0.5422 -0.0493  0.0450
 4583TIP3    H137944   7.699   1.916  12.614  0.1335 -1.2762 -2.1276
 4583TIP3    H237945   7.608   1.820  12.688  0.7776  0.7452  1.5100
 4584TIP3   OH237946   0.061   6.205  11.462  0.3466  0.1378 -0.0828
 4584TIP3    H137947   0.149   6.229  11.433  0.2615 -0.1625 -0.6020
 4584TIP3    H237948   0.029   6.283  11.508 -0.4288  1.5980 -2.8526
 4585TIP3   OH237949   2.757   5.186  11.650  0.1654  0.2152  0.1503
 4585TIP3    H137950   2.790   5.186  11.560 -0.0891  0.5836  0.0535
 4585TIP3    H237951   2.803   5.114  11.693 -1.7278 -1.8171 -1.0133
 4586TIP3   OH237952   7.411   6.169  10.189  0.2535 -0.2241 -0.0217
 4586TIP3    H137953   7.425   6.253  10.145  0.9356  0.2476  1.0563
 4586TIP3    H237954   7.498   6.144  10.221 -0.0224 -1.1363  0.0420
 4587TIP3   OH237955   4.823   6.678  11.891 -0.4202  0.5776  0.0959
 4587TIP3    H137956   4.789   6.709  11.806  0.6582  0.6607 -0.3189
 4587TIP3    H237957   4.748   6.636  11.932 -0.8517  0.1256 -1.1048
 4588TIP3   OH237958   2.842   0.210  12.321 -0.1564  0.0004 -0.7283
 4588TIP3    H137959   2.929   0.173  12.303 -0.7672 -0.9869 -1.7670
 4588TIP3    H237960   2.825   0.186  12.412  1.2056  1.3934 -0.0514
 4589TIP3   OH237961   5.860   5.352  11.213 -0.6618 -0.2552 -0.4098
 4589TIP3    H137962   5.940   5.404  11.216 -1.2099  0.7913 -2.2468
 4589TIP3    H237963   5.889   5.262  11.228  0.9927 -0.0012 -1.7687
 4590TIP3   OH237964   6.266   3.586  10.384  0.0842 -0.4653  0.3368
 4590TIP3    H137965   6.178   3.575  10.347  0.8755  0.3969 -1.9568
 4590TIP3    H237966   6.285   3.679  10.374  0.9843 -0.5148  1.4807
 4591TIP3   OH237967   5.392   0.173  12.386 -0.0203  0.1251 -0.5961
 4591TIP3    H137968   5.404   0.234  12.459  0.5026 -0.1413 -0.4490
 4591TIP3    H237969   5.303   0.189  12.355 -0.8812 -0.9299  1.1896
 4592TIP3   OH237970   7.643   6.402  11.640  0.1452 -0.7124  0.0277
 4592TIP3    H137971   7.646   6.367  11.729  1.3401 -0.8272 -0.0349
 4592TIP3    H237972   7.569   6.463  11.641  0.8317  0.1701  1.4557
 4593TIP3   OH237973   5.590   3.379  10.312 -0.0571 -0.1515  0.1945
 4593TIP3    H137974   5.589   3.359  10.219 -1.0976  2.1130 -0.3473
 4593TIP3    H237975   5.682   3.394  10.333  0.0506  0.8557 -0.8825
 4594TIP3   OH237976   7.669   3.259  11.055  0.3747  0.1829  0.4925
 4594TIP3    H137977   7.703   3.307  11.131 -1.0690  0.0978  1.2372
 4594TIP3    H237978   7.643   3.328  10.994  0.8235  0.2696  0.3926
 4595TIP3   OH237979   7.416   5.381  11.814 -0.1359 -0.1252 -0.1395
 4595TIP3    H137980   7.424   5.400  11.907 -1.4444 -0.6023  0.0861
 4595TIP3    H237981   7.467   5.450  11.771 -3.5188  3.2548  0.6881
 4596TIP3   OH237982   4.649   7.484  11.005 -0.0586 -0.3777  0.0964
 4596TIP3    H137983   4.657   7.461  11.098 -0.6348 -0.7056  0.0708
 4596TIP3    H237984   4.696   7.415  10.958 -1.0777 -1.0755  0.0657
 4597TIP3   OH237985   1.220   3.846  12.397  0.2684 -0.0426 -0.5665
 4597TIP3    H137986   1.246   3.762  12.358 -0.3981 -0.3687 -0.3285
 4597TIP3    H237987   1.172   3.821  12.476 -0.5719  0.5448 -0.8829
 4598TIP3   OH237988   5.477   1.732  11.566 -0.4143 -0.2724 -0.7334
 4598TIP3    H137989   5.501   1.751  11.657 -0.7622 -2.3165 -0.1657
 4598TIP3    H237990   5.558   1.745  11.517 -0.2713  1.0494 -0.1814
 4599TIP3   OH237991   3.485   3.182  11.495  0.2559 -0.2158  0.0871
 4599TIP3    H137992   3.470   3.094  11.529  0.2694 -0.7376 -1.1900
 4599TIP3    H237993   3.511   3.168  11.404  0.8003  1.0848  0.0224
 4600TIP3   OH237994   5.796   0.780  10.385 -0.2603 -0.6710  0.0888
 4600TIP3    H137995   5.738   0.837  10.335 -0.7829 -1.5756 -0.3653
 4600TIP3    H237996   5.801   0.700  10.333 -3.1275 -2.8006  2.7040
 4601TIP3   OH237997   5.365   3.351  12.409  0.2804  0.0461  0.3851
 4601TIP3    H137998   5.338   3.261  12.394 -0.0619 -0.0136  1.2958
 4601TIP3    H237999   5.457   3.345  12.436  0.2076 -0.0530  0.6159
 4602TIP3   OH238000   6.107   0.120  11.915 -0.1949 -0.3172 -0.4455
 4602TIP3    H138001   6.062   0.047  11.873  0.7567 -2.1858  1.5938
 4602TIP3    H238002   6.038   0.163  11.967 -0.2492 -1.3867  0.3909
 4603TIP3   OH238003   5.195   5.443  11.268 -0.2271  0.2647  0.8193
 4603TIP3    H138004   5.234   5.528  11.248 -1.6472  0.3876 -1.9971
 4603TIP3    H238005   5.262   5.379  11.241 -1.1777  0.4969 -2.5194
 4604TIP3   OH238006   1.031   5.872   9.858  0.1767  0.2852 -0.0166
 4604TIP3    H138007   1.012   5.887   9.765  0.0044  0.5206  0.0568
 4604TIP3    H238008   1.016   5.957   9.899  2.7322  0.9156 -0.1744
 4605TIP3   OH238009   4.598   1.803  10.724  0.8242  0.4408 -0.0487
 4605TIP3    H138010   4.614   1.876  10.665 -0.1638  0.1428 -0.7117
 4605TIP3    H238011   4.534   1.836  10.787  1.6907  0.6801  0.7375
 4606TIP3   OH238012   7.581   1.559  10.633 -0.1954  0.6669 -0.3750
 4606TIP3    H138013   7.529   1.639  10.638  2.8243  2.8608 -1.4537
 4606TIP3    H238014   7.624   1.553  10.718 -0.7283 -0.0684 -0.1511
 4607TIP3   OH238015   0.999   1.875  10.514  0.5272  0.1067  0.1892
 4607TIP3    H138016   0.978   1.816  10.586  0.3134 -0.3914 -0.2769
 4607TIP3    H238017   0.944   1.952  10.530  1.3007  0.4759  1.1686
 4608TIP3   OH238018   5.265   1.228  11.735  0.0255  0.1895 -0.2950
 4608TIP3    H138019   5.241   1.204  11.824  0.1401  3.3300  0.7099
 4608TIP3    H238020   5.353   1.192  11.724 -0.6369 -1.6896  0.1688
 4609TIP3   OH238021   5.520   3.848  11.396  0.2274 -0.1009  0.2117
 4609TIP3    H138022   5.507   3.876  11.487  1.9569  0.6508  0.2829
 4609TIP3    H238023   5.498   3.926  11.344  1.6906  0.3229  0.1817
 4610TIP3   OH238024   5.818   5.933   9.924  0.0026  0.0606  0.2309
 4610TIP3    H138025   5.890   5.964   9.979  1.8311  1.6023 -2.7648
 4610TIP3    H238026   5.782   6.012   9.885 -0.4355 -1.0143 -1.6469
 4611TIP3   OH238027   3.237   5.090  10.506 -0.6779  0.0496  0.1026
 4611TIP3    H138028   3.183   5.099  10.585  0.3307  0.8467  0.7150
 4611TIP3    H238029   3.295   5.165  10.508 -1.0455  0.4162 -1.7414
 4612TIP3   OH238030   6.918   7.532  11.042 -0.2109 -0.0151  0.4135
 4612TIP3    H138031   6.856   7.604  11.051 -0.3048 -0.1986  1.4149
 4612TIP3    H238032   6.897   7.473  11.115 -0.9802 -1.7046 -1.1031
 4613TIP3   OH238033   2.898   4.972  11.768  0.3196 -0.5699 -0.0542
 4613TIP3    H138034   2.883   4.899  11.708 -1.2399  0.1642 -0.6048
 4613TIP3    H238035   2.925   4.930  11.850 -3.2345 -2.0434  0.5514
 4614TIP3   OH238036   4.230   1.160  11.271  0.3737  0.3182  0.0800
 4614TIP3    H138037   4.173   1.236  11.285  0.1144  0.3705 -1.0977
 4614TIP3    H238038   4.241   1.121  11.357 -1.0720  0.5787  0.3972
 4615TIP3   OH238039   1.201   1.335  11.378 -0.5406  0.0519  0.0204
 4615TIP3    H138040   1.191   1.249  11.418 -3.6696  0.4214  0.2923
 4615TIP3    H238041   1.217   1.318  11.285 -0.8067 -0.8273  0.1329
 4616TIP3   OH238042   7.190   2.680  12.045 -0.5626 -0.8355  0.3538
 4616TIP3    H138043   7.189   2.610  11.980 -2.2341 -1.0953  0.5943
 4616TIP3    H238044   7.100   2.682  12.078 -0.1919  0.4997  1.3552
 4617TIP3   OH238045   7.137   2.511  11.535  0.8483  0.5909 -0.4492
 4617TIP3    H138046   7.222   2.468  11.539  0.4454 -0.1237  0.9700
 4617TIP3    H238047   7.097   2.478  11.455  1.0153 -0.8070  0.0229
 4618TIP3   OH238048   0.978   0.356  10.552 -0.1194  0.7368 -0.2573
 4618TIP3    H138049   0.927   0.432  10.581  0.3000  0.6185  0.8465
 4618TIP3    H238050   1.024   0.387  10.474 -0.3138  1.4774 -0.0924
 4619TIP3   OH238051   6.762   3.333  11.932 -0.4157  0.0375  0.1531
 4619TIP3    H138052   6.848   3.374  11.929 -0.8780  0.9584 -1.8653
 4619TIP3    H238053   6.738   3.335  12.025  1.2567  0.7320  0.6060
 4620TIP3   OH238054   4.995   1.934  11.220 -0.2701 -0.3760  0.0542
 4620TIP3    H138055   4.949   1.911  11.301  0.4327  2.4394  1.3839
 4620TIP3    H238056   4.926   1.966  11.161 -0.3866  1.5758  1.1662
 4621TIP3   OH238057   6.377   0.132  11.917  0.0739 -0.2420  0.2244
 4621TIP3    H138058   6.419   0.047  11.931  0.4450  0.2820  2.8165
 4621TIP3    H238059   6.284   0.114  11.929  0.2240 -0.1798  1.7360
 4622TIP3   OH238060   5.899   7.355  10.449  0.2054 -0.5815 -0.2935
 4622TIP3    H138061   5.915   7.441  10.410  1.8167 -1.4075 -1.6110
 4622TIP3    H238062   5.949   7.295  10.394 -0.3537 -2.2856  0.9842
 4623TIP3   OH238063   5.096   2.148  10.535  0.2445 -0.2672  0.2552
 4623TIP3    H138064   5.058   2.064  10.507  1.8370 -0.7563 -0.5948
 4623TIP3    H238065   5.076   2.208  10.464 -2.3030  0.5761  1.5756
 4624TIP3   OH238066   1.081   1.552  10.570 -0.0936 -0.0213 -0.1665
 4624TIP3    H138067   0.996   1.531  10.531 -0.7444  2.6228 -0.3682
 4624TIP3    H238068   1.112   1.627  10.519  1.8055 -0.1907  0.6844
 4625TIP3   OH238069   5.221   6.207  10.889  0.0686 -0.4325  0.0211
 4625TIP3    H138070   5.235   6.119  10.854 -1.5051 -0.9432  0.5588
 4625TIP3    H238071   5.127   6.209  10.910  0.0133  1.4775 -0.2512
 4626TIP3   OH238072   7.439   3.807  10.586  0.1966 -0.3302  0.3319
 4626TIP3    H138073   7.455   3.901  10.579  2.0177 -0.4775  1.7027
 4626TIP3    H238074   7.407   3.781  10.500 -0.0009  1.4668 -0.1743
 4627TIP3   OH238075   7.264   1.275  11.701 -0.6584 -0.0148  0.1645
 4627TIP3    H138076   7.284   1.196  11.651 -0.9387 -1.0812  1.6685
 4627TIP3    H238077   7.217   1.331  11.639  1.4833 -0.0300 -1.6213
 4628TIP3   OH238078   0.119   4.657  11.014 -0.1151 -0.5499  0.1390
 4628TIP3    H138079   0.186   4.616  10.959 -0.0939  0.1817 -0.4109
 4628TIP3    H238080   0.047   4.676  10.953  0.8908  2.5652 -0.2645
 4629TIP3   OH238081   5.925   5.404  13.053 -0.0249 -0.1734 -0.6123
 4629TIP3    H138082   5.996   5.465  13.031  0.1073 -0.6787 -1.6444
 4629TIP3    H238083   5.964   5.317  13.042 -0.3902 -0.4589  0.2420
 4630TIP3   OH238084   3.582   2.787  12.046 -0.2500  0.6779 -0.4896
 4630TIP3    H138085   3.673   2.783  12.076 -0.5761  3.4697  1.3093
 4630TIP3    H238086   3.588   2.813  11.954  0.7654  0.3187 -0.5364
 4631TIP3   OH238087   4.344   6.293  11.116  0.1083 -0.2563 -0.8607
 4631TIP3    H138088   4.345   6.385  11.141  0.3686 -0.8188  1.3744
 4631TIP3    H238089   4.258   6.279  11.076 -0.6481  0.5496  0.4467
 4632TIP3   OH238090   3.422   2.339  12.170  0.6342 -0.0587  0.4974
 4632TIP3    H138091   3.370   2.267  12.135  2.1497 -0.0850 -1.8865
 4632TIP3    H238092   3.402   2.413  12.113  1.0049  0.7125  1.3506
 4633TIP3   OH238093   6.853   2.063   9.965  0.0582  0.7238 -0.2073
 4633TIP3    H138094   6.859   2.137  10.026  0.9250 -2.2875  3.8209
 4633TIP3    H238095   6.759   2.049   9.955 -0.1172  2.1026 -0.7698
 4634TIP3   OH238096   3.992   3.345  10.913 -0.2036  0.8608  0.1498
 4634TIP3    H138097   4.024   3.393  10.990  3.2364  1.5845 -1.5517
 4634TIP3    H238098   3.940   3.409  10.865  0.6719  1.5604  0.1040
 4635TIP3   OH238099   6.516   3.370  11.771 -0.1720  0.8859 -0.8402
 4635TIP3    H138100   6.586   3.352  11.833 -0.0476 -0.7256 -1.4170
 4635TIP3    H238101   6.435   3.353  11.819 -0.2637  3.3045  0.0090
 4636TIP3   OH238102   6.434   4.938  10.249  0.4964  0.0595 -0.8568
 4636TIP3    H138103   6.400   4.987  10.174  0.3466  0.8433 -0.2835
 4636TIP3    H238104   6.358   4.924  10.305  0.9034  0.8834 -0.0829
 4637TIP3   OH238105   4.406   2.208  11.023 -0.1607 -0.1785  0.1083
 4637TIP3    H138106   4.492   2.171  11.003  0.2522  0.3897  0.7806
 4637TIP3    H238107   4.414   2.301  11.001 -0.4857 -0.0524  0.5130
 4638TIP3   OH238108   3.706   1.197  10.929 -0.6558  0.7654  0.1481
 4638TIP3    H138109   3.722   1.235  10.843  2.3833 -0.5319  0.0002
 4638TIP3    H238110   3.735   1.264  10.991 -0.2990  0.6869  0.0660
 4639TIP3   OH238111   0.802   7.590  12.207 -0.0905 -0.5072 -0.3644
 4639TIP3    H138112   0.791   7.685  12.201 -1.0710 -0.6678 -1.6362
 4639TIP3    H238113   0.713   7.555  12.198  0.3461 -1.5629 -0.7097
 4640TIP3   OH238114   0.748   0.669   9.911 -0.3647 -0.5103  0.0739
 4640TIP3    H138115   0.684   0.714   9.856 -0.3687  0.6721  1.0144
 4640TIP3    H238116   0.715   0.579   9.917  0.1919 -0.9883 -2.6768
 4641TIP3   OH238117   7.643   2.670  12.245  0.6170 -0.1573  0.2996
 4641TIP3    H138118   7.553   2.700  12.237  1.5667  2.8423 -0.4508
 4641TIP3    H238119   7.649   2.632  12.332 -1.4587 -0.9691  0.1330
 4642TIP3   OH238120   7.287   2.074  11.791 -0.1020  0.0410  0.4166
 4642TIP3    H138121   7.257   1.983  11.784  1.4888 -0.5938  1.4431
 4642TIP3    H238122   7.221   2.116  11.846 -0.3324 -0.7296  0.7454
 4643TIP3   OH238123   5.845   6.989  10.982  0.3174  0.3754 -0.7454
 4643TIP3    H138124   5.800   7.028  10.907  0.3690  1.6747 -0.1215
 4643TIP3    H238125   5.775   6.963  11.042  0.3022  0.0246 -0.9164
 4644TIP3   OH238126   0.590   1.056  10.563  0.3504  0.1779 -0.5573
 4644TIP3    H138127   0.627   1.015  10.641 -0.8971 -0.3220 -0.2039
 4644TIP3    H238128   0.635   1.011  10.490  0.0417 -0.8207 -0.1538
 4645TIP3   OH238129   6.632   3.721  12.753  0.4243 -0.0292  0.5219
 4645TIP3    H138130   6.668   3.785  12.691 -0.6192  1.8740  1.7759
 4645TIP3    H238131   6.600   3.650  12.698  2.2147  0.1900 -0.8936
 4646TIP3   OH238132   3.856   2.288   9.999  0.0120  0.4741 -0.4124
 4646TIP3    H138133   3.886   2.211  10.047  0.1722 -1.2325 -3.0553
 4646TIP3    H238134   3.907   2.360  10.037  2.4504 -1.2608 -0.1490
 4647TIP3   OH238135   0.803   1.648  11.056 -0.0502  0.2096  0.1183
 4647TIP3    H138136   0.723   1.602  11.031  1.3034 -1.9236 -0.6133
 4647TIP3    H238137   0.839   1.595  11.127  1.2592  0.4916 -0.3058
 4648TIP3   OH238138   0.806   2.747  11.650  0.1320 -0.4650  0.3641
 4648TIP3    H138139   0.805   2.757  11.555  0.8702 -0.9669  0.2957
 4648TIP3    H238140   0.806   2.652  11.664  2.1774 -0.4529  0.8024
 4649TIP3   OH238141   7.510   2.373  12.618 -0.1770 -0.5504  0.2834
 4649TIP3    H138142   7.590   2.324  12.601 -0.1822  0.0437 -1.7999
 4649TIP3    H238143   7.441   2.307  12.622  0.0301 -0.8755 -0.9564
 4650TIP3   OH238144   1.399   4.829  10.942 -0.4295 -0.6758  0.4401
 4650TIP3    H138145   1.399   4.840  10.847 -1.0069 -2.8504  0.1204
 4650TIP3    H238146   1.306   4.818  10.965 -0.1480 -2.3770  0.9043
 4651TIP3   OH238147   1.699   0.149  11.594 -0.3362 -0.2072 -0.1054
 4651TIP3    H138148   1.718   0.117  11.506 -1.4231  0.9904 -0.8140
 4651TIP3    H238149   1.621   0.203  11.583 -0.5764 -0.1578  1.6315
 4652TIP3   OH238150   0.931   2.510   9.923  0.2064 -0.2016  0.2298
 4652TIP3    H138151   0.840   2.508   9.953 -0.3874  0.8741 -1.3362
 4652TIP3    H238152   0.924   2.526   9.829  2.0359  0.2994  0.1477
 4653TIP3   OH238153   0.548   4.168  12.673  0.2484 -0.0516 -0.4509
 4653TIP3    H138154   0.616   4.232  12.693 -0.2529  0.4517 -0.3236
 4653TIP3    H238155   0.532   4.178  12.579  0.4752 -0.2956 -0.5167
 4654TIP3   OH238156   2.828   4.783  10.339  0.2430  0.0847  0.0925
 4654TIP3    H138157   2.761   4.816  10.399 -0.8678 -1.6506 -0.1351
 4654TIP3    H238158   2.814   4.831  10.258  0.3133  0.8466  0.5234
 4655TIP3   OH238159   5.636   6.631  12.490 -0.8475 -0.5347 -0.1229
 4655TIP3    H138160   5.574   6.618  12.419  0.1604 -0.7530 -0.9843
 4655TIP3    H238161   5.697   6.698  12.458 -0.9119  0.0272  0.8931
 4656TIP3   OH238162   1.686   4.764  10.886  0.1311 -0.4726 -0.5872
 4656TIP3    H138163   1.603   4.809  10.898 -0.3542 -1.6232  0.6601
 4656TIP3    H238164   1.744   4.830  10.847 -0.8822  0.8532  0.0651
 4657TIP3   OH238165   1.813   3.253  10.367 -0.5699 -0.3714  0.2292
 4657TIP3    H138166   1.906   3.231  10.366 -0.4960 -0.0981  0.8128
 4657TIP3    H238167   1.796   3.288  10.279 -0.7658 -2.9707 -0.8521
 4658TIP3   OH238168   4.776   5.781  10.220 -0.3349 -0.4717  0.4413
 4658TIP3    H138169   4.739   5.704  10.176 -0.8842 -0.1031  0.2550
 4658TIP3    H238170   4.821   5.829  10.150 -0.0301 -0.5985  0.5492
 4659TIP3   OH238171   0.788   5.026  10.675 -0.5150 -0.3939 -0.2337
 4659TIP3    H138172   0.847   4.959  10.707  1.1823  0.8612 -0.6059
 4659TIP3    H238173   0.797   5.099  10.737  0.3278  0.8025 -1.6832
 4660TIP3   OH238174   3.385   5.965  10.748 -0.2334 -0.0757  0.1268
 4660TIP3    H138175   3.468   6.000  10.780 -1.0508  2.3225 -0.1469
 4660TIP3    H238176   3.388   5.976  10.653 -0.3018 -1.3674 -0.0474
 4661TIP3   OH238177   6.801   5.758  12.698 -0.9135  0.5804  0.0600
 4661TIP3    H138178   6.887   5.795  12.679  0.6706 -2.2659  1.1352
 4661TIP3    H238179   6.801   5.672  12.655 -2.8700  0.1226  0.8435
 4662TIP3   OH238180   6.658   5.372  11.028 -0.0508 -0.3083  0.2101
 4662TIP3    H138181   6.680   5.285  10.994  1.6483 -0.0505  0.5642
 4662TIP3    H238182   6.637   5.424  10.950  0.5498 -0.6020 -0.1468
 4663TIP3   OH238183   4.095   1.672  11.457 -0.0087 -0.3199  0.3096
 4663TIP3    H138184   4.075   1.582  11.430 -0.7125  0.2890 -1.2867
 4663TIP3    H238185   4.063   1.727  11.386  0.1775  1.2355  1.3668
 4664TIP3   OH238186   5.777   4.786  12.219 -0.4713  0.0447 -0.5783
 4664TIP3    H138187   5.863   4.786  12.261  0.0853 -0.7392 -1.6564
 4664TIP3    H238188   5.795   4.757  12.129 -1.5361  2.1023 -1.5260
 4665TIP3   OH238189   5.146   2.158  12.236 -0.1899  0.1369 -0.4297
 4665TIP3    H138190   5.056   2.134  12.257  0.0530  0.1591  0.7224
 4665TIP3    H238191   5.140   2.204  12.153 -1.5007  1.7845  0.5095
 4666TIP3   OH238192   1.813   3.452  12.470 -0.5679 -0.1548 -0.0580
 4666TIP3    H138193   1.849   3.416  12.552  1.8173  3.3562  0.6645
 4666TIP3    H238194   1.727   3.487  12.495 -0.5587 -0.5307  0.5196
 4667TIP3   OH238195   4.762   7.228  12.757 -0.0603  0.2085  0.1108
 4667TIP3    H138196   4.813   7.174  12.817  0.1749 -1.2676 -1.3288
 4667TIP3    H238197   4.675   7.188  12.758  0.2461 -0.5778 -1.3412
 4668TIP3   OH238198   7.384   3.705  11.321  0.5049 -0.2855  0.5037
 4668TIP3    H138199   7.292   3.709  11.293  0.8157 -0.4405 -0.5907
 4668TIP3    H238200   7.398   3.787  11.368 -0.4512 -0.6885  1.5491
 4669TIP3   OH238201   7.069   3.621  10.998  0.0006  0.0415 -0.1890
 4669TIP3    H138202   7.127   3.574  11.058 -1.1177 -1.1570  0.0017
 4669TIP3    H238203   7.119   3.629  10.917  0.4273 -1.0255 -0.0511
 4670TIP3   OH238204   0.894   2.573  11.229  0.1925 -0.0550  0.4294
 4670TIP3    H138205   0.830   2.621  11.281  0.3871 -2.0369  2.6428
 4670TIP3    H238206   0.858   2.572  11.141 -0.6516  2.5658  0.6635
 4671TIP3   OH238207   7.132   3.926  10.857 -0.1815  0.0023  0.2967
 4671TIP3    H138208   7.157   3.834  10.856  1.2988  0.3466  1.5640
 4671TIP3    H238209   7.127   3.951  10.765  0.7609 -1.0065 -0.0406
 4672TIP3   OH238210   3.524   2.648  11.672 -0.1769 -0.3363  0.5010
 4672TIP3    H138211   3.432   2.620  11.673 -0.8044  1.5480  1.4667
 4672TIP3    H238212   3.549   2.644  11.580 -0.8642 -1.8994  0.3503
 4673TIP3   OH238213   0.147   4.367  12.504  0.2445  0.2877  0.3914
 4673TIP3    H138214   0.155   4.282  12.548 -1.2138  0.4036  0.9213
 4673TIP3    H238215   0.105   4.347  12.420 -1.4140  0.6105  1.1019
 4674TIP3   OH238216   1.518   0.750  10.521 -0.2523  0.4966  0.1425
 4674TIP3    H138217   1.545   0.836  10.486  0.1031  0.6398  0.7508
 4674TIP3    H238218   1.596   0.717  10.564 -0.8688  0.6265  1.3901
 4675TIP3   OH238219   3.392   0.177  11.998  0.3795  0.0665  0.0124
 4675TIP3    H138220   3.375   0.086  12.021 -0.3762  0.0487 -0.5809
 4675TIP3    H238221   3.485   0.190  12.018  0.8978 -1.2712 -1.2829
 4676TIP3   OH238222   3.560   7.529  10.715 -0.3523 -0.3901 -0.3711
 4676TIP3    H138223   3.642   7.482  10.702  0.1541  0.8871 -2.1091
 4676TIP3    H238224   3.503   7.497  10.644 -0.0030  1.4999 -1.5758
 4677TIP3   OH238225   0.834   2.470  11.666 -0.0379  0.2992  0.1732
 4677TIP3    H138226   0.861   2.431  11.749  0.0645  1.8422  0.8976
 4677TIP3    H238227   0.897   2.438  11.602  1.7426  1.4673  1.2702
 4678TIP3   OH238228   0.009   0.508  12.159  0.1387 -0.3129  0.4891
 4678TIP3    H138229  -0.016   0.445  12.091  1.7800 -0.5052  0.0387
 4678TIP3    H238230  -0.068   0.565  12.167 -0.8821 -1.5552 -0.0207
 4679TIP3   OH238231   4.560   6.059  11.574 -0.1119  0.2147 -0.1824
 4679TIP3    H138232   4.491   6.054  11.508 -0.0581  0.3305 -0.2461
 4679TIP3    H238233   4.516   6.036  11.656  0.2445 -1.9081 -0.5365
 4680TIP3   OH238234   2.627   1.114  11.273 -0.2523 -0.0452  0.2814
 4680TIP3    H138235   2.599   1.143  11.359 -0.1697  1.5678 -0.2073
 4680TIP3    H238236   2.650   1.194  11.226  1.1180 -0.9853 -0.7529
 4681TIP3   OH238237   3.263   0.977  11.594 -0.4855 -0.0805 -0.5491
 4681TIP3    H138238   3.231   0.955  11.681  0.6645  0.5976  0.0782
 4681TIP3    H238239   3.284   0.893  11.554 -1.4544 -0.4240 -0.3626
 4682TIP3   OH238240   1.831   5.861  10.527  0.0263 -0.3897 -0.0119
 4682TIP3    H138241   1.807   5.781  10.480  0.2336 -0.7578  0.5013
 4682TIP3    H238242   1.807   5.932  10.467 -1.6129 -0.7613  0.1471
 4683TIP3   OH238243   4.898   3.977  11.519  0.5611  0.0179 -0.1404
 4683TIP3    H138244   4.924   4.021  11.438 -2.1039  1.6945 -0.1876
 4683TIP3    H238245   4.855   3.896  11.491 -1.4113  1.1481 -0.5696
 4684TIP3   OH238246   5.837   6.180  12.169 -0.0402  0.0045 -0.3669
 4684TIP3    H138247   5.764   6.186  12.230  0.6185  0.9691  0.3576
 4684TIP3    H238248   5.909   6.227  12.212 -0.0157  2.1754 -2.5488
 4685TIP3   OH238249   6.600   3.317  11.524  0.5185  0.8480  0.1858
 4685TIP3    H138250   6.567   3.324  11.613 -1.4591  0.8676 -0.4925
 4685TIP3    H238251   6.553   3.386  11.476  0.4539 -0.0909 -1.1608
 4686TIP3   OH238252   7.507   2.376   9.936  0.4869 -1.2137 -0.0724
 4686TIP3    H138253   7.420   2.379   9.976 -1.0269  1.0455 -3.1488
 4686TIP3    H238254   7.559   2.436   9.988 -0.7351 -0.1283 -0.0571
 4687TIP3   OH238255   0.212   4.140  10.157  0.1271  0.4152  0.3696
 4687TIP3    H138256   0.134   4.182  10.192  0.0924  0.2984  0.4322
 4687TIP3    H238257   0.242   4.199  10.088 -2.0840 -1.2443 -2.2229
 4688TIP3   OH238258   7.656   6.739  10.953  0.1265  0.0068 -0.2994
 4688TIP3    H138259   7.662   6.647  10.981 -0.6942 -0.0789 -0.3604
 4688TIP3    H238260   7.722   6.747  10.885  0.4837 -0.4328 -0.0155
 4689TIP3   OH238261   4.901   5.393  12.593 -0.6266 -0.0733  0.1343
 4689TIP3    H138262   4.950   5.472  12.615  1.8643 -2.2097  3.2344
 4689TIP3    H238263   4.826   5.394  12.651 -1.9454  1.0618 -1.5092
 4690TIP3   OH238264   3.560   0.418  11.727 -0.1580  0.5394 -0.3329
 4690TIP3    H138265   3.483   0.453  11.772  0.8715  1.0019  1.1287
 4690TIP3    H238266   3.562   0.325  11.753  0.6567  0.8942  0.9543
 4691TIP3   OH238267   2.443   6.260  11.655  0.0524 -0.4343 -0.6732
 4691TIP3    H138268   2.421   6.210  11.577  2.7081 -1.7105 -0.7088
 4691TIP3    H238269   2.413   6.206  11.728 -1.2634  0.1638 -0.7355
 4692TIP3   OH238270   7.125   1.837  11.735 -0.3270 -0.1621  0.1563
 4692TIP3    H138271   7.102   1.914  11.682 -0.7274 -0.3445  0.0652
 4692TIP3    H238272   7.072   1.846  11.815 -0.5557 -0.4677  0.0409
 4693TIP3   OH238273   1.419   2.941  12.096 -0.6054  0.0168  0.1127
 4693TIP3    H138274   1.355   3.002  12.060 -2.2500 -1.4643  0.3654
 4693TIP3    H238275   1.427   2.872  12.029  0.3903 -0.0557  0.2876
 4694TIP3   OH238276   5.719   6.069  11.968  0.1719  0.6857  0.1909
 4694TIP3    H138277   5.788   6.007  11.943  0.2002  0.5699  0.5578
 4694TIP3    H238278   5.758   6.122  12.037 -0.0054  0.8224  0.1855
 4695TIP3   OH238279   4.587   0.264  11.256 -0.4572 -0.2863 -0.1109
 4695TIP3    H138280   4.513   0.208  11.231  0.2586 -1.3497  0.1008
 4695TIP3    H238281   4.547   0.349  11.276 -1.3441 -0.0459 -2.4979
 4696TIP3   OH238282   7.240   0.089  11.672  0.2079 -0.0529 -0.0128
 4696TIP3    H138283   7.154   0.131  11.664 -0.0659 -0.6825 -0.5434
 4696TIP3    H238284   7.254   0.048  11.587  0.1983 -1.4976  0.6410
 4697TIP3   OH238285   7.587   3.093  12.541 -0.1866 -0.0563 -0.0832
 4697TIP3    H138286   7.664   3.147  12.557  0.4311 -0.3713 -1.8069
 4697TIP3    H238287   7.586   3.079  12.447 -0.4808 -2.7932  0.2428
 4698TIP3   OH238288   5.744   6.465  12.244 -0.2356  0.2059  0.0057
 4698TIP3    H138289   5.777   6.548  12.209 -2.3011  1.9959  1.9560
 4698TIP3    H238290   5.650   6.466  12.225 -1.6334  1.4834  5.3095
 4699TIP3   OH238291   6.930   2.287  10.808 -0.2386  0.2133  0.5379
 4699TIP3    H138292   6.852   2.239  10.777 -0.2539 -0.5622  1.7172
 4699TIP3    H238293   6.984   2.297  10.729  0.8121 -3.7535  0.5396
 4700TIP3   OH238294   4.839   2.458  11.925 -0.0776  0.5925 -0.1314
 4700TIP3    H138295   4.892   2.535  11.906 -1.0814  1.3661  0.1254
 4700TIP3    H238296   4.757   2.473  11.877 -1.5103  1.1677  2.3187
 4701TIP3   OH238297   0.980   4.324  10.565 -0.2968  0.0086  0.1739
 4701TIP3    H138298   1.001   4.418  10.564  2.2315 -0.4856  0.6313
 4701TIP3    H238299   0.960   4.306  10.657  0.7240 -0.1532  0.3819
 4702TIP3   OH238300   7.674   2.216   9.773 -0.2371 -0.3226 -0.1738
 4702TIP3    H138301   7.619   2.274   9.826 -1.0205  0.6038 -1.9288
 4702TIP3    H238302   7.759   2.259   9.771 -0.7881  0.7840 -1.3881
 4703TIP3   OH238303   2.419   2.099  11.449 -0.4921 -0.1165 -0.6527
 4703TIP3    H138304   2.340   2.154  11.445 -1.6946 -1.7772 -1.1276
 4703TIP3    H238305   2.385   2.010  11.462  1.3794 -0.7623  0.1801
 4704TIP3   OH238306   6.951   6.248  10.589 -0.4139  0.2294  0.2412
 4704TIP3    H138307   6.966   6.343  10.582 -0.3544  0.3086  1.3853
 4704TIP3    H238308   6.889   6.238  10.660 -1.1342 -0.5473 -0.4666
 4705TIP3   OH238309   7.006   1.496  10.756 -0.0878 -0.6287  0.1238
 4705TIP3    H138310   7.026   1.451  10.673 -0.1424 -0.2876 -0.0757
 4705TIP3    H238311   6.956   1.432  10.806  0.6099 -1.1183  0.2067
 4706TIP3   OH238312   2.367   1.576  11.395  0.1895  0.1289  0.3727
 4706TIP3    H138313   2.458   1.604  11.385  0.2220  0.7128  2.0319
 4706TIP3    H238314   2.357   1.559  11.489 -0.9700 -1.5140  0.0099
 4707TIP3   OH238315   2.439   1.526  10.721 -0.8385 -0.1150  0.1471
 4707TIP3    H138316   2.484   1.482  10.649  2.2211  0.9761  1.2368
 4707TIP3    H238317   2.465   1.618  10.713 -2.0831  0.3846  1.4560
 4708TIP3   OH238318   6.109   2.652  11.462  0.0897 -0.3427 -0.1177
 4708TIP3    H138319   6.046   2.706  11.510 -1.5048  1.3902 -3.7663
 4708TIP3    H238320   6.187   2.707  11.455 -0.0581 -0.1713 -0.4098
 4709TIP3   OH238321   1.746   4.710  10.279 -0.1024 -0.5043  0.1260
 4709TIP3    H138322   1.804   4.766  10.330  0.8485 -2.0620  0.8410
 4709TIP3    H238323   1.800   4.678  10.206 -0.4350 -0.9710  0.0746
 4710TIP3   OH238324   2.705   3.241  12.975  0.4936  0.1021  0.3817
 4710TIP3    H138325   2.649   3.165  12.962  2.6033 -1.3964 -0.6596
 4710TIP3    H238326   2.679   3.302  12.907  0.5693 -0.8743 -0.5535
 4711TIP3   OH238327   2.565   7.228  12.710 -0.1315  0.2264 -0.0593
 4711TIP3    H138328   2.495   7.162  12.702 -1.4450  1.4943  0.4577
 4711TIP3    H238329   2.642   7.186  12.674 -0.9583 -1.5544  0.1560
 4712TIP3   OH238330   1.912   5.781  10.914 -0.1486 -0.5502 -0.5807
 4712TIP3    H138331   1.949   5.868  10.903  0.7514 -1.1181 -2.6889
 4712TIP3    H238332   1.817   5.794  10.914 -0.0139  0.4802 -0.1035
 4713TIP3   OH238333   4.554   1.331  12.412  0.2772  0.5949  0.0444
 4713TIP3    H138334   4.572   1.422  12.436 -1.1083  0.3757  2.0808
 4713TIP3    H238335   4.496   1.337  12.336 -0.9068  1.4595  0.9904
 4714TIP3   OH238336   0.295   1.569  12.132 -0.1192  0.8290 -0.6660
 4714TIP3    H138337   0.386   1.549  12.110  0.2231 -0.2409  1.4282
 4714TIP3    H238338   0.265   1.491  12.180 -2.3597  0.8802 -1.8690
 4715TIP3   OH238339   1.278   3.188  11.455 -0.4346 -0.5161 -0.2724
 4715TIP3    H138340   1.322   3.105  11.435  1.7451  0.8882 -1.6884
 4715TIP3    H238341   1.273   3.233  11.370 -0.8376  1.1236  0.5941
 4716TIP3   OH238342   0.326   6.815  11.218  0.1477 -0.2360 -0.3467
 4716TIP3    H138343   0.308   6.810  11.124 -0.8274  0.5921 -0.2298
 4716TIP3    H238344   0.239   6.819  11.259  0.5527  0.8604  0.4800
 4717TIP3   OH238345   4.560   0.504  10.743  0.1460  0.0732  0.1809
 4717TIP3    H138346   4.591   0.417  10.719  0.8303  1.0807 -3.1268
 4717TIP3    H238347   4.474   0.489  10.783 -0.7079 -2.0748 -2.1894
 4718TIP3   OH238348   6.670   5.158  12.222 -0.4252 -0.1444  0.5719
 4718TIP3    H138349   6.690   5.213  12.146  1.9124 -0.8503  0.6194
 4718TIP3    H238350   6.636   5.077  12.185 -2.6273  0.7514  0.4622
 4719TIP3   OH238351   4.277   6.383  10.548 -0.1574  0.2478  0.6950
 4719TIP3    H138352   4.203   6.384  10.608  0.3272 -2.9899  1.5460
 4719TIP3    H238353   4.347   6.338  10.597  1.0741 -0.2755 -1.4194
 4720TIP3   OH238354   7.596   7.406  10.418  0.0410 -0.0779 -0.2446
 4720TIP3    H138355   7.670   7.372  10.470  0.7226  2.1001  0.3028
 4720TIP3    H238356   7.590   7.346  10.344  1.6814 -0.9294  0.2504
 4721TIP3   OH238357   5.321   0.437  11.965 -0.3529  0.3102 -0.0534
 4721TIP3    H138358   5.275   0.452  12.047 -0.3252  1.8407 -0.2883
 4721TIP3    H238359   5.296   0.511  11.909  0.2702 -0.2628 -1.1286
 4722TIP3   OH238360   7.596   0.328  10.537  0.4354  0.3723  0.0746
 4722TIP3    H138361   7.600   0.272  10.460  0.7923 -0.7498  0.8778
 4722TIP3    H238362   7.564   0.413  10.505 -0.3908 -0.3718 -1.1205
 4723TIP3   OH238363   0.330   2.508  12.149 -0.0096  0.0761 -0.2342
 4723TIP3    H138364   0.276   2.504  12.228 -1.9497  1.0936 -1.4467
 4723TIP3    H238365   0.417   2.531  12.181 -0.6477  0.0931  1.6314
 4724TIP3   OH238366   6.095   1.899  12.641  0.2299  0.0985 -0.1233
 4724TIP3    H138367   6.010   1.941  12.652 -0.4988 -1.2855 -0.1592
 4724TIP3    H238368   6.123   1.878  12.731 -0.5080 -1.3577 -0.2036
 4725TIP3   OH238369   3.747   3.197  10.425  0.3433  0.6606  0.1472
 4725TIP3    H138370   3.763   3.250  10.347  1.8697  1.0853  0.7145
 4725TIP3    H238371   3.654   3.176  10.421  0.6689 -0.7421 -2.6981
 4726TIP3   OH238372   6.245   7.399  11.915  0.0762 -0.0502 -0.6558
 4726TIP3    H138373   6.235   7.305  11.926 -0.2322  0.1208  0.7344
 4726TIP3    H238374   6.338   7.411  11.893  0.8770 -0.5002  2.1022
 4727TIP3   OH238375   0.127   3.822  10.615 -0.4724 -0.2073 -0.1347
 4727TIP3    H138376   0.081   3.892  10.568 -2.1749 -1.6368 -0.7349
 4727TIP3    H238377   0.103   3.742  10.567  0.4700 -1.3281  1.1998
 4728TIP3   OH238378   1.471   0.081  12.182 -0.4930 -0.1095 -0.2925
 4728TIP3    H138379   1.446   0.167  12.215 -0.4652  0.5366 -1.8575
 4728TIP3    H238380   1.541   0.052  12.240 -0.0896  1.1983 -0.0903
 4729TIP3   OH238381   0.781   2.122  12.399 -0.2923 -0.5421  0.2411
 4729TIP3    H138382   0.769   2.097  12.491 -0.4713 -1.4835 -0.0237
 4729TIP3    H238383   0.735   2.205  12.391  0.1428 -0.2031  1.1186
 4730TIP3   OH238384   1.422   0.151  10.419 -0.0382 -0.1923 -0.1920
 4730TIP3    H138385   1.357   0.205  10.464 -0.7415  0.2006 -1.6181
 4730TIP3    H238386   1.371   0.081  10.379 -0.0930  1.5690 -3.5866
 4731TIP3   OH238387   2.255   0.095  11.020  0.3111 -0.0847  0.0934
 4731TIP3    H138388   2.197   0.132  10.954  2.2351  0.7285 -1.2304
 4731TIP3    H238389   2.282   0.011  10.984 -0.4713 -0.7444  0.9878
 4732TIP3   OH238390   6.290   4.887  12.841  0.1846 -0.2047  0.3828
 4732TIP3    H138391   6.338   4.958  12.884 -0.7555  0.7194 -0.0338
 4732TIP3    H238392   6.357   4.824  12.817  1.2134  1.0707 -0.2549
 4733TIP3   OH238393   5.779   4.544  10.888 -0.0066  0.0037 -0.1918
 4733TIP3    H138394   5.789   4.594  10.969  2.4957  1.2665 -1.1744
 4733TIP3    H238395   5.848   4.477  10.894  1.1770  1.0214 -1.8598
 4734TIP3   OH238396   5.058   2.777  10.346  0.2309 -0.3257 -0.4702
 4734TIP3    H138397   5.020   2.846  10.400  0.7173  1.2690 -2.0708
 4734TIP3    H238398   4.986   2.745  10.292  0.1016 -0.7897 -0.0309
 4735TIP3   OH238399   1.181   0.454  10.337 -0.1800  0.2900 -0.2537
 4735TIP3    H138400   1.139   0.493  10.260  0.5258 -0.2228 -0.9176
 4735TIP3    H238401   1.273   0.477  10.328 -0.3630  2.0451  1.5763
 4736TIP3   OH238402   4.058   7.183  12.960  0.0869  0.0581 -0.3164
 4736TIP3    H138403   4.127   7.154  13.020 -0.0354  0.9274  0.2676
 4736TIP3    H238404   4.009   7.104  12.939 -0.5212 -0.1287  1.6022
 4737TIP3   OH238405   4.596   4.453  11.785 -0.1782 -0.3638  0.4127
 4737TIP3    H138406   4.549   4.416  11.711 -1.1254 -1.4394  1.5021
 4737TIP3    H238407   4.671   4.394  11.798 -0.0772 -0.2439  0.3697
 4738TIP3   OH238408   4.873   5.293  12.296  0.0200 -0.0385  0.2976
 4738TIP3    H138409   4.882   5.367  12.236  0.3001  0.0645  0.4626
 4738TIP3    H238410   4.847   5.332  12.379 -2.0824 -0.3389 -0.1762
 4739TIP3   OH238411   0.303   2.867  11.651  0.2267 -0.0159 -0.4154
 4739TIP3    H138412   0.320   2.893  11.741 -0.3530  0.0429 -0.3197
 4739TIP3    H238413   0.297   2.772  11.654 -1.1317  0.0561 -0.1418
 4740TIP3   OH238414   5.195   2.319  12.465 -0.0549 -0.3117 -0.0351
 4740TIP3    H138415   5.168   2.256  12.398  0.4491 -0.2786 -0.2720
 4740TIP3    H238416   5.224   2.264  12.539  0.3834 -0.3612 -0.2415
 4741TIP3   OH238417   1.470   3.159  10.444 -0.4170 -0.8254 -0.4104
 4741TIP3    H138418   1.550   3.114  10.471  1.3999  1.9929 -0.7005
 4741TIP3    H238419   1.493   3.201  10.361 -1.1539  2.3755  0.8596
 4742TIP3   OH238420   2.623   7.386  12.052 -0.1921  0.0331  0.6439
 4742TIP3    H138421   2.669   7.408  12.133 -1.4027 -0.3670  1.4696
 4742TIP3    H238422   2.560   7.457  12.040 -0.7101 -0.4204  0.6201
 4743TIP3   OH238423   5.223   0.823  11.881  0.2276  0.0747 -0.0904
 4743TIP3    H138424   5.168   0.833  11.958  0.6302 -0.4178  0.2640
 4743TIP3    H238425   5.301   0.875  11.899  1.0025 -1.2430  0.4963
 4744TIP3   OH238426   6.153   6.999  11.643 -0.2260  0.0141 -0.5167
 4744TIP3    H138427   6.075   6.953  11.674  1.4371 -1.6364  1.4368
 4744TIP3    H238428   6.185   7.047  11.719  1.5589 -0.6250 -0.8162
 4745TIP3   OH238429   2.662   3.007  11.670 -0.1970 -0.2236  0.4244
 4745TIP3    H138430   2.638   2.952  11.745  1.6650  0.3617  1.5026
 4745TIP3    H238431   2.629   3.094  11.693 -0.9698 -0.3504 -0.1606
 4746TIP3   OH238432   6.929   5.453   9.903  0.3229  0.0991  0.4953
 4746TIP3    H138433   6.940   5.367   9.863 -1.0754  0.6797 -1.2413
 4746TIP3    H238434   6.850   5.489   9.863  1.8675  2.9503 -0.2789
 4747TIP3   OH238435   2.139   3.170  10.988 -0.2101 -0.1357  0.2549
 4747TIP3    H138436   2.124   3.138  11.077  0.3392 -0.2155  0.3181
 4747TIP3    H238437   2.051   3.180  10.952 -0.4198 -1.4769  0.3313
 4748TIP3   OH238438   2.665   0.838  10.166 -0.4261  0.3083 -0.1047
 4748TIP3    H138439   2.740   0.806  10.116 -0.2994 -1.1817  0.9662
 4748TIP3    H238440   2.703   0.895  10.233 -0.4679  1.2244 -0.8459
 4749TIP3   OH238441   3.153   4.571  11.417  0.8361  0.1420 -0.5138
 4749TIP3    H138442   3.187   4.517  11.345  2.4508 -0.4556  0.6405
 4749TIP3    H238443   3.188   4.530  11.496 -0.1465  1.3235  0.5654
 4750TIP3   OH238444   3.382   5.041  10.848 -0.4627 -0.0618 -0.2619
 4750TIP3    H138445   3.439   5.045  10.771  0.1123 -0.3875  0.1425
 4750TIP3    H238446   3.359   4.949  10.856  0.4242 -0.2205  0.6307
 4751TIP3   OH238447   5.828   0.449  12.396  0.3027 -0.4096  0.0475
 4751TIP3    H138448   5.800   0.386  12.329  1.2225 -0.2979 -0.4617
 4751TIP3    H238449   5.916   0.476  12.369 -1.0244  3.1606 -1.2447
 4752TIP3   OH238450   1.874   1.754  11.292  0.8488 -0.8021 -0.0231
 4752TIP3    H138451   1.900   1.670  11.329  2.2559 -0.5705 -0.4147
 4752TIP3    H238452   1.809   1.732  11.225  0.9816 -1.5350  0.0836
 4753TIP3   OH238453   0.513   5.646  10.025 -0.4089  0.1461 -0.2022
 4753TIP3    H138454   0.452   5.673  10.093 -2.4269  0.4344 -1.9985
 4753TIP3    H238455   0.552   5.728   9.994 -0.5599  0.1625 -0.3485
 4754TIP3   OH238456   7.195   3.480   9.836 -0.0528 -0.1024 -0.2291
 4754TIP3    H138457   7.109   3.508   9.804  1.2474  0.9288 -3.1973
 4754TIP3    H238458   7.223   3.550   9.894  0.4773  1.8140 -2.6237
 4755TIP3   OH238459   5.062   0.296  11.961  0.0700  0.7829 -0.1711
 4755TIP3    H138460   5.124   0.367  11.945  0.5817  0.9317  2.1412
 4755TIP3    H238461   4.978   0.340  11.975 -0.1792  0.7105 -1.2971
 4756TIP3   OH238462   6.482   7.650  10.250  0.0592  0.0014 -0.1402
 4756TIP3    H138463   6.503   7.576  10.195  0.0812 -0.4187  0.4217
 4756TIP3    H238464   6.471   7.724  10.189  2.3560  0.0836 -0.5201
 4757TIP3   OH238465   5.159   5.916  12.804  0.0395 -0.1484  0.2153
 4757TIP3    H138466   5.112   5.928  12.721 -1.1917  1.9187  1.1184
 4757TIP3    H238467   5.090   5.919  12.871  1.2754  1.4880  1.4875
 4758TIP3   OH238468   7.179   6.661  10.934 -0.3292 -0.0123 -0.6712
 4758TIP3    H138469   7.226   6.741  10.961 -0.7213  0.3189 -0.9637
 4758TIP3    H238470   7.160   6.616  11.016 -0.0474  0.1620 -0.5074
 4759TIP3   OH238471   0.339   0.469  10.362  0.3014  0.3519 -0.9170
 4759TIP3    H138472   0.284   0.505  10.293  0.5343 -1.0547 -1.8755
 4759TIP3    H238473   0.341   0.374  10.345  3.1084  0.3472 -1.0118
 4760TIP3   OH238474   4.356   6.735  10.130  0.1330  0.0027 -0.3269
 4760TIP3    H138475   4.307   6.760  10.209 -1.0458  0.4936 -1.1786
 4760TIP3    H238476   4.425   6.677  10.162  0.4121  1.1158  1.2142
 4761TIP3   OH238477   4.883   7.611  12.461 -0.0776  0.2245 -0.1568
 4761TIP3    H138478   4.830   7.587  12.385  1.6541 -0.1457 -1.3132
 4761TIP3    H238479   4.911   7.528  12.498  1.2604  0.3947 -0.7380
 4762TIP3   OH238480   5.500   2.907  12.328 -0.5876  0.5280 -0.0869
 4762TIP3    H138481   5.536   2.951  12.250 -1.3452  1.6515  0.1648
 4762TIP3    H238482   5.421   2.957  12.348 -0.1356  0.5668  1.7050
 4763TIP3   OH238483   1.061   3.523  10.804  1.2669 -0.3340  0.5428
 4763TIP3    H138484   1.062   3.473  10.722 -0.1845  0.6904 -0.1557
 4763TIP3    H238485   1.038   3.612  10.777  1.8709  0.2824  1.9613
 4764TIP3   OH238486   1.369   0.532  12.706  0.0625  0.2122 -0.0247
 4764TIP3    H138487   1.370   0.447  12.750 -0.3360  0.7914  1.1494
 4764TIP3    H238488   1.445   0.578  12.741 -0.3028  0.7100  0.1329
 4765TIP3   OH238489   2.944   0.083  11.795  0.2360  0.2534  0.0338
 4765TIP3    H138490   2.878   0.063  11.729  0.2231 -0.5615  0.2845
 4765TIP3    H238491   2.899   0.139  11.858  0.0953  0.5892 -0.3618
 4766TIP3   OH238492   1.355   4.512  11.373  0.1151 -0.4449 -0.1798
 4766TIP3    H138493   1.361   4.582  11.308 -0.0264  0.0044  0.2826
 4766TIP3    H238494   1.358   4.431  11.322  1.8749 -0.1481 -0.6357
 4767TIP3   OH238495   6.629   2.690  11.649  0.0521 -0.7680  0.2480
 4767TIP3    H138496   6.720   2.671  11.626  0.0807  0.5269 -0.8580
 4767TIP3    H238497   6.579   2.665  11.571 -0.5482 -1.4103  0.8249
 4768TIP3   OH238498   5.952   5.667  12.014 -0.0066  0.3837 -0.4026
 4768TIP3    H138499   5.880   5.648  12.075 -0.8690  1.6890 -0.9527
 4768TIP3    H238500   5.925   5.626  11.932  0.0888  0.4878 -0.4856
 4769TIP3   OH238501   5.739   2.483  10.650 -0.2628 -0.1864  0.0803
 4769TIP3    H138502   5.736   2.406  10.594  0.6152 -0.4310  0.3433
 4769TIP3    H238503   5.735   2.447  10.739  1.0799 -0.0292  0.2355
 4770TIP3   OH238504   5.775   7.118  10.742 -0.1990 -0.4751 -0.1895
 4770TIP3    H138505   5.790   7.029  10.712 -1.5203 -0.2314 -1.7042
 4770TIP3    H238506   5.688   7.140  10.710 -1.3453  0.2197  3.0307
 4771TIP3   OH238507   5.290   2.715  10.502 -0.0780  0.4014 -0.0637
 4771TIP3    H138508   5.223   2.747  10.442  0.1253 -0.3833 -0.7248
 4771TIP3    H238509   5.283   2.620  10.497  0.7750  0.3149  0.2079
 4772TIP3   OH238510   2.797   5.560  11.989 -0.3256  0.0460 -0.4488
 4772TIP3    H138511   2.831   5.514  11.912  0.1439 -0.3965  0.0168
 4772TIP3    H238512   2.852   5.530  12.061 -0.2241  1.1049 -0.0815
 4773TIP3   OH238513   5.435   1.944  11.016 -0.4100  0.1497 -0.0265
 4773TIP3    H138514   5.408   1.925  11.106 -1.0091 -0.3522 -0.2998
 4773TIP3    H238515   5.514   1.891  11.002  0.0394  0.7031  0.3967
 4774TIP3   OH238516   4.737   5.787  11.016 -0.0572 -0.1276 -1.0890
 4774TIP3    H138517   4.684   5.708  11.027 -0.2014  0.1156  0.1281
 4774TIP3    H238518   4.720   5.839  11.095 -0.1849  1.2585 -2.0026
 4775TIP3   OH238519   5.653   7.531  11.472 -0.6292 -0.3950  0.4489
 4775TIP3    H138520   5.658   7.608  11.528  0.2571 -0.7930  0.9595
 4775TIP3    H238521   5.679   7.562  11.386  1.8131 -0.4615  1.0635
 4776TIP3   OH238522   0.823   0.575  10.598  0.5206 -0.1265 -0.3855
 4776TIP3    H138523   0.748   0.579  10.538 -2.5774  0.2997  3.0858
 4776TIP3    H238524   0.845   0.666  10.616 -0.8283 -0.0826  1.4182
 4777TIP3   OH238525   1.390   4.512  12.193  0.1094  0.0030 -0.2025
 4777TIP3    H138526   1.362   4.548  12.277 -2.2317  1.6293 -1.5412
 4777TIP3    H238527   1.309   4.478  12.154  0.9724 -0.0514 -2.0673
 4778TIP3   OH238528   3.527   1.444  10.575  0.1199  0.2990 -0.1152
 4778TIP3    H138529   3.514   1.369  10.517  0.1615  1.1996 -1.3358
 4778TIP3    H238530   3.477   1.515  10.534  2.2838  1.6866 -0.5437
 4779TIP3   OH238531   1.033   5.312  10.950  0.1465 -0.0257 -0.3782
 4779TIP3    H138532   0.998   5.400  10.963 -0.5625 -0.1051 -1.5268
 4779TIP3    H238533   1.054   5.308  10.856  0.9062 -0.8196 -0.1872
 4780TIP3   OH238534   7.457   6.803  12.765 -0.1592 -0.6988 -0.1305
 4780TIP3    H138535   7.402   6.828  12.839 -1.0168 -1.9147 -0.3266
 4780TIP3    H238536   7.398   6.757  12.706  0.7283 -0.5873 -1.1265
 4781TIP3   OH238537   4.432   3.103  11.771 -0.2171 -0.8087 -0.6320
 4781TIP3    H138538   4.421   3.135  11.860  2.7522 -1.1062 -0.0606
 4781TIP3    H238539   4.373   3.157  11.718  1.1464  2.4753  0.9320
 4782TIP3   OH238540   7.597   0.292  11.966 -0.0382 -0.2732  0.3578
 4782TIP3    H138541   7.521   0.242  11.939  0.4374 -1.2013  0.6947
 4782TIP3    H238542   7.648   0.305  11.886  1.9363 -3.9676  0.7712
 4783TIP3   OH238543   5.200   2.471  10.466  0.1883 -0.0259 -0.1525
 4783TIP3    H138544   5.136   2.422  10.413 -0.0962  1.1476 -0.9371
 4783TIP3    H238545   5.268   2.407  10.486 -0.3727 -0.8515 -0.8084
 4784TIP3   OH238546   1.735   2.792  11.889  0.2447  0.0677 -0.1911
 4784TIP3    H138547   1.726   2.790  11.984  1.0838 -1.2529 -0.1092
 4784TIP3    H238548   1.750   2.884  11.868 -0.3966  0.4348  0.8980
 4785TIP3   OH238549   0.889   1.541  12.306 -0.1050 -0.2070  0.0401
 4785TIP3    H138550   0.795   1.524  12.317 -0.2755  0.3158 -0.5460
 4785TIP3    H238551   0.901   1.546  12.211  0.2833  0.9941  0.1444
 4786TIP3   OH238552   0.795   3.936  11.331 -0.4773 -0.2490  0.0181
 4786TIP3    H138553   0.716   3.949  11.384 -0.2874  4.2936 -0.4245
 4786TIP3    H238554   0.867   3.938  11.395 -0.4938  0.0743  0.0258
 4787TIP3   OH238555   1.540   0.057  11.031  0.2209  0.1605 -0.0498
 4787TIP3    H138556   1.553   0.023  11.120  0.7336  1.0101  0.2035
 4787TIP3    H238557   1.452   0.094  11.032  0.5874  1.0404  0.3961
 4788TIP3   OH238558   5.066   3.233  11.234  0.5695 -0.8814  0.2294
 4788TIP3    H138559   5.118   3.292  11.180  1.6169  0.2676  2.3754
 4788TIP3    H238560   5.102   3.242  11.322 -1.7766 -1.8090  1.3791
 4789TIP3   OH238561   5.206   1.897  10.785  0.4218 -0.2299  0.2803
 4789TIP3    H138562   5.205   1.982  10.741  2.4277 -0.4093 -0.1948
 4789TIP3    H238563   5.255   1.912  10.866 -0.7544 -0.5638  1.0897
 4790TIP3   OH238564   1.239   6.107  12.178  0.1054  0.6179  0.3704
 4790TIP3    H138565   1.321   6.095  12.226  0.6850  0.8118 -0.5445
 4790TIP3    H238566   1.242   6.042  12.108  0.3074  1.7898 -0.7425
 4791TIP3   OH238567   0.438   6.911  12.262  0.0333 -0.3145 -0.4019
 4791TIP3    H138568   0.497   6.986  12.257 -0.6187  0.1437 -2.0022
 4791TIP3    H238569   0.486   6.840  12.220 -0.7988  0.2892 -2.5321
 4792TIP3   OH238570   2.325   5.656  11.387 -0.3653 -0.1337 -0.0830
 4792TIP3    H138571   2.314   5.751  11.387 -0.3220 -0.1060 -1.3492
 4792TIP3    H238572   2.272   5.625  11.461  0.2449  0.9304  0.8174
 4793TIP3   OH238573   1.673   4.345  12.365 -0.6259 -0.2804 -0.2410
 4793TIP3    H138574   1.581   4.335  12.339 -1.1665  0.4133  1.2809
 4793TIP3    H238575   1.684   4.440  12.375 -0.1666 -0.4554  1.0199
 4794TIP3   OH238576   0.220   2.038  12.062  0.1099 -0.3210  0.0992
 4794TIP3    H138577   0.146   1.988  12.097  1.0815 -0.5900  1.9230
 4794TIP3    H238578   0.180   2.111  12.016 -1.3025 -1.1628 -0.0892
 4795TIP3   OH238579   4.688   3.012  11.178 -0.5603 -0.6903 -0.0927
 4795TIP3    H138580   4.638   2.931  11.194 -2.3555  0.6282  1.3523
 4795TIP3    H238581   4.625   3.082  11.188  1.1903  0.9901 -0.2002
 4796TIP3   OH238582   5.335   1.541  11.881 -0.7582  0.0332  0.2054
 4796TIP3    H138583   5.327   1.456  11.837 -0.1435  0.3757 -0.5903
 4796TIP3    H238584   5.248   1.557  11.919 -1.1889 -0.4505 -0.5584
 4797TIP3   OH238585   2.275   2.794  12.098 -0.5819 -0.0531  1.1220
 4797TIP3    H138586   2.222   2.770  12.173 -2.3522 -0.6301 -0.2310
 4797TIP3    H238587   2.355   2.741  12.107  0.4775  1.8478  3.9055
 4798TIP3   OH238588   3.002   7.261  10.877 -0.0673  0.1639  0.2904
 4798TIP3    H138589   3.073   7.272  10.814  0.2879 -1.4401  0.3608
 4798TIP3    H238590   2.978   7.350  10.902  0.8513  0.7853 -0.9147
 4799TIP3   OH238591   7.627   6.643  11.350  0.0535 -0.0259 -0.4170
 4799TIP3    H138592   7.586   6.635  11.436 -1.4134 -1.4948 -1.1837
 4799TIP3    H238593   7.665   6.731  11.349 -1.9899  0.9469  0.8680
 4800TIP3   OH238594   1.392   0.798  11.677  0.5167 -0.4853  0.0088
 4800TIP3    H138595   1.306   0.759  11.690  0.9314 -1.3447  0.2527
 4800TIP3    H238596   1.381   0.856  11.602 -0.5698  0.3715  0.8144
 4801TIP3   OH238597   0.868   6.049  10.970 -0.2169 -0.1158 -0.2943
 4801TIP3    H138598   0.882   6.020  11.061  0.6522 -1.0900 -0.7221
 4801TIP3    H238599   0.950   6.029  10.926 -1.2489 -1.4049 -1.7421
 4802TIP3   OH238600   1.982   4.985  11.549  0.0446  0.0564  0.1780
 4802TIP3    H138601   2.053   5.035  11.589  0.1482  1.4585 -1.6055
 4802TIP3    H238602   1.941   5.046  11.488 -1.8278 -1.1506  0.1446
 4803TIP3   OH238603   0.878   2.372  12.714  0.6887  0.1414  0.2047
 4803TIP3    H138604   0.901   2.323  12.635 -1.8373  0.0168 -0.5397
 4803TIP3    H238605   0.887   2.464  12.689 -1.4384  0.1458 -0.7737
 4804TIP3   OH238606   0.129   2.519  11.421  0.7063  0.1430  0.6017
 4804TIP3    H138607   0.195   2.465  11.378  1.4456  1.1112  0.4981
 4804TIP3    H238608   0.178   2.569  11.487 -0.1703 -0.2297  1.5705
 4805TIP3   OH238609   4.867   2.116  11.713  0.0126 -0.6533  0.2013
 4805TIP3    H138610   4.957   2.083  11.711  0.0744 -0.4864 -2.1189
 4805TIP3    H238611   4.817   2.045  11.753  0.9783 -1.3098  0.2928
 4806TIP3   OH238612   0.058   0.698  11.243  0.3744  0.2498 -0.1147
 4806TIP3    H138613   0.126   0.651  11.291 -0.1040 -0.1519  0.1764
 4806TIP3    H238614   0.101   0.727  11.163  0.4412 -1.4588 -0.7236
 4807TIP3   OH238615   5.197   2.543  12.053 -0.1863  0.3076  0.2240
 4807TIP3    H138616   5.271   2.532  11.994 -0.2747 -0.8258  0.3110
 4807TIP3    H238617   5.157   2.457  12.058 -0.7334  0.6027  1.2108
 4808TIP3   OH238618   1.812   2.484  12.509  0.0153 -0.3030 -0.0276
 4808TIP3    H138619   1.764   2.403  12.495 -0.7305 -0.2089  1.6741
 4808TIP3    H238620   1.886   2.479  12.449 -1.2032 -1.2136 -1.5451
 4809TIP3   OH238621   0.480   3.163  10.326 -0.2126  0.8507 -0.3246
 4809TIP3    H138622   0.512   3.153  10.237 -0.1992 -0.3709 -0.2062
 4809TIP3    H238623   0.386   3.182  10.316 -0.2111  0.7164 -0.5994
 4810TIP3   OH238624   5.217   7.396  12.136  0.2111 -0.1486  0.1034
 4810TIP3    H138625   5.266   7.315  12.149 -1.0671 -0.8424  0.7780
 4810TIP3    H238626   5.146   7.391  12.199 -2.4792 -0.5817 -2.7303
 4811TIP3   OH238627   1.516   6.160  10.616  0.1400 -0.1962  0.3407
 4811TIP3    H138628   1.423   6.145  10.632  0.1801 -1.7191 -0.6827
 4811TIP3    H238629   1.518   6.217  10.538  0.0207 -2.7596 -1.6675
 4812TIP3   OH238630   5.809   0.470  12.671  0.4782  0.0245  0.4142
 4812TIP3    H138631   5.800   0.375  12.676 -0.8851  0.0941 -0.3327
 4812TIP3    H238632   5.825   0.488  12.578 -2.2071  0.7035  0.0131
 4813TIP3   OH238633   6.057   3.882  11.537 -0.3821 -0.0188 -0.3238
 4813TIP3    H138634   6.081   3.851  11.450  0.3648 -1.0916  0.2379
 4813TIP3    H238635   5.967   3.913  11.528 -0.1760  0.2439 -1.5600
 4814TIP3   OH238636   6.775   6.504  10.605  0.0781  0.3295 -0.0883
 4814TIP3    H138637   6.814   6.533  10.523 -1.0469  2.9349  0.1914
 4814TIP3    H238638   6.845   6.516  10.670  0.9606 -1.7140 -0.6077
 4815TIP3   OH238639   7.045   2.165  12.283 -0.6814 -0.0059 -0.0096
 4815TIP3    H138640   6.995   2.083  12.281 -0.7615 -0.0409  1.6677
 4815TIP3    H238641   7.057   2.183  12.376  1.7217  0.4553 -0.3430
 4816TIP3   OH238642   1.730   2.763  12.205  0.2816  0.4236  0.2662
 4816TIP3    H138643   1.713   2.730  12.293  0.9576  1.3929  0.7788
 4816TIP3    H238644   1.728   2.859  12.214  1.7844  0.5567 -0.4654
 4817TIP3   OH238645   0.329   5.118  10.933 -0.3007 -0.2453  0.6213
 4817TIP3    H138646   0.411   5.076  10.960  0.0588  0.5700  0.8307
 4817TIP3    H238647   0.305   5.073  10.852 -0.6104 -1.7142  1.4934
 4818TIP3   OH238648   4.903   3.682  12.073  0.1723 -0.0178 -0.1763
 4818TIP3    H138649   4.932   3.619  12.007  0.5425 -1.8026  1.5705
 4818TIP3    H238650   4.983   3.704  12.121 -0.4961 -1.0158  1.4614
 4819TIP3   OH238651   4.382   6.434  12.260 -0.1885  0.7795  0.3738
 4819TIP3    H138652   4.408   6.525  12.269 -1.1488  0.9178  2.4878
 4819TIP3    H238653   4.358   6.407  12.349 -3.5987 -0.3798 -0.7236
 4820TIP3   OH238654   5.594   0.978   9.718  0.7304 -0.4648 -0.2844
 4820TIP3    H138655   5.555   0.904   9.673  0.6691 -0.2604 -0.5720
 4820TIP3    H238656   5.682   0.986   9.680  1.8446 -2.1494  1.7302
 4821TIP3   OH238657   0.189   6.545  11.645 -0.0592  0.2635 -0.1700
 4821TIP3    H138658   0.244   6.475  11.611  0.0644  1.0929 -1.8006
 4821TIP3    H238659   0.099   6.516  11.629 -0.0085  0.9405 -2.0307
 4822TIP3   OH238660   6.152   7.661  11.496 -0.2038  0.4966  0.8724
 4822TIP3    H138661   6.081   7.676  11.558  0.9626  2.2089  1.8969
 4822TIP3    H238662   6.125   7.708  11.417 -1.3150 -0.9932  0.3205
 4823TIP3   OH238663   0.431   5.716  11.718 -0.0265  0.0115 -0.8915
 4823TIP3    H138664   0.387   5.736  11.635  2.1887 -1.2178 -2.4672
 4823TIP3    H238665   0.513   5.766  11.714  0.5921 -0.9053  0.0619
 4824TIP3   OH238666   3.546   6.805  12.904 -0.2166 -0.3555 -0.0355
 4824TIP3    H138667   3.567   6.868  12.973 -1.3973 -0.2212  0.2190
 4824TIP3    H238668   3.620   6.810  12.844  0.9934 -0.7118  1.3738
 4825TIP3   OH238669   5.605   6.917  11.170  0.0589  0.4714 -0.1855
 4825TIP3    H138670   5.627   6.828  11.143 -0.1405 -0.6899  2.9924
 4825TIP3    H238671   5.528   6.940  11.118  0.1661 -1.1709 -1.1412
 4826TIP3   OH238672   0.009   5.148  11.481 -0.0672 -0.3570  0.8693
 4826TIP3    H138673   0.019   5.053  11.488  1.5169 -0.1862  1.2606
 4826TIP3    H238674  -0.059   5.169  11.545  0.4805 -1.0900  1.7238
 4827TIP3   OH238675   2.619   5.171  10.940  0.4929 -0.5598 -0.6222
 4827TIP3    H138676   2.598   5.098  10.999  2.1222  0.3038  1.1573
 4827TIP3    H238677   2.687   5.220  10.987  0.1702  1.5354 -2.2151
 4828TIP3   OH238678   4.984   0.868  11.632  0.3642 -0.0466  0.1166
 4828TIP3    H138679   5.076   0.882  11.612 -0.0275 -0.5688 -2.4069
 4828TIP3    H238680   4.938   0.937  11.584 -0.5335  1.3218  2.7566
 4829TIP3   OH238681   3.782   3.243  12.585 -0.1584 -0.0987 -0.3122
 4829TIP3    H138682   3.710   3.198  12.629  0.1908  0.1041  0.4727
 4829TIP3    H238683   3.784   3.330  12.625 -1.0921  0.7889 -2.0858
 4830TIP3   OH238684   6.279   4.782  10.002 -0.0379 -0.4955 -0.1489
 4830TIP3    H138685   6.280   4.733  10.084 -0.0871 -1.6180 -0.7989
 4830TIP3    H238686   6.360   4.757   9.958  0.7061  1.2279  0.1791
 4831TIP3   OH238687   3.274   2.557  11.778 -0.2594 -0.3768 -0.2479
 4831TIP3    H138688   3.235   2.645  11.784  0.4506 -0.0556 -0.1900
 4831TIP3    H238689   3.199   2.498  11.773 -0.7612  0.1857  0.3674
 4832TIP3   OH238690   0.413   6.430  11.206  0.4470 -0.5611  0.3044
 4832TIP3    H138691   0.376   6.435  11.294  1.7249 -1.2860  0.9121
 4832TIP3    H238692   0.507   6.439  11.219  0.6270 -0.3128 -1.0360
 4833TIP3   OH238693   6.569   1.742  11.895  0.1075  0.1972  0.4118
 4833TIP3    H138694   6.651   1.727  11.943  1.0618  0.2367 -1.1283
 4833TIP3    H238695   6.594   1.798  11.821 -1.3044  0.1685 -0.1276
 4834TIP3   OH238696   1.412   0.524  11.163 -0.3024 -0.1711  0.3774
 4834TIP3    H138697   1.418   0.561  11.076 -3.4787  0.7221  0.4106
 4834TIP3    H238698   1.470   0.577  11.217  2.1569 -1.1031 -1.1947
 4835TIP3   OH238699   0.997   0.814  10.572 -0.6849 -0.2234 -0.9351
 4835TIP3    H138700   1.027   0.861  10.650  0.2766 -0.0184 -1.4165
 4835TIP3    H238701   1.055   0.738  10.567  0.5847  0.7997 -2.5492
 4836TIP3   OH238702   0.928   3.487  12.066  0.2228  0.0149  0.1127
 4836TIP3    H138703   0.945   3.397  12.094  0.5687 -0.1020 -0.4599
 4836TIP3    H238704   0.884   3.478  11.982 -1.6282  0.3400  0.9887
 4837TIP3   OH238705   0.443   5.012  10.064 -0.4123 -0.6267  0.0364
 4837TIP3    H138706   0.431   5.078   9.996  1.7562 -0.3734 -0.1714
 4837TIP3    H238707   0.381   5.036  10.132 -1.8489 -0.2302 -1.3586
 4838TIP3   OH238708   1.144   6.402  10.340 -0.0767 -0.3438  0.0329
 4838TIP3    H138709   1.181   6.482  10.303 -1.8178  1.1201  1.2649
 4838TIP3    H238710   1.097   6.362  10.267  0.3780  0.0311 -0.4794
 4839TIP3   OH238711   1.581   3.862  11.394 -0.1206  0.4308  0.5818
 4839TIP3    H138712   1.582   3.931  11.460 -0.8257  1.4292 -0.4126
 4839TIP3    H238713   1.641   3.892  11.326 -0.8128  0.3197 -0.0928
 4840TIP3   OH238714   0.457   0.739  10.385 -0.1292 -0.6222 -0.0431
 4840TIP3    H138715   0.491   0.766  10.300  0.6288  0.1684  0.4902
 4840TIP3    H238716   0.505   0.659  10.406  2.2493  0.9835  1.1373
 4841TIP3   OH238717   3.539   7.054  11.297  0.2277 -0.5344  0.6658
 4841TIP3    H138718   3.486   6.994  11.350 -0.5892  0.1304  0.6116
 4841TIP3    H238719   3.629   7.030  11.317 -0.0404 -2.8883 -0.5743
 4842TIP3   OH238720   7.102   5.771  12.580  0.2778  0.0398  1.1428
 4842TIP3    H138721   7.080   5.822  12.503  0.6217 -1.4861 -0.0255
 4842TIP3    H238722   7.172   5.820  12.623  1.3815  0.0240 -0.5572
 4843TIP3   OH238723   0.655   6.591  12.239  0.0667 -0.1203  0.0658
 4843TIP3    H138724   0.663   6.686  12.247  1.7777 -0.2817  0.7968
 4843TIP3    H238725   0.676   6.573  12.148 -3.2296  0.3909 -0.9134
 4844TIP3   OH238726   5.605   0.440  10.563  0.7990 -0.0933  0.0093
 4844TIP3    H138727   5.649   0.520  10.593 -0.0098 -0.2004  1.5750
 4844TIP3    H238728   5.655   0.413  10.486  1.4812  1.5621 -0.1770
 4845TIP3   OH238729   2.092   6.311  12.471 -0.0891  0.2290 -0.0215
 4845TIP3    H138730   2.081   6.375  12.542 -1.9086 -1.1493  1.0242
 4845TIP3    H238731   2.101   6.227  12.516  1.0219 -0.4292 -1.4098
 4846TIP3   OH238732   6.300   0.107  12.243  0.3073  0.1827  0.3013
 4846TIP3    H138733   6.316   0.017  12.214 -0.7546 -0.6371  2.0789
 4846TIP3    H238734   6.212   0.126  12.211  0.3259  0.3887  0.3738
 4847TIP3   OH238735   2.185   5.823  12.481 -0.5118 -0.5514  0.0680
 4847TIP3    H138736   2.151   5.734  12.469 -0.1620 -0.5976 -0.6576
 4847TIP3    H238737   2.273   5.810  12.517 -1.0893 -0.4446  1.5505
 4848TIP3   OH238738   3.632   3.572  10.417  0.1523 -0.2177  0.1500
 4848TIP3    H138739   3.625   3.581  10.322  2.0981 -0.7837 -0.0856
 4848TIP3    H238740   3.655   3.660  10.447 -0.0545 -0.1299  0.0530
 4849TIP3   OH238741   5.224   6.861  12.153  0.3379 -0.3605 -0.2955
 4849TIP3    H138742   5.300   6.863  12.096  0.3804 -1.2146 -0.2754
 4849TIP3    H238743   5.151   6.839  12.096 -0.1944  2.0280 -0.6189
 4850TIP3   OH238744   3.085   0.023  12.576  0.2981  0.3248  0.1904
 4850TIP3    H138745   3.003  -0.025  12.589  0.3393 -0.1287 -1.0756
 4850TIP3    H238746   3.128   0.022  12.662  0.8184 -2.8714  0.0014
 4851TIP3   OH238747   1.822   4.175  10.942 -0.2891  0.3904  0.5255
 4851TIP3    H138748   1.780   4.185  11.027 -0.7571  0.9051  0.2449
 4851TIP3    H238749   1.916   4.182  10.960 -0.4260  1.5724  0.8684
 4852TIP3   OH238750   4.089   0.131  12.186 -0.4165 -0.0299  0.0713
 4852TIP3    H138751   4.166   0.113  12.133 -1.0383 -1.4051 -0.4271
 4852TIP3    H238752   4.039   0.196  12.135  1.1746  2.2199  1.2078
 4853TIP3   OH238753   4.554   1.672  12.203  0.1312 -0.3253  0.3840
 4853TIP3    H138754   4.472   1.679  12.154  0.8002 -2.0181 -1.0782
 4853TIP3    H238755   4.596   1.594  12.168  0.3473 -2.0962  4.1804
 4854TIP3   OH238756   0.752   2.882  10.307 -0.7116 -0.2252 -0.3338
 4854TIP3    H138757   0.771   2.935  10.384 -0.7677 -1.1214  0.3102
 4854TIP3    H238758   0.831   2.830  10.293 -0.0119  1.1588 -1.9525
 4855TIP3   OH238759   5.127   5.198  11.072  0.5967  0.3976  0.4106
 4855TIP3    H138760   5.201   5.146  11.103 -0.0464 -1.1867 -0.6367
 4855TIP3    H238761   5.075   5.215  11.151  1.0787 -0.1220  0.8413
 4856TIP3   OH238762   6.878   3.071  12.535  0.5797 -0.0809  0.0345
 4856TIP3    H138763   6.959   3.105  12.498  1.4756 -1.7970  0.3147
 4856TIP3    H238764   6.865   2.987  12.492 -1.3667  0.3740 -0.3753
 4857TIP3   OH238765   6.373   5.449  12.767 -0.4316  0.0599  0.3206
 4857TIP3    H138766   6.289   5.493  12.751 -0.4625  0.2256  0.9007
 4857TIP3    H238767   6.394   5.471  12.858  0.3916  0.2640  0.0877
 4858TIP3   OH238768   0.119   5.298  11.302  0.4101  0.2668 -0.1415
 4858TIP3    H138769   0.202   5.256  11.279  0.8532  0.4938  0.9845
 4858TIP3    H238770   0.079   5.239  11.366  0.6950  1.1710  0.8981
 4859TIP3   OH238771   7.174   7.562  11.137 -0.0596  0.7562  0.7118
 4859TIP3    H138772   7.201   7.636  11.083 -0.4990  0.1367 -0.3784
 4859TIP3    H238773   7.083   7.546  11.112  0.0359 -0.1647  0.9348
 4860TIP3   OH238774   2.909   2.571  10.148  0.0581  0.0894 -0.2045
 4860TIP3    H138775   2.992   2.580  10.194 -0.6978  1.6748  0.9503
 4860TIP3    H238776   2.909   2.643  10.085 -0.3705  0.0160 -0.2884
 4861TIP3   OH238777   2.852   6.795  12.786  0.8883 -0.3043 -0.2372
 4861TIP3    H138778   2.862   6.883  12.822  1.5430 -0.9868  1.3668
 4861TIP3    H238779   2.941   6.760  12.783  0.4781 -1.5045  0.7729
 4862TIP3   OH238780   1.463   2.566  11.240 -0.2502 -0.3562 -0.1196
 4862TIP3    H138781   1.549   2.524  11.246  0.3332  0.8097  0.0246
 4862TIP3    H238782   1.482   2.655  11.210 -1.4274 -0.1234 -0.2254
 4863TIP3   OH238783   0.332   0.020  11.990  0.0494 -0.7344 -0.5642
 4863TIP3    H138784   0.319  -0.045  11.921  1.1946  0.0749 -1.5957
 4863TIP3    H238785   0.402  -0.017  12.045 -0.0838 -0.8801 -0.4936
 4864TIP3   OH238786   4.647   2.714  11.174 -0.8753 -0.0128 -0.0283
 4864TIP3    H138787   4.742   2.701  11.166 -0.6307  0.9562  1.1892
 4864TIP3    H238788   4.619   2.647  11.236 -0.9966 -0.3114 -0.4028
 4865TIP3   OH238789   6.674   6.182  11.232 -0.2656 -0.1889  0.3731
 4865TIP3    H138790   6.652   6.242  11.304 -0.0484 -1.4453  1.5216
 4865TIP3    H238791   6.761   6.150  11.254 -0.0909 -0.4227 -0.5971
 4866TIP3   OH238792   4.147   6.539  11.219  0.0157 -0.7271 -0.0103
 4866TIP3    H138793   4.161   6.596  11.144  0.3163 -1.9102 -0.8971
 4866TIP3    H238794   4.122   6.597  11.290  0.3860  0.4961 -0.8530
 4867TIP3   OH238795   3.574   0.504  12.527 -0.1110  0.3679  0.1422
 4867TIP3    H138796   3.507   0.552  12.576 -0.5728  0.0176 -0.1360
 4867TIP3    H238797   3.579   0.419  12.571  0.8304  0.7137  0.7433
 4868TIP3   OH238798   1.380   5.632  11.403 -0.1935 -0.5911  0.3799
 4868TIP3    H138799   1.407   5.565  11.466 -0.5085 -1.1846 -0.1044
 4868TIP3    H238800   1.313   5.589  11.349  1.4132 -0.7334 -1.6029
 4869TIP3   OH238801   6.327   0.261  11.164 -0.0426  0.5007  0.2716
 4869TIP3    H138802   6.361   0.310  11.089 -1.6316  0.2040 -0.7035
 4869TIP3    H238803   6.404   0.226  11.207  0.9223  0.3891 -1.4433
 4870TIP3   OH238804   0.519   6.769  12.000  0.2343  0.3433 -0.6061
 4870TIP3    H138805   0.537   6.771  11.906  0.8015  0.6360 -0.5012
 4870TIP3    H238806   0.451   6.703  12.011  0.3323  0.1419 -1.1927
 4871TIP3   OH238807   3.400   5.700  11.977 -0.5552  0.1408  0.0105
 4871TIP3    H138808   3.398   5.697  12.073 -0.6194 -0.3513 -0.0066
 4871TIP3    H238809   3.370   5.614  11.949  2.7295 -1.0200 -0.3997
 4872TIP3   OH238810   0.297   4.121  10.426  0.0609 -0.7685 -0.1953
 4872TIP3    H138811   0.216   4.074  10.446 -1.2735  0.9251 -1.3128
 4872TIP3    H238812   0.269   4.210  10.403  2.3720  0.3009  0.7346
 4873TIP3   OH238813   6.510   1.038  10.915 -0.3222  0.4985  0.2303
 4873TIP3    H138814   6.425   1.021  10.876 -0.2313  1.4807 -0.4151
 4873TIP3    H238815   6.573   1.013  10.847 -0.1495  1.5375 -0.0083
 4874TIP3   OH238816   2.633   4.117  10.998 -0.1813  0.2232 -0.3159
 4874TIP3    H138817   2.684   4.130  10.917  1.3161 -2.7906  0.0299
 4874TIP3    H238818   2.680   4.168  11.064  1.5581 -1.2203 -0.3589
 4875TIP3   OH238819   3.793   5.879   9.989  1.0181  0.0842  0.0681
 4875TIP3    H138820   3.804   5.844   9.900  1.3796  0.2133  0.0610
 4875TIP3    H238821   3.820   5.808  10.046  3.6562  0.9516  0.0364
 4876TIP3   OH238822   7.136   6.066  10.782 -0.1539  0.2815  0.0001
 4876TIP3    H138823   7.173   6.129  10.844 -0.1643 -0.1725  0.4793
 4876TIP3    H238824   7.118   5.988  10.835 -1.8874  0.5059 -0.1895
 4877TIP3   OH238825   4.178   4.167  12.283  0.3447 -0.2801 -0.2159
 4877TIP3    H138826   4.155   4.144  12.373 -0.0254 -0.4251 -0.3443
 4877TIP3    H238827   4.183   4.263  12.282  0.7008 -0.2933  0.0396
 4878TIP3   OH238828   6.128   3.201  12.060 -0.5509  0.2685 -0.0432
 4878TIP3    H138829   6.129   3.195  12.156  1.6503 -0.5722 -0.0483
 4878TIP3    H238830   6.063   3.268  12.041 -1.0231  0.4867  2.0473
 4879TIP3   OH238831   0.855   7.361  10.178 -0.2768  0.0900  0.1248
 4879TIP3    H138832   0.828   7.331  10.265  0.2410 -1.7321 -0.3054
 4879TIP3    H238833   0.948   7.381  10.187  0.5884 -3.0275 -0.6322
 4880TIP3   OH238834   6.570   3.576  11.419 -0.5268 -0.0018 -0.4734
 4880TIP3    H138835   6.656   3.615  11.432 -0.5940  0.1547 -0.4961
 4880TIP3    H238836   6.561   3.567  11.324 -0.2815 -0.5940 -0.4424
 4881TIP3   OH238837   4.179   2.204  10.635  0.3075 -0.0928  0.0155
 4881TIP3    H138838   4.132   2.257  10.699  0.1925 -0.4803  0.2510
 4881TIP3    H238839   4.172   2.254  10.553 -1.1114 -0.4646 -0.1164
 4882TIP3   OH238840   6.029   0.654  11.343 -0.5693  0.1979  0.0006
 4882TIP3    H138841   6.007   0.746  11.328  0.8596  0.3371 -1.6224
 4882TIP3    H238842   5.992   0.608  11.267  0.9524 -0.1322 -0.5985
 4883TIP3   OH238843   6.874   2.549  11.642  0.0603 -0.2709  0.2778
 4883TIP3    H138844   6.903   2.629  11.687  0.4734  0.2813 -0.9257
 4883TIP3    H238845   6.951   2.522  11.591 -0.9296  0.1724 -1.5323
 4884TIP3   OH238846   1.368   4.999  11.816  0.5234  0.2346 -0.0011
 4884TIP3    H138847   1.418   5.016  11.736  0.8220 -0.3115  0.0656
 4884TIP3    H238848   1.308   4.928  11.793  0.7031 -0.0142  0.2972
 4885TIP3   OH238849   1.531   2.426  12.125  0.7784 -0.1009  0.5529
 4885TIP3    H138850   1.528   2.479  12.046 -3.4814  0.9917  1.1640
 4885TIP3    H238851   1.545   2.337  12.094 -0.0671  0.3884 -1.3761
 4886TIP3   OH238852   4.783   3.323  12.431 -0.0935 -1.0964 -0.0098
 4886TIP3    H138853   4.845   3.376  12.481  0.2268 -3.3220  2.1248
 4886TIP3    H238854   4.704   3.377  12.425  1.0162  0.5909 -0.1865
 4887TIP3   OH238855   0.794   3.317  11.719  0.8689  0.1339 -0.1205
 4887TIP3    H138856   0.772   3.317  11.813  0.0392 -1.2020 -0.2775
 4887TIP3    H238857   0.778   3.227  11.692 -1.0777  0.9602 -2.0285
 4888TIP3   OH238858   0.322   2.874  11.180 -0.2598 -0.4642  0.3931
 4888TIP3    H138859   0.322   2.806  11.113  2.4111 -2.5043  2.1976
 4888TIP3    H238860   0.362   2.950  11.138 -1.6336 -0.5549 -1.1661
 4889TIP3   OH238861   0.984   2.216  12.929  0.0106  0.4238 -0.2947
 4889TIP3    H138862   1.007   2.133  12.887 -0.1199  0.6044 -0.7232
 4889TIP3    H238863   0.958   2.273  12.857  2.4064  1.6324 -0.2944
 4890TIP3   OH238864   1.690   1.426  10.283 -0.3800 -0.8387  0.3620
 4890TIP3    H138865   1.754   1.392  10.220  0.1864 -0.4351  0.7096
 4890TIP3    H238866   1.674   1.352  10.342  0.1571 -0.7932  0.5738
 4891TIP3   OH238867   6.499   7.437  10.045 -0.3493  0.1855  0.6383
 4891TIP3    H138868   6.541   7.472   9.967  0.1477  1.8791  1.6178
 4891TIP3    H238869   6.539   7.351  10.058  0.2755  0.3073 -0.3926
 4892TIP3   OH238870   2.407   6.714  11.987  0.1641 -0.1967  0.3268
 4892TIP3    H138871   2.448   6.750  11.908  1.5164 -0.3374  0.9501
 4892TIP3    H238872   2.397   6.789  12.045 -1.4242  0.0290 -0.1946
 4893TIP3   OH238873   2.356   1.812  11.550 -0.2271 -0.3505 -0.3120
 4893TIP3    H138874   2.263   1.825  11.571 -0.0731  1.4539 -0.6466
 4893TIP3    H238875   2.377   1.728  11.591 -1.1880  0.6655  2.5128
 4894TIP3   OH238876   0.558   1.506  11.068 -0.4897 -0.0788 -0.3323
 4894TIP3    H138877   0.481   1.466  11.029  1.3408 -3.2736 -1.0324
 4894TIP3    H238878   0.546   1.493  11.162 -0.1370 -2.0933 -0.5202
 4895TIP3   OH238879   6.186   5.067  10.645  0.4796  0.3847 -0.0250
 4895TIP3    H138880   6.202   5.036  10.734 -1.4098  1.0893  0.6133
 4895TIP3    H238881   6.272   5.093  10.613  0.9939  1.7087  2.2237
 4896TIP3   OH238882   3.470   2.740  12.335 -0.6850  0.4135 -0.2788
 4896TIP3    H138883   3.510   2.728  12.249  2.5208 -1.8984  1.3308
 4896TIP3    H238884   3.422   2.659  12.351 -1.0246  0.7097  0.2457
 4897TIP3   OH238885   4.415   4.360  11.562 -0.0189  0.2778 -0.0447
 4897TIP3    H138886   4.407   4.402  11.476 -1.6106  0.2172  0.0450
 4897TIP3    H238887   4.480   4.291  11.548  1.9233  2.0551 -0.4424
 4898TIP3   OH238888   4.409   0.103  11.506  0.8449  0.0166  0.4946
 4898TIP3    H138889   4.380   0.133  11.420  0.8821  1.2077  0.8733
 4898TIP3    H238890   4.383   0.011  11.510  0.0094  0.2011 -0.4198
 4899TIP3   OH238891   2.811   0.623  10.856 -0.6762  0.7155  0.4371
 4899TIP3    H138892   2.819   0.717  10.841 -0.1443  0.2605 -2.7262
 4899TIP3    H238893   2.849   0.582  10.778 -2.2873 -2.1015  0.9762
 4900TIP3   OH238894   6.215   4.264  12.406  0.0336  0.4920  1.2187
 4900TIP3    H138895   6.219   4.224  12.493  2.6392 -0.1066  0.8971
 4900TIP3    H238896   6.270   4.342  12.412 -0.2738  0.8033  0.2632
 4901TIP3   OH238897   4.546   6.252  12.637  0.2883 -0.3800  0.1443
 4901TIP3    H138898   4.549   6.156  12.636  0.6991 -0.3665 -0.4444
 4901TIP3    H238899   4.626   6.279  12.592 -0.2269  0.2348 -0.4221
 4902TIP3   OH238900   3.182   7.598  12.836 -0.2363  0.5343  0.1110
 4902TIP3    H138901   3.235   7.532  12.791 -0.5086 -0.0871  0.6901
 4902TIP3    H238902   3.237   7.626  12.909 -0.6275  0.0368  0.5947
 4903TIP3   OH238903   1.379   3.282  11.675  0.0688  0.3633 -0.6631
 4903TIP3    H138904   1.352   3.276  11.584 -0.0734  1.8950 -0.7407
 4903TIP3    H238905   1.450   3.346  11.675  0.9797 -0.5944  0.1305
 4904TIP3   OH238906   5.468   5.469  12.811 -0.5397 -0.0948 -0.0510
 4904TIP3    H138907   5.434   5.558  12.802 -0.4291  0.2590  2.3706
 4904TIP3    H238908   5.552   5.480  12.857 -0.7536 -1.4584  0.7276
 4905TIP3   OH238909   1.982   1.247  10.931 -0.0863 -0.1213  0.7237
 4905TIP3    H138910   1.996   1.236  10.837  0.0907 -2.0699  0.9265
 4905TIP3    H238911   2.070   1.261  10.967 -0.0296 -0.3462  0.6803
 4906TIP3   OH238912   6.192   5.629  10.843  0.0720 -0.3782 -0.4025
 4906TIP3    H138913   6.186   5.688  10.918 -2.4047  1.5452 -1.9496
 4906TIP3    H238914   6.240   5.553  10.876 -1.6278 -0.0284  3.3691
 4907TIP3   OH238915   1.776   1.293  11.649 -0.5085  0.4010 -0.4157
 4907TIP3    H138916   1.685   1.323  11.649  0.2139  2.7813 -1.0376
 4907TIP3    H238917   1.800   1.291  11.742 -1.4931 -1.4602 -0.1407
 4908TIP3   OH238918   6.940   4.929  11.041  0.0653 -0.4147  0.0187
 4908TIP3    H138919   6.956   4.918  10.947  1.0407 -1.8023  0.3189
 4908TIP3    H238920   6.871   4.866  11.062 -1.0448  0.7570  0.0343
 4909TIP3   OH238921   2.472   2.023  10.793 -0.6454  1.0267 -0.6450
 4909TIP3    H138922   2.433   2.109  10.783  0.7355  1.9248  1.1749
 4909TIP3    H238923   2.438   1.991  10.877 -1.3787 -0.3722 -1.4305
 4910TIP3   OH238924   0.142   1.896  11.756  0.1887  0.1736  0.0417
 4910TIP3    H138925   0.063   1.950  11.768  0.0662  0.0455 -0.1800
 4910TIP3    H238926   0.138   1.833  11.827  0.4142  0.5540  0.3966
 4911TIP3   OH238927   2.321   2.955  12.472 -0.1901  0.4574  0.6728
 4911TIP3    H138928   2.355   3.008  12.399  1.1886  0.8513  1.5676
 4911TIP3    H238929   2.256   2.898  12.431  1.2746 -0.0665 -1.1000
 4912TIP3   OH238930   6.932   4.498  11.595  0.5216 -0.0156 -0.3170
 4912TIP3    H138931   6.860   4.436  11.602 -0.2000  0.9349  1.2551
 4912TIP3    H238932   6.952   4.522  11.686  1.5273  1.2039 -0.8307
 4913TIP3   OH238933   1.310   4.641  11.917 -0.0582  0.2670  0.5465
 4913TIP3    H138934   1.256   4.569  11.950 -1.0646  0.2533 -1.0445
 4913TIP3    H238935   1.250   4.696  11.868  0.8231  1.8936  1.2200
 4914TIP3   OH238936   7.404   1.910  10.577 -0.1526 -0.4178  0.5911
 4914TIP3    H138937   7.340   1.972  10.612 -0.2962 -0.9071  1.2241
 4914TIP3    H238938   7.413   1.844  10.646  0.0741 -1.0466 -0.0291
 4915TIP3   OH238939   1.234   2.944  12.704  0.1751 -0.2359 -0.6463
 4915TIP3    H138940   1.194   3.020  12.748 -0.0121 -0.2610 -0.7759
 4915TIP3    H238941   1.191   2.940  12.619 -0.0850 -0.7185 -0.4925
 4916TIP3   OH238942   7.520   6.743  12.285 -0.1405  0.9872  0.7611
 4916TIP3    H138943   7.592   6.775  12.230  0.1383  0.3544  0.7405
 4916TIP3    H238944   7.448   6.804  12.269 -0.9937 -0.5771 -2.4123
 4917TIP3   OH238945   1.270   1.688  11.948  0.3480  0.7336  0.4973
 4917TIP3    H138946   1.246   1.781  11.952 -0.5434  0.5244  0.2237
 4917TIP3    H238947   1.359   1.688  11.912 -0.0428  1.4309 -0.5172
 4918TIP3   OH238948   4.940   7.092  11.355  0.3863  0.3773  0.2043
 4918TIP3    H138949   4.951   7.031  11.282  0.4033  0.6412 -0.0143
 4918TIP3    H238950   4.956   7.178  11.317  1.0981  0.4600  0.6764
 4919TIP3   OH238951   6.186   3.183  12.325 -0.3597  0.2280 -0.0672
 4919TIP3    H138952   6.135   3.215  12.400  0.2580  2.2264 -0.4473
 4919TIP3    H238953   6.249   3.122  12.363 -0.4347  0.7735  0.9752
 4920TIP3   OH238954   4.576   3.796  11.282  0.0737  0.0375 -0.1688
 4920TIP3    H138955   4.646   3.761  11.337  0.9267 -0.9413 -1.7787
 4920TIP3    H238956   4.510   3.828  11.343  1.1869 -0.5405  1.3938
 4921TIP3   OH238957   6.870   2.270  12.728  0.3114 -0.4404  0.2669
 4921TIP3    H138958   6.845   2.177  12.725  0.2534 -0.4108 -0.6017
 4921TIP3    H238959   6.805   2.310  12.786 -0.1692 -0.8065 -0.0053
 4922TIP3   OH238960   3.416   2.460  12.422  0.4899  0.3350  0.0395
 4922TIP3    H138961   3.389   2.404  12.349 -0.2315 -0.3535  0.8246
 4922TIP3    H238962   3.368   2.427  12.497  1.9900  0.3836  1.0646
 4923TIP3   OH238963   3.022   7.653  11.311 -0.6745  0.6035  0.6611
 4923TIP3    H138964   2.961   7.581  11.326  0.2214 -0.4436 -0.5947
 4923TIP3    H238965   3.108   7.617  11.333 -0.1101  0.9949 -0.8088
 4924TIP3   OH238966   6.006   6.613  11.703  0.2435 -0.6276  0.0609
 4924TIP3    H138967   5.991   6.637  11.612 -0.4622 -0.5632  0.1801
 4924TIP3    H238968   6.088   6.565  11.703  1.5121  1.4332 -0.2640
 4925TIP3   OH238969   2.576   1.152  12.000 -0.3365 -0.0377 -0.5154
 4925TIP3    H138970   2.565   1.234  12.048  0.6797 -0.6568  0.8356
 4925TIP3    H238971   2.643   1.104  12.049 -1.3071 -1.9262 -0.9166
 4926TIP3   OH238972   6.871   7.079  12.372 -0.2867 -0.4435 -0.1550
 4926TIP3    H138973   6.804   7.031  12.419  0.2438 -1.4215 -0.3622
 4926TIP3    H238974   6.907   7.141  12.436 -1.5097  0.2449 -0.1066
 4927TIP3   OH238975   1.869   4.725  12.196  0.5804 -0.3543 -0.6600
 4927TIP3    H138976   1.783   4.709  12.158  0.2210 -0.1549  0.0643
 4927TIP3    H238977   1.919   4.645  12.176 -0.4796 -1.4600  0.8890
 4928TIP3   OH238978   1.256   5.540  12.008 -0.0900 -0.2105  0.3134
 4928TIP3    H138979   1.161   5.540  12.023 -0.0274 -1.1055  0.7618
 4928TIP3    H238980   1.287   5.615  12.060 -0.6368  0.6339 -0.5346
 4929TIP3   OH238981   7.588   3.544  12.124  0.5667 -0.3849 -0.6282
 4929TIP3    H138982   7.579   3.450  12.141 -1.1410 -0.3384 -1.1486
 4929TIP3    H238983   7.506   3.582  12.154  0.9512  0.8448 -1.0849
 4930TIP3   OH238984   4.423   7.364  11.823 -0.0286  0.2782 -0.0838
 4930TIP3    H138985   4.346   7.405  11.863 -0.2165  0.5789 -0.7534
 4930TIP3    H238986   4.395   7.342  11.734  0.9569  1.2552 -0.6537
 4931TIP3   OH238987   7.093   5.912  12.095 -0.0603  0.1857 -0.2794
 4931TIP3    H138988   7.001   5.926  12.075 -1.0569 -1.9704  2.2126
 4931TIP3    H238989   7.130   6.000  12.101 -1.6535  1.0684 -2.3631
 4932TIP3   OH238990   7.460   6.622  11.604  1.0096 -0.2605  0.0466
 4932TIP3    H138991   7.385   6.633  11.545  0.7856 -1.0438  0.1875
 4932TIP3    H238992   7.492   6.712  11.618  1.1777 -0.0604 -1.4072
 4933TIP3   OH238993   6.350   5.235  12.292  0.2541 -0.1491 -0.0537
 4933TIP3    H138994   6.328   5.230  12.385 -1.0340  0.8070 -0.2771
 4933TIP3    H238995   6.377   5.325  12.278 -1.6989  0.3371 -1.0076
 4934TIP3   OH238996   7.304   0.576  10.252  0.6208  0.2537  0.0227
 4934TIP3    H138997   7.319   0.523  10.173  1.8017 -2.4028  1.8726
 4934TIP3    H238998   7.266   0.514  10.315  1.1705  1.8648  2.0291
 4935TIP3   OH238999   3.024   3.582  12.115  0.5384  0.1811 -0.1904
 4935TIP3    H139000   3.109   3.545  12.090  0.4201 -0.0756 -0.2121
 4935TIP3    H239001   3.019   3.569  12.209  1.0537  1.2906  0.0037
 4936TIP3   OH239002   1.170   3.581  11.054 -0.0405  0.4781  0.8644
 4936TIP3    H139003   1.194   3.488  11.056  0.9734  0.7324  1.1360
 4936TIP3    H239004   1.136   3.595  10.966  0.0873 -0.0865  0.7185
 4937TIP3   OH239005   7.445   6.258  10.663  0.1557 -0.4074  0.0592
 4937TIP3    H139006   7.445   6.327  10.730 -1.3005  0.6988 -1.0128
 4937TIP3    H239007   7.538   6.234  10.654  0.5376  0.3783  1.4629
 4938TIP3   OH239008   0.037   5.539  10.741  0.1913  0.2364  0.4397
 4938TIP3    H139009  -0.057   5.547  10.756 -0.3380 -2.5940 -0.8367
 4938TIP3    H239010   0.068   5.483  10.813  0.9390  1.0734  0.8023
 4939TIP3   OH239011   0.737   0.227  11.011  0.6157  0.0320 -1.0656
 4939TIP3    H139012   0.684   0.257  11.085  1.7903  0.2790 -0.3064
 4939TIP3    H239013   0.761   0.307  10.965  2.5585  0.2076  0.1478
 4940TIP3   OH239014   4.767   3.093  12.609  0.3436 -0.3771  0.2441
 4940TIP3    H139015   4.685   3.048  12.586 -0.2698  0.8312  0.0113
 4940TIP3    H239016   4.757   3.181  12.573  2.7820 -0.9032 -1.9648
 4941TIP3   OH239017   6.457   4.165  11.718  0.2707 -0.8601  0.0408
 4941TIP3    H139018   6.396   4.226  11.760 -0.9441 -2.1956  0.3233
 4941TIP3    H239019   6.415   4.143  11.635  1.3192 -0.3457 -0.6364
 4942TIP3   OH239020   1.403   2.750  12.585 -0.1515 -0.1923 -0.6948
 4942TIP3    H139021   1.343   2.812  12.626 -0.0162 -0.6496  0.2257
 4942TIP3    H239022   1.369   2.738  12.497 -0.5751  0.6581 -0.6553
 4943TIP3   OH239023   5.678   5.487  12.970  0.0495  0.1019  0.1460
 4943TIP3    H139024   5.695   5.571  13.013 -0.4162  0.3604 -0.1633
 4943TIP3    H239025   5.752   5.431  12.996 -0.5400  0.0448  1.7842
 4944TIP3   OH239026   6.573   1.457  11.099  0.4167 -0.0949  0.1225
 4944TIP3    H139027   6.616   1.397  11.159  1.0637  0.1707 -0.0716
 4944TIP3    H239028   6.500   1.406  11.063  0.1838 -0.3414  0.9224
 4945TIP3   OH239029   6.333   3.843  10.790 -0.3747 -0.2684 -0.3348
 4945TIP3    H139030   6.311   3.881  10.705  0.0740  0.1675 -0.2558
 4945TIP3    H239031   6.415   3.885  10.815 -0.9196  0.2268  0.6978
 4946TIP3   OH239032   1.005   6.649  11.848  0.3693 -0.0595  0.1652
 4946TIP3    H139033   0.933   6.601  11.890  1.0264  0.1176  1.5504
 4946TIP3    H239034   1.084   6.610  11.884  0.9619  0.3555 -0.6548
 4947TIP3   OH239035   1.837   4.168  10.193  0.1503  0.2685 -0.1798
 4947TIP3    H139036   1.896   4.218  10.249 -0.6020  1.7423 -0.6548
 4947TIP3    H239037   1.884   4.156  10.111 -0.0399  1.0882 -0.4153
 4948TIP3   OH239038   7.153   0.154  11.013 -0.0179 -0.7580 -0.4799
 4948TIP3    H139039   7.126   0.185  10.927 -0.2528 -1.7461 -0.7768
 4948TIP3    H239040   7.248   0.143  11.007  0.1234  0.2765 -0.2414
 4949TIP3   OH239041   1.845   5.391  11.776 -0.0712  0.2347 -0.0817
 4949TIP3    H139042   1.808   5.348  11.699 -0.5613 -0.0325  0.2963
 4949TIP3    H239043   1.769   5.411  11.831  0.3975 -1.1425  1.1377
 4950TIP3   OH239044   4.782   1.369  12.114 -0.4305  0.2537  0.1010
 4950TIP3    H139045   4.847   1.354  12.183 -1.0844  0.6352  0.8174
 4950TIP3    H239046   4.822   1.334  12.035  0.7220  0.6324  0.4941
 4951TIP3   OH239047   0.876   6.068  12.362 -0.0530 -0.2718 -0.2675
 4951TIP3    H139048   0.870   6.010  12.286 -1.0202  0.4763 -0.7912
 4951TIP3    H239049   0.812   6.033  12.424 -1.0126  0.4772 -0.7886
 4952TIP3   OH239050   0.309   1.998  10.703 -0.5972 -0.5855 -0.5821
 4952TIP3    H139051   0.305   2.092  10.689 -0.2115 -0.4604  0.1182
 4952TIP3    H239052   0.290   1.986  10.796  1.0941 -1.0463 -0.2550
 4953TIP3   OH239053   0.817   2.645  12.624 -0.1509  0.1288  0.3549
 4953TIP3    H139054   0.766   2.723  12.601  0.4243  0.5284  0.4281
 4953TIP3    H239055   0.895   2.678  12.668  1.1516 -0.3556 -1.4997
 4954TIP3   OH239056   5.505   4.012  10.800 -0.0075  0.0971 -0.2002
 4954TIP3    H139057   5.516   3.929  10.753 -0.2383 -0.6246  0.9736
 4954TIP3    H239058   5.581   4.017  10.858 -0.5058  0.2054  0.4562
 4955TIP3   OH239059   4.362   4.258  10.712 -0.5437  0.4620  0.3969
 4955TIP3    H139060   4.414   4.338  10.709 -0.5046  0.4308  0.2564
 4955TIP3    H239061   4.393   4.206  10.638 -0.8415  0.4866  0.2533
 4956TIP3   OH239062   4.041   7.474  11.641  0.0400  0.8461  0.2367
 4956TIP3    H139063   4.111   7.539  11.653 -0.7631  1.8054 -0.1151
 4956TIP3    H239064   3.976   7.497  11.706 -1.0713  1.5465 -1.0798
 4957TIP3   OH239065   4.752   2.751  12.674 -0.0580 -0.7729  0.0673
 4957TIP3    H139066   4.836   2.771  12.716  0.1299  1.4899 -1.2627
 4957TIP3    H239067   4.701   2.832  12.682 -1.9722 -1.9319  0.3955
 4958TIP3   OH239068   4.000   3.893  10.856 -0.4789  0.3639 -0.6299
 4958TIP3    H139069   4.059   3.968  10.862 -1.3088  1.0024 -0.0470
 4958TIP3    H239070   3.992   3.875  10.762  0.5417  0.3261 -0.7195
 4959TIP3   OH239071   4.834   3.071  11.514 -0.2579 -0.1981  0.0950
 4959TIP3    H139072   4.782   3.046  11.591  1.7836 -2.1379  0.9333
 4959TIP3    H239073   4.808   3.008  11.447 -0.9168  0.5420 -0.3661
 4960TIP3   OH239074   5.211   1.795  11.147  0.2730 -0.6166 -0.4198
 4960TIP3    H139075   5.125   1.836  11.154  1.1422  1.2177  0.0780
 4960TIP3    H239076   5.221   1.748  11.230  1.1382  2.1236  1.1592
 4961TIP3   OH239077   2.352   1.164  12.328 -0.1602 -0.5500 -0.4565
 4961TIP3    H139078   2.330   1.143  12.419 -0.3392  1.5761  0.0495
 4961TIP3    H239079   2.278   1.129  12.277 -1.0770  0.0153  0.4436
 4962TIP3   OH239080   4.575   1.545  10.811  0.2191  0.0776  0.1200
 4962TIP3    H139081   4.613   1.548  10.899 -1.2210 -1.8556  0.8824
 4962TIP3    H239082   4.559   1.636  10.789 -0.1678  0.5893  2.2543
 4963TIP3   OH239083   4.788   1.675  10.553  0.4973  0.0490 -0.4690
 4963TIP3    H139084   4.756   1.596  10.508  1.5391 -1.4797  1.3056
 4963TIP3    H239085   4.717   1.699  10.612  0.2449  0.3568 -0.8915
 4964TIP3   OH239086   1.583   1.604  12.332  0.1065  0.0402  0.1257
 4964TIP3    H139087   1.552   1.695  12.328  0.5755  0.1578 -1.3435
 4964TIP3    H239088   1.507   1.552  12.306  0.2797  0.1320 -0.5887
 4965TIP3   OH239089   2.149   3.957  12.017  0.2122 -0.3768  0.3285
 4965TIP3    H139090   2.058   3.945  12.044  0.1477 -1.0650 -0.1621
 4965TIP3    H239091   2.163   3.889  11.952  1.3551 -0.8633  1.0620
 4966TIP3   OH239092   5.792   1.323  12.043  0.5573 -0.1764  0.1026
 4966TIP3    H139093   5.696   1.322  12.048  0.5110  0.4042 -0.4791
 4966TIP3    H239094   5.819   1.382  12.113  0.5608 -1.2706  1.0400
 4967TIP3   OH239095   2.541   2.494  11.022  0.5771  0.3115 -0.4221
 4967TIP3    H139096   2.448   2.515  11.028 -0.0276 -2.3194  1.1401
 4967TIP3    H239097   2.565   2.514  10.931 -2.2885 -1.6989 -1.7491
 4968TIP3   OH239098   4.474   0.787  11.167  0.1417  0.2680  0.1075
 4968TIP3    H139099   4.516   0.861  11.124  0.6338 -1.0070 -1.7445
 4968TIP3    H239100   4.381   0.798  11.150  0.3666 -0.4678 -1.7982
 4969TIP3   OH239101   5.846   7.580  10.293 -0.0155  0.1388  0.0957
 4969TIP3    H139102   5.811   7.516  10.231 -1.7637 -0.4468  1.5983
 4969TIP3    H239103   5.917   7.624  10.245 -0.5734 -1.0237 -1.9041
 4970TIP3   OH239104   3.273   0.214  11.091 -0.2399  0.1164  0.1907
 4970TIP3    H139105   3.214   0.265  11.148 -0.2715 -0.1024  0.3564
 4970TIP3    H239106   3.313   0.151  11.150  3.5105  2.9491  1.0753
 4971TIP3   OH239107   2.995   0.224  10.853  0.7428 -0.1514 -0.4813
 4971TIP3    H139108   2.903   0.244  10.835 -0.3449 -0.0509  4.0052
 4971TIP3    H239109   2.994   0.135  10.886  2.2533 -0.0848 -0.1902
 4972TIP3   OH239110   0.947   5.146  10.483 -0.3767 -0.0560 -0.8279
 4972TIP3    H139111   0.874   5.099  10.524 -0.8029  1.4411  0.2200
 4972TIP3    H239112   0.985   5.082  10.423 -0.3823 -2.0277  1.1005
 4973TIP3   OH239113   0.909   5.979  12.087 -0.3013 -0.0402  0.0489
 4973TIP3    H139114   0.895   6.023  12.003  0.7135 -2.2473 -1.3609
 4973TIP3    H239115   1.000   5.951  12.084 -0.4476 -0.7754  1.6078
 4974TIP3   OH239116   2.627   4.858  10.511  0.4885  0.2490 -0.1377
 4974TIP3    H139117   2.546   4.841  10.464  1.0871 -0.5499 -0.9002
 4974TIP3    H239118   2.605   4.843  10.603  0.2431 -1.9329 -0.5025
 4975TIP3   OH239119   3.914   6.414  12.101  0.3746 -0.0731 -0.5082
 4975TIP3    H139120   3.859   6.338  12.080  0.2776 -0.4247  0.8685
 4975TIP3    H239121   3.979   6.379  12.162 -0.0675  1.0589  0.6620
 4976TIP3   OH239122   3.752   7.437  11.518  0.0346 -0.1682  0.4096
 4976TIP3    H139123   3.823   7.458  11.457  1.2622  0.1265  1.8985
 4976TIP3    H239124   3.784   7.362  11.567 -0.5408  0.1590  1.3105
 4977TIP3   OH239125   7.247   4.287  11.291  0.1479  0.4539  0.1637
 4977TIP3    H139126   7.220   4.205  11.249 -1.6491  1.4179 -0.6740
 4977TIP3    H239127   7.204   4.285  11.376 -2.0219  1.5601 -0.8072
 4978TIP3   OH239128   6.588   7.182  10.058 -0.2753 -0.4973 -0.0763
 4978TIP3    H139129   6.503   7.138  10.057  0.9484 -3.0713 -0.4693
 4978TIP3    H239130   6.651   7.110  10.052  1.9046  1.4106 -1.2451
 4979TIP3   OH239131   6.994   6.659  11.507 -0.1172 -0.5970 -0.1171
 4979TIP3    H139132   6.898   6.656  11.510 -0.1049 -0.5334  0.7024
 4979TIP3    H239133   7.018   6.588  11.448 -0.7159  0.4063 -1.6347
 4980TIP3   OH239134   3.393   7.271  12.069 -0.4099  0.1541 -0.0025
 4980TIP3    H139135   3.298   7.265  12.063 -0.3077  0.1138 -3.4729
 4980TIP3    H239136   3.418   7.204  12.134 -2.6346 -0.8607 -0.1167
 4981TIP3   OH239137   7.220   4.086  12.225  0.0534  0.4182  0.0114
 4981TIP3    H139138   7.280   4.030  12.176  1.5264  1.6906  0.2909
 4981TIP3    H239139   7.162   4.024  12.271  0.9394 -0.8376 -0.4920
 4982TIP3   OH239140   1.749   0.736  11.072  0.1605 -0.0789  0.6479
 4982TIP3    H139141   1.692   0.756  10.997  0.2643 -2.8216 -0.2855
 4982TIP3    H239142   1.697   0.757  11.149 -1.7224 -1.3543 -0.2030
 4983TIP3   OH239143   6.104   0.971  10.556 -0.5226 -0.3646  0.2857
 4983TIP3    H139144   6.154   0.937  10.482  0.8827  2.0643  0.0263
 4983TIP3    H239145   6.169   1.016  10.611 -2.0267  0.6700  1.3070
 4984TIP3   OH239146   0.319   5.246  12.986 -0.2450 -0.2182 -0.7357
 4984TIP3    H139147   0.410   5.270  13.006 -0.0224  1.0574 -2.9453
 4984TIP3    H239148   0.269   5.325  13.009 -0.9211 -1.0947  0.9647
 4985TIP3   OH239149   6.567   5.710  11.403  0.0179  0.1775  0.2748
 4985TIP3    H139150   6.508   5.678  11.335  0.0956 -1.3315  0.8857
 4985TIP3    H239151   6.640   5.750  11.355  0.2542 -1.1859 -0.5460
 4986TIP3   OH239152   2.444   3.159  11.260 -1.3143 -0.5252 -0.7213
 4986TIP3    H139153   2.467   3.092  11.325  0.2025  2.1725  1.7832
 4986TIP3    H239154   2.514   3.154  11.195 -1.9934 -2.2223 -1.3922
 4987TIP3   OH239155   7.563   0.772   9.565  0.4736  0.2473 -0.3746
 4987TIP3    H139156   7.530   0.685   9.587  0.2564  0.5389  0.4990
 4987TIP3    H239157   7.486   0.820   9.533  0.7357 -0.0917 -1.5679
 4988TIP3   OH239158   2.264   1.740  11.174  0.5912  0.2297  0.5360
 4988TIP3    H139159   2.312   1.699  11.245  1.0577 -0.2393 -0.0391
 4988TIP3    H239160   2.215   1.668  11.133 -0.9093  0.7535  1.3300
 4989TIP3   OH239161   3.106   4.863  10.208  0.9394 -0.1788 -0.0664
 4989TIP3    H139162   3.106   4.904  10.122 -0.9412  0.6656  0.2968
 4989TIP3    H239163   3.082   4.771  10.190 -0.0975  0.1432 -0.4036
 4990TIP3   OH239164   1.421   3.641  12.056 -0.4446 -0.4162  0.2285
 4990TIP3    H139165   1.418   3.718  12.113  4.0305  1.6887 -1.8861
 4990TIP3    H239166   1.469   3.576  12.106 -0.4401 -0.2359  0.4612
 4991TIP3   OH239167   5.660   7.447  12.396  0.5936  0.0849 -0.4213
 4991TIP3    H139168   5.575   7.403  12.389 -0.0908  1.0059  1.3947
 4991TIP3    H239169   5.714   7.406  12.328 -0.6852 -1.9144 -0.3232
 4992TIP3   OH239170   3.518   7.275  11.068  0.6374  0.1408  0.1178
 4992TIP3    H139171   3.481   7.228  10.993  0.4141 -0.3777  0.5443
 4992TIP3    H239172   3.538   7.363  11.034  2.3845 -0.6494 -1.0865
 4993TIP3   OH239173   6.068   4.640  10.661 -0.1659  0.2747 -0.1236
 4993TIP3    H139174   6.044   4.561  10.612 -1.0004  0.2935  0.2458
 4993TIP3    H239175   6.163   4.648  10.649 -0.2809  0.0003 -1.3187
 4994TIP3   OH239176   6.118   2.634  12.865 -0.1023 -0.5745 -0.4533
 4994TIP3    H139177   6.157   2.673  12.787  0.3784 -1.3539 -0.6208
 4994TIP3    H239178   6.032   2.675  12.873 -1.0357 -1.9671 -2.5990
 4995TIP3   OH239179   4.257   6.770  10.397  0.0741  0.1026 -0.6161
 4995TIP3    H139180   4.242   6.743  10.488 -0.5199 -0.5236 -0.8891
 4995TIP3    H239181   4.344   6.809  10.398  0.5977 -1.0127  0.0002
 4996TIP3   OH239182   6.179   6.407  11.765 -0.2039 -0.5824 -0.0443
 4996TIP3    H139183   6.109   6.345  11.746 -1.3074  0.7942 -0.6886
 4996TIP3    H239184   6.227   6.415  11.682  0.5706 -1.3114  0.3190
 4997TIP3   OH239185   5.638   0.082  10.262  0.2388 -0.1618  0.0818
 4997TIP3    H139186   5.654   0.169  10.298  0.5356 -0.4119  0.5672
 4997TIP3    H239187   5.715   0.031  10.286 -0.8951 -1.1923  1.8694
 4998TIP3   OH239188   0.112   7.422  11.578 -0.1811 -0.0052  0.2937
 4998TIP3    H139189   0.084   7.505  11.540 -1.6126  1.9734  4.9738
 4998TIP3    H239190   0.207   7.420  11.565 -0.2184  1.9870 -0.6233
 4999TIP3   OH239191   6.179   5.949  12.554  0.2168 -0.0938  0.3346
 4999TIP3    H139192   6.266   5.916  12.530 -0.2939 -0.6098 -0.8855
 4999TIP3    H239193   6.124   5.871  12.556  0.1849 -0.1203  3.3217
 5000TIP3   OH239194   0.697   7.016  12.243 -0.3683  0.2890  0.3061
 5000TIP3    H139195   0.734   6.937  12.204 -0.7583  0.0296  0.4578
 5000TIP3    H239196   0.743   7.026  12.327  1.0891  1.3249 -0.5681
 5001TIP3   OH239197   1.383   2.708  11.532  0.2302 -0.0853 -0.2575
 5001TIP3    H139198   1.475   2.733  11.543  0.1386 -0.2539  0.9991
 5001TIP3    H239199   1.377   2.621  11.570  0.4195 -1.9656 -4.0753
 5002TIP3   OH239200   1.010   1.714  11.651  0.2606  0.4912  0.1037
 5002TIP3    H139201   1.006   1.792  11.706 -0.5448  0.4114  0.1798
 5002TIP3    H239202   1.047   1.646  11.708 -1.1176  0.2531  0.7722
 5003TIP3   OH239203   7.290   2.842  12.812  0.4839 -0.5883 -0.2263
 5003TIP3    H139204   7.216   2.838  12.873 -1.4143 -0.6886 -2.3623
 5003TIP3    H239205   7.263   2.787  12.739  2.4543 -0.1585 -1.3478
 5004TIP3   OH239206   4.183   5.730  10.807  0.3866 -0.2593  0.1293
 5004TIP3    H139207   4.222   5.730  10.719 -0.7267  2.3981 -0.4714
 5004TIP3    H239208   4.114   5.796  10.802  0.6009  0.3390  3.1569
 5005TIP3   OH239209   7.112   5.452  10.598 -0.2075 -0.7321 -0.3249
 5005TIP3    H139210   7.058   5.517  10.643  0.3006 -0.7805  0.3585
 5005TIP3    H239211   7.048   5.394  10.557 -0.6963  0.8727 -1.9932
 5006TIP3   OH239212   0.168   4.381  10.455 -0.1179  0.0377 -0.2812
 5006TIP3    H139213   0.173   4.387  10.550 -1.6358 -0.0249 -0.1756
 5006TIP3    H239214   0.144   4.469  10.427  1.0461  0.2433 -0.6863
 5007TIP3   OH239215   7.046   6.273  10.260 -0.2812 -0.1752 -0.9025
 5007TIP3    H139216   7.028   6.288  10.353  1.0720 -0.9136 -0.4995
 5007TIP3    H239217   6.960   6.270  10.219 -0.8603  2.0423 -0.0007
 5008TIP3   OH239218   0.547   3.100  12.339  0.4999  0.0366 -0.3609
 5008TIP3    H139219   0.609   3.173  12.337  0.5138  0.0657 -3.4491
 5008TIP3    H239220   0.598   3.024  12.309  0.4725 -1.3595  2.7233
 5009TIP3   OH239221   0.927   7.465  11.173 -0.6638 -0.6214  0.3930
 5009TIP3    H139222   0.868   7.510  11.233  0.7772 -0.2450  1.6011
 5009TIP3    H239223   1.011   7.463  11.219  0.3670 -0.8193 -1.3915
 5010TIP3   OH239224   0.439   5.015  10.477  0.1319  0.3623  0.0700
 5010TIP3    H139225   0.522   5.057  10.456 -0.1217  0.4908 -0.7238
 5010TIP3    H239226   0.376   5.056  10.417 -0.3121 -0.4257 -0.0135
 5011TIP3   OH239227   5.210   1.027  10.684  0.9906 -0.1871  0.2985
 5011TIP3    H139228   5.208   1.123  10.682  0.3515 -0.1932  0.2617
 5011TIP3    H239229   5.183   1.001  10.596  0.6663 -0.3992  0.4592
 5012TIP3   OH239230   4.566   0.304  12.098 -0.4322 -0.0962  0.3451
 5012TIP3    H139231   4.581   0.255  12.018 -0.6452  0.1643  0.1416
 5012TIP3    H239232   4.598   0.247  12.168 -2.0673 -1.2000  0.2559
 5013TIP3   OH239233   5.846   0.201  12.686  0.3851 -0.3567  0.7751
 5013TIP3    H139234   5.869   0.192  12.594  0.4407 -0.9303  0.8367
 5013TIP3    H239235   5.903   0.138  12.731 -0.2519 -0.7152  1.0966
 5014TIP3   OH239236   2.593   7.008  10.938 -0.3027 -0.7648  0.5821
 5014TIP3    H139237   2.631   7.066  10.873  0.3057 -0.4873  1.1789
 5014TIP3    H239238   2.521   7.059  10.977 -0.9548 -1.0914 -0.1644
 5015TIP3   OH239239   0.585   5.021  12.639 -0.6752  0.1329  0.3132
 5015TIP3    H139240   0.567   4.988  12.551 -0.9364  0.4281  0.2504
 5015TIP3    H239241   0.680   5.018  12.648 -0.7359 -2.0105  0.8623
 5016TIP3   OH239242   0.147   0.186  12.149 -0.0042  0.0177 -0.0880
 5016TIP3    H139243   0.200   0.139  12.084 -1.8461 -0.4281 -1.3573
 5016TIP3    H239244   0.077   0.226  12.098 -1.2547  0.0565  1.5843
 5017TIP3   OH239245   7.262   5.931  11.561  1.0702  0.1782  0.1223
 5017TIP3    H139246   7.254   5.949  11.655  1.7385  2.1821 -0.1572
 5017TIP3    H239247   7.340   5.979  11.534  1.2123 -0.8338 -1.3706
 5018TIP3   OH239248   2.368   4.157  10.874  0.3165 -0.0859 -0.0192
 5018TIP3    H139249   2.460   4.134  10.891  0.6124  1.5793  0.8054
 5018TIP3    H239250   2.373   4.236  10.820 -0.6287  0.5110  0.7574
 5019TIP3   OH239251   4.998   1.288  10.014  0.1596 -0.1970 -0.4358
 5019TIP3    H139252   4.982   1.194  10.015  0.7645 -0.3030  0.1339
 5019TIP3    H239253   5.081   1.299  10.061 -1.1771  0.8162  1.8932
 5020TIP3   OH239254   3.604   7.470  12.880 -0.7324 -0.1365 -0.7392
 5020TIP3    H139255   3.689   7.438  12.911 -0.4680  1.7341  0.6585
 5020TIP3    H239256   3.542   7.441  12.946 -0.9029  0.0040 -0.8366
 5021TIP3   OH239257   0.792   3.966  10.627 -0.4367  0.0237  0.3381
 5021TIP3    H139258   0.697   3.962  10.636 -0.6016 -0.0856 -1.1812
 5021TIP3    H239259   0.807   4.023  10.552  0.6531 -0.6965 -0.0241
 5022TIP3   OH239260   6.848   5.695  12.219 -0.2931 -0.2348 -0.0319
 5022TIP3    H139261   6.808   5.721  12.137  2.9431  3.0096 -0.8629
 5022TIP3    H239262   6.887   5.609  12.201 -1.5317 -0.5909 -1.1204
 5023TIP3   OH239263   2.116   1.854  11.390 -0.2030  0.5761  0.1387
 5023TIP3    H139264   2.147   1.848  11.300  1.1008 -1.2159  0.6430
 5023TIP3    H239265   2.021   1.843  11.383  0.0666 -1.7378 -0.9008
 5024TIP3   OH239266   3.584   3.524  10.867 -0.1088  0.2902  0.0434
 5024TIP3    H139267   3.540   3.442  10.843  1.9227 -0.6875 -0.5768
 5024TIP3    H239268   3.582   3.526  10.963 -3.2528  1.3468  0.0620
 5025TIP3   OH239269   3.560   4.975  11.683  0.1225 -0.1753  0.4831
 5025TIP3    H139270   3.623   4.933  11.741  0.6832 -0.3070 -0.2024
 5025TIP3    H239271   3.614   5.022  11.619 -0.4595 -0.5648 -0.3143
 5026TIP3   OH239272   5.721   3.455  11.671 -0.8510 -0.3086 -0.7850
 5026TIP3    H139273   5.791   3.476  11.733 -0.8878  0.2489 -0.9256
 5026TIP3    H239274   5.668   3.534  11.667 -1.6127 -0.8008 -0.5227
 5027TIP3   OH239275   6.727   5.414  10.492 -0.0398  0.4587  0.0727
 5027TIP3    H139276   6.753   5.329  10.526 -0.6080  0.5226  0.6895
 5027TIP3    H239277   6.673   5.394  10.415 -2.7794  0.0874  1.9460
 5028TIP3   OH239278   6.289   3.616  12.007 -0.2330 -0.0801 -0.2879
 5028TIP3    H139279   6.270   3.681  11.939  0.9458  0.1057 -0.4637
 5028TIP3    H239280   6.306   3.667  12.086  0.1081 -0.2024 -0.2806
 5029TIP3   OH239281   3.479   2.522  11.024  0.5550 -0.2067  0.0939
 5029TIP3    H139282   3.455   2.599  11.075  1.2858  0.4193 -0.4890
 5029TIP3    H239283   3.532   2.556  10.952  1.7404 -1.3549  0.3800
 5030TIP3   OH239284   7.140   7.138  11.564  1.4684  0.3311  0.0044
 5030TIP3    H139285   7.148   7.043  11.558 -0.5056  0.1635 -0.5465
 5030TIP3    H239286   7.047   7.156  11.548  1.9622  2.4310 -0.8659
 5031TIP3   OH239287   0.328   2.792  11.951  0.4317 -0.4498  0.0263
 5031TIP3    H139288   0.335   2.710  12.000  0.8104 -1.2855 -1.3903
 5031TIP3    H239289   0.240   2.824  11.973  0.1843 -1.3481  0.4220
 5032TIP3   OH239290   6.896   6.251   9.847  0.3374 -0.0815 -0.1081
 5032TIP3    H139291   6.934   6.317   9.789 -1.1680  0.8991 -0.0166
 5032TIP3    H239292   6.970   6.224   9.902  1.8022 -1.0223 -2.3791
 5033TIP3   OH239293   3.314   4.197  10.741  0.0907 -0.1176 -0.2395
 5033TIP3    H139294   3.319   4.127  10.676 -0.1285  0.9857 -1.4914
 5033TIP3    H239295   3.379   4.173  10.807  0.8433 -0.9216 -1.2388
 5034TIP3   OH239296   5.154   1.309  10.675 -0.5722  0.3619  0.7170
 5034TIP3    H139297   5.088   1.311  10.744 -0.3115  1.7333  0.9479
 5034TIP3    H239298   5.124   1.374  10.612 -1.9382 -2.2746 -1.5877
 5035TIP3   OH239299   3.168   4.053  12.432 -0.1316  0.4294  0.0976
 5035TIP3    H139300   3.183   4.073  12.524  2.4640 -2.8873  0.5796
 5035TIP3    H239301   3.097   3.989  12.433 -0.4110  0.7312 -0.2611
 5036TIP3   OH239302   5.685   6.961  10.454 -0.1172  0.0046 -0.2965
 5036TIP3    H139303   5.596   6.989  10.476 -1.2919 -1.9188 -2.2497
 5036TIP3    H239304   5.684   6.948  10.360  2.0836 -0.6967 -0.2819
 5037TIP3   OH239305   5.382   4.421  12.097 -0.0757  0.2575 -0.0921
 5037TIP3    H139306   5.418   4.494  12.147  2.2127 -1.2439  0.6503
 5037TIP3    H239307   5.300   4.399  12.141  0.7332  0.4686  1.5987
 5038TIP3   OH239308   2.916   0.855  10.775  0.1084  0.2824  0.0777
 5038TIP3    H139309   2.945   0.833  10.864 -1.6987  0.6895  0.8099
 5038TIP3    H239310   2.996   0.852  10.723  1.0005 -1.3048  1.4377
 5039TIP3   OH239311   5.342   5.538  10.705 -0.2214 -0.3561  0.1800
 5039TIP3    H139312   5.276   5.573  10.764 -0.1227  1.2790 -0.6171
 5039TIP3    H239313   5.426   5.559  10.746 -0.1231  1.5962 -0.8799
 5040TIP3   OH239314   6.835   0.204  10.903 -0.7545  0.4184  0.2637
 5040TIP3    H139315   6.824   0.194  10.997  0.2762  1.6067  0.5347
 5040TIP3    H239316   6.908   0.146  10.881 -3.0128 -2.4014 -0.4219
 5041TIP3   OH239317   5.399   2.282  12.918  0.1254 -0.3944 -0.1145
 5041TIP3    H139318   5.357   2.363  12.889 -1.1217 -1.0292 -0.1528
 5041TIP3    H239319   5.493   2.300  12.910 -0.1229  0.9992 -0.2219
 5042TIP3   OH239320   6.949   3.925  10.412  0.2665 -0.5639 -0.6809
 5042TIP3    H139321   6.871   3.980  10.412 -0.1027 -1.0708 -1.3897
 5042TIP3    H239322   6.968   3.910  10.320  0.5676 -1.3269 -0.5054
 5043TIP3   OH239323   3.301   4.576  10.025 -0.0043 -0.1345  0.5052
 5043TIP3    H139324   3.304   4.482  10.006 -0.0926 -0.0316 -0.0265
 5043TIP3    H239325   3.238   4.611   9.961  0.6206  0.4126  0.1791
 5044TIP3   OH239326   6.939   2.537  12.630 -0.1887 -0.0612 -0.0756
 5044TIP3    H139327   6.902   2.522  12.717 -1.6985  2.5970 -0.1220
 5044TIP3    H239328   6.872   2.505  12.570  0.2949 -0.7406 -0.2616
 5045TIP3   OH239329   7.575   4.146  11.546  0.2205 -0.6711 -0.0648
 5045TIP3    H139330   7.530   4.184  11.471 -0.2260  0.1185  0.5873
 5045TIP3    H239331   7.526   4.177  11.622  0.8797 -1.1613  0.5778
 5046TIP3   OH239332   1.713   4.484  10.863 -0.1316 -0.2018 -0.5015
 5046TIP3    H139333   1.700   4.578  10.878  0.5513 -0.0505 -0.8139
 5046TIP3    H239334   1.654   4.441  10.925 -1.5216  0.4301 -1.3268
 5047TIP3   OH239335   4.329   3.099  12.569 -0.1475  0.1114  0.3894
 5047TIP3    H139336   4.264   3.029  12.560  0.4937 -0.6739  1.5552
 5047TIP3    H239337   4.277   3.178  12.585 -0.8452 -0.4440  0.9617
 5048TIP3   OH239338   1.162   2.283  11.873  0.1925  0.6127  0.9802
 5048TIP3    H139339   1.168   2.378  11.863  0.8256  0.9060  3.4068
 5048TIP3    H239340   1.077   2.268  11.914 -0.8700 -0.1381 -1.3508
 5049TIP3   OH239341   0.734   2.928  12.535 -0.5301 -0.3202 -0.0068
 5049TIP3    H139342   0.639   2.928  12.534 -0.6297  0.4131  2.5303
 5049TIP3    H239343   0.758   3.012  12.573  1.1434 -0.3860 -0.8297
 5050TIP3   OH239344   4.284   7.578  10.811  0.0592 -0.1602 -0.0314
 5050TIP3    H139345   4.289   7.562  10.717 -0.5181  1.7827 -0.4250
 5050TIP3    H239346   4.285   7.673  10.820 -1.6321 -0.2579  1.8215
 5051TIP3   OH239347   5.797   6.451  11.570  0.1139  0.0615  0.0351
 5051TIP3    H139348   5.882   6.479  11.603  0.1355  2.2116 -1.6148
 5051TIP3    H239349   5.812   6.436  11.476 -1.4402  1.0346 -0.3940
 5052TIP3   OH239350   5.939   3.126  11.762  0.6801  0.3620  0.7296
 5052TIP3    H139351   5.852   3.091  11.742  0.5266  1.1108  0.0382
 5052TIP3    H239352   5.969   3.074  11.837 -0.4667  0.2712  1.1436
 5053TIP3   OH239353   7.067   2.919  11.111  0.8495 -0.3559  0.6095
 5053TIP3    H139354   7.040   3.002  11.071 -0.8748 -0.7207  0.9368
 5053TIP3    H239355   7.044   2.929  11.203  1.0755 -1.0263  0.7403
 5054TIP3   OH239356   1.160   0.118  11.543 -0.1434 -0.1138  0.4412
 5054TIP3    H139357   1.074   0.160  11.546 -0.2953 -0.4550  1.2023
 5054TIP3    H239358   1.141   0.024  11.550  0.2644 -0.2205  0.1312
 5055TIP3   OH239359   1.361   4.014  10.517 -0.3229  0.0765 -0.0054
 5055TIP3    H139360   1.330   3.925  10.532 -0.1510  0.2534  1.6468
 5055TIP3    H239361   1.292   4.056  10.466 -0.4655 -0.9585 -0.6870
 5056TIP3   OH239362   5.445   4.928  12.273  0.3864  0.1997  0.3539
 5056TIP3    H139363   5.436   4.923  12.178  1.4408 -1.5528  0.3048
 5056TIP3    H239364   5.356   4.937  12.306  0.0834  2.1099 -0.8139
 5057TIP3   OH239365   7.656   5.193  12.840  0.6345  0.3674  0.4841
 5057TIP3    H139366   7.633   5.233  12.756 -0.1573  1.1447  1.0646
 5057TIP3    H239367   7.586   5.130  12.857  1.1739 -0.3185  0.2261
 5058TIP3   OH239368   4.532   6.623  11.986 -0.0913 -0.0707  0.0067
 5058TIP3    H139369   4.517   6.662  11.901  1.4411  0.2602 -0.1409
 5058TIP3    H239370   4.448   6.583  12.010 -0.5680 -0.0686 -1.5901
 5059TIP3   OH239371   5.609   5.599  12.044 -0.6200 -0.5240  0.1145
 5059TIP3    H139372   5.672   5.531  12.019 -0.9903 -1.2882  1.1650
 5059TIP3    H239373   5.663   5.666  12.085  0.1125  1.1585 -3.2667
 5060TIP3   OH239374   3.209   4.796  10.965  0.5194 -0.4199 -0.3566
 5060TIP3    H139375   3.148   4.766  10.898 -1.5474 -1.1833  1.7392
 5060TIP3    H239376   3.232   4.717  11.014  1.5609  0.2108  0.2142
 5061TIP3   OH239377   7.365   6.839  10.411  0.2340  0.5121  0.1838
 5061TIP3    H139378   7.435   6.854  10.348  0.4972 -0.1870  0.2953
 5061TIP3    H239379   7.376   6.907  10.478  0.4013  0.8038 -0.1408
 5062TIP3   OH239380   6.128   2.793  12.068 -0.5901 -0.0188 -0.1872
 5062TIP3    H139381   6.151   2.703  12.042 -0.7311  0.4436 -2.0666
 5062TIP3    H239382   6.197   2.847  12.029  0.2040  0.6176  2.0069
 5063TIP3   OH239383   7.539   1.182  10.387  0.2992 -0.0216  0.1244
 5063TIP3    H139384   7.446   1.162  10.376 -0.3199  1.5541  1.9662
 5063TIP3    H239385   7.583   1.099  10.373 -1.7480 -1.8741  3.4236
 5064TIP3   OH239386   0.825   1.992  12.644 -0.3956  0.2407 -0.3996
 5064TIP3    H139387   0.873   1.962  12.721  0.1112  1.3252 -0.2718
 5064TIP3    H239388   0.741   1.946  12.649 -0.6950  0.8935  1.2564
 5065TIP3   OH239389   3.115   2.119  11.181  0.4369  0.0432 -0.2299
 5065TIP3    H139390   3.120   2.152  11.271 -0.2718 -0.8119  0.1449
 5065TIP3    H239391   3.206   2.107  11.155  0.6556  0.5809  0.2651
 5066TIP3   OH239392   7.518   4.432  10.453 -0.3584 -0.2197 -0.4057
 5066TIP3    H139393   7.567   4.514  10.456  0.0681 -0.4538 -0.7478
 5066TIP3    H239394   7.426   4.458  10.448 -0.2158  0.2383 -0.6709
 5067TIP3   OH239395   4.031   4.900  10.563  0.1553  0.0530 -0.5043
 5067TIP3    H139396   3.951   4.853  10.537  0.3762 -0.7578  0.2348
 5067TIP3    H239397   4.008   4.943  10.645 -0.8854  3.5104 -2.3981
 5068TIP3   OH239398   4.324   2.018  12.297  0.4582  0.3442 -0.3109
 5068TIP3    H139399   4.400   2.075  12.290 -0.7180  1.9379 -0.8308
 5068TIP3    H239400   4.347   1.941  12.246  0.9983  1.6550 -2.1739
 5069TIP3   OH239401   2.242   1.988  12.582 -0.2662  0.0964 -0.6235
 5069TIP3    H139402   2.269   1.902  12.615 -1.0665  0.1693  0.2561
 5069TIP3    H239403   2.320   2.042  12.591  1.0212 -1.0597 -3.3748
 5070TIP3   OH239404   7.536   1.947  11.018  0.1350  0.3211  0.1401
 5070TIP3    H139405   7.553   1.980  11.107  0.6691  1.3505 -0.3299
 5070TIP3    H239406   7.444   1.971  11.002 -0.4129 -1.1214  0.9239
 5071TIP3   OH239407   5.529   4.731  11.111 -0.8275  0.4235 -0.4135
 5071TIP3    H139408   5.543   4.823  11.133  0.0706  0.3566 -0.6413
 5071TIP3    H239409   5.552   4.684  11.191 -0.3003  0.3420 -0.6110
 5072TIP3   OH239410   2.007   3.489  10.184  0.0325 -0.1635 -0.1754
 5072TIP3    H139411   1.916   3.458  10.193  0.0520 -0.2588 -0.3062
 5072TIP3    H239412   2.060   3.411  10.202  0.0762 -0.3354 -1.0098
 5073TIP3   OH239413   5.185   4.938  12.341  0.0892 -0.6411 -0.0895
 5073TIP3    H139414   5.140   4.939  12.425  0.2349  1.4816  0.0040
 5073TIP3    H239415   5.116   4.933  12.275 -0.1632  0.1286  0.1124
 5074TIP3   OH239416   3.734   5.589  11.419 -0.6749 -0.2102 -0.2848
 5074TIP3    H139417   3.699   5.506  11.388  0.4104 -0.6503 -0.3753
 5074TIP3    H239418   3.815   5.565  11.465 -0.9537  0.6808  0.7076
 5075TIP3   OH239419   4.759   5.652  11.607 -0.1921 -0.6875 -0.1861
 5075TIP3    H139420   4.800   5.579  11.652  1.6507 -0.1202 -0.8138
 5075TIP3    H239421   4.714   5.701  11.675  0.9043 -0.9017  0.7191
 5076TIP3   OH239422   5.915   4.062  12.097 -0.4985 -0.2403 -0.2614
 5076TIP3    H139423   5.917   4.024  12.185 -1.0664 -2.2191 -1.0563
 5076TIP3    H239424   5.822   4.074  12.078 -0.4269 -0.6028 -0.8865
 5077TIP3   OH239425   5.722   2.474  11.153 -0.2305 -0.3508 -0.1066
 5077TIP3    H139426   5.720   2.382  11.176 -0.1700  0.0973  1.8943
 5077TIP3    H239427   5.813   2.501  11.167 -0.3714  0.1372 -0.0975
 5078TIP3   OH239428   3.314   0.922  10.933  0.5213 -0.0511 -0.3765
 5078TIP3    H139429   3.397   0.949  10.894  1.4172 -1.7826  0.2334
 5078TIP3    H239430   3.298   0.835  10.896 -1.4886  0.5905 -1.1440
 5079TIP3   OH239431   6.413   2.463  10.641  0.7057 -0.0376  0.1209
 5079TIP3    H139432   6.411   2.554  10.611  0.7629 -0.2441 -0.5216
 5079TIP3    H239433   6.429   2.469  10.735 -0.6860  0.6654  0.3383
 5080TIP3   OH239434   6.357   1.359  10.182  0.0315  0.9837 -0.4273
 5080TIP3    H139435   6.300   1.360  10.258 -1.4818  0.3047 -1.4935
 5080TIP3    H239436   6.335   1.277  10.137  3.1771 -0.2779  0.0537
 5081TIP3   OH239437   4.689   7.244  11.920 -0.0316  0.0795  0.6678
 5081TIP3    H139438   4.602   7.282  11.912 -1.2848 -2.1401  2.4592
 5081TIP3    H239439   4.673   7.151  11.934  2.7296 -0.6838 -0.5272
 5082TIP3   OH239440   5.993   5.529  12.308  0.3958 -0.3802  0.1503
 5082TIP3    H139441   5.940   5.484  12.242  1.1166 -0.6439 -0.2495
 5082TIP3    H239442   6.071   5.559  12.261  0.8814 -0.4968  0.8640
 5083TIP3   OH239443   2.272   0.597  12.343  0.2450 -0.2448 -0.5155
 5083TIP3    H139444   2.363   0.597  12.374 -1.1128 -1.6696  4.2966
 5083TIP3    H239445   2.247   0.505  12.341 -1.3529  0.1700 -0.9057
 5084TIP3   OH239446   6.382   5.509  11.295  0.2946 -0.3864  0.4437
 5084TIP3    H139447   6.406   5.468  11.378  1.9519 -1.8059 -0.6853
 5084TIP3    H239448   6.462   5.509  11.244 -0.8484 -0.1735 -1.4298
 5085TIP3   OH239449   4.562   0.899  10.290  0.2176  0.1188 -0.2609
 5085TIP3    H139450   4.543   0.845  10.214  1.9356 -1.2139  0.1921
 5085TIP3    H239451   4.570   0.836  10.362  1.0809  1.0912  0.5208
 5086TIP3   OH239452   7.671   7.506  12.200 -0.1080 -0.4502 -0.6305
 5086TIP3    H139453   7.703   7.464  12.280 -1.2670 -1.3406 -0.6109
 5086TIP3    H239454   7.630   7.435  12.151 -1.2969  0.5001 -1.0406
 5087TIP3   OH239455   7.560   3.877  11.482  0.3124 -0.1998  0.0731
 5087TIP3    H139456   7.652   3.856  11.496  0.2575 -0.8976 -0.5187
 5087TIP3    H239457   7.558   3.973  11.473  1.1943 -0.2824 -1.3125
 5088TIP3   OH239458   1.687   7.470  12.184  0.6700 -0.1308  0.1604
 5088TIP3    H139459   1.728   7.434  12.106  1.3580 -0.1623  0.5297
 5088TIP3    H239460   1.742   7.545  12.208  2.7506 -2.2691  2.7611
 5089TIP3   OH239461   1.121   0.587  12.217 -0.5311 -0.1239  0.5990
 5089TIP3    H139462   1.026   0.586  12.234 -0.7095 -0.1202 -0.3749
 5089TIP3    H239463   1.153   0.661  12.269 -1.2452  0.6256 -0.0056
 5090TIP3   OH239464   5.296   0.025  10.766 -0.1676  0.1673  0.1562
 5090TIP3    H139465   5.377   0.040  10.716 -0.6820  1.9337 -0.2251
 5090TIP3    H239466   5.226   0.052  10.707 -0.9418  0.1015  1.0213
 5091TIP3   OH239467   7.628   6.697  12.584  0.3333  0.7409  0.4240
 5091TIP3    H139468   7.559   6.734  12.639 -0.1985  0.6791 -0.1782
 5091TIP3    H239469   7.641   6.762  12.515 -0.2643  0.0539 -0.3655
 5092TIP3   OH239470   7.088   4.068  10.603  0.4347  0.0944 -0.5659
 5092TIP3    H139471   7.064   4.020  10.524  0.2429  1.0845 -1.1145
 5092TIP3    H239472   7.134   4.145  10.571  0.0095  0.7052  0.2744
 5093TIP3   OH239473   3.197   4.290  11.133  0.5348  0.3095  0.0223
 5093TIP3    H139474   3.194   4.197  11.109 -0.6972  0.0630  1.0086
 5093TIP3    H239475   3.200   4.290  11.229 -0.1457  1.2844  0.0618
 5094TIP3   OH239476   0.764   7.138  11.878  0.3727  0.1573 -0.8577
 5094TIP3    H139477   0.821   7.176  11.945 -0.1942 -1.3738  0.5503
 5094TIP3    H239478   0.811   7.061  11.846 -0.6142 -0.7991 -0.0857
 5095TIP3   OH239479   3.714   4.217  12.408  0.1331 -0.1426 -0.3372
 5095TIP3    H139480   3.655   4.287  12.434 -0.8773 -1.1061  0.0171
 5095TIP3    H239481   3.661   4.137  12.411  1.5128 -1.0800  0.2581
 5096TIP3   OH239482   0.988   5.468  12.103  0.1136  0.2054  0.0751
 5096TIP3    H139483   0.955   5.504  12.021 -1.0615  0.9989  0.8666
 5096TIP3    H239484   0.909   5.442  12.151  0.6086  1.8501  1.9001
 5097TIP3   OH239485   3.524   3.440  10.144 -0.1959  0.0956 -0.2980
 5097TIP3    H139486   3.533   3.482  10.058  0.1804 -1.6977 -1.1815
 5097TIP3    H239487   3.454   3.376  10.132  1.0978 -1.4711  0.1701
 5098TIP3   OH239488   4.247   2.086  11.631 -0.2019 -0.0244 -0.3712
 5098TIP3    H139489   4.275   2.177  11.640  1.4262 -0.6847  2.5227
 5098TIP3    H239490   4.305   2.050  11.564 -0.8271  1.0008 -1.5053
 5099TIP3   OH239491   6.320   6.743  12.261 -0.3788  0.3418  0.2316
 5099TIP3    H139492   6.298   6.823  12.308  0.2040  0.2150  0.7406
 5099TIP3    H239493   6.357   6.686  12.328  1.2289  0.4451 -0.5123
 5100TIP3   OH239494   0.159   7.417  12.432  0.4248  0.2853 -0.3784
 5100TIP3    H139495   0.106   7.419  12.512  0.3300  3.0315 -0.4395
 5100TIP3    H239496   0.194   7.327  12.429 -2.3475 -0.9482  0.8566
 5101TIP3   OH239497   1.240   0.296  12.203  1.0494  0.4085 -0.0371
 5101TIP3    H139498   1.160   0.263  12.244  0.9153  0.0494 -0.5678
 5101TIP3    H239499   1.226   0.390  12.195  1.6988  0.7427  2.0808
 5102TIP3   OH239500   0.744   3.800  11.654  0.6668 -0.0854  0.5915
 5102TIP3    H139501   0.815   3.773  11.712  0.6593 -1.1129  0.1535
 5102TIP3    H239502   0.743   3.734  11.584  1.3634  1.6706 -1.1845
 5103TIP3   OH239503   2.674   0.435   9.854  0.8731 -0.0727  0.1792
 5103TIP3    H139504   2.722   0.398   9.928  1.6551 -1.6923 -1.0636
 5103TIP3    H239505   2.612   0.366   9.828  0.8520  0.3198 -0.8654
 5104TIP3   OH239506   4.489   0.241  12.616  0.6735 -0.2751  0.0455
 5104TIP3    H139507   4.561   0.298  12.642  1.1232 -0.5756 -0.5167
 5104TIP3    H239508   4.525   0.152  12.622  0.5385 -0.4014 -0.7820
 5105TIP3   OH239509   7.130   4.950  12.345  0.4035 -0.2176  0.2748
 5105TIP3    H139510   7.146   4.865  12.386 -0.5694 -0.7392 -0.4141
 5105TIP3    H239511   7.179   5.012  12.400 -0.6441 -0.9202  2.1247
 5106TIP3   OH239512   3.694   6.478  12.567 -0.4693 -0.8233 -0.1163
 5106TIP3    H139513   3.718   6.559  12.612 -3.2648 -0.2255  0.5054
 5106TIP3    H239514   3.624   6.504  12.507 -1.4499 -2.7395  0.1150
 5107TIP3   OH239515   5.134   4.358  12.134 -0.8052 -0.3310 -0.6630
 5107TIP3    H139516   5.083   4.438  12.150 -0.5876 -0.7178  2.9161
 5107TIP3    H239517   5.070   4.293  12.107 -1.8208 -0.0809  0.9934
 5108TIP3   OH239518   1.153   2.687  11.167 -0.3498  0.3613  0.6970
 5108TIP3    H139519   1.075   2.642  11.199 -0.3767 -2.7294 -3.0022
 5108TIP3    H239520   1.224   2.624  11.180  0.0968  0.0521 -2.3704
 5109TIP3   OH239521   0.423   4.911  11.284 -0.6196  0.0146 -0.2672
 5109TIP3    H139522   0.388   4.990  11.325  1.2452  0.1914  1.1369
 5109TIP3    H239523   0.352   4.848  11.288 -1.1306  0.6468  1.5428
 5110TIP3   OH239524   6.963   2.425  11.330 -0.1466 -0.2698  0.4442
 5110TIP3    H139525   6.958   2.392  11.241  2.3618 -0.1978  0.1971
 5110TIP3    H239526   6.900   2.497  11.332 -0.8949 -0.8368 -0.9753
 5111TIP3   OH239527   1.848   7.416  11.976 -0.1784  0.7559 -0.7005
 5111TIP3    H139528   1.927   7.455  11.937 -0.2652  1.3182 -0.3294
 5111TIP3    H239529   1.868   7.323  11.983  0.3386  0.8484 -0.8955
 5112TIP3   OH239530   6.096   6.736  10.669 -0.3184  0.0329 -0.1567
 5112TIP3    H139531   6.075   6.725  10.576  0.5509  0.2071 -0.3809
 5112TIP3    H239532   6.190   6.718  10.675 -0.4705 -0.5674  0.7892
 5113TIP3   OH239533   7.545   6.831  12.013  0.1113  0.0809 -0.1042
 5113TIP3    H139534   7.500   6.878  12.082 -0.6882  0.5700 -0.9357
 5113TIP3    H239535   7.576   6.899  11.954  0.0722 -0.3621 -0.6485
 5114TIP3   OH239536   0.086   1.921  10.557 -0.1223  0.2202  0.2140
 5114TIP3    H139537   0.176   1.944  10.580  0.4841 -2.1252  0.4499
 5114TIP3    H239538   0.056   1.867  10.630 -1.5056  0.4409 -0.1640
 5115TIP3   OH239539   0.621   7.258  11.672  0.6672 -0.0740 -0.1256
 5115TIP3    H139540   0.664   7.249  11.757  2.1153  1.0762 -0.7051
 5115TIP3    H239541   0.662   7.190  11.618  1.1320  0.4346 -0.4239
 5116TIP3   OH239542   2.419   4.089  11.862  0.2312 -0.4786 -0.0775
 5116TIP3    H139543   2.328   4.112  11.880 -0.1183 -1.8205  0.0043
 5116TIP3    H239544   2.463   4.094  11.947  0.3365  0.5592 -0.1851
 5117TIP3   OH239545   6.240   4.276  11.535  0.6447 -0.3941 -0.4557
 5117TIP3    H139546   6.235   4.351  11.476 -0.1912 -1.2011 -1.4641
 5117TIP3    H239547   6.272   4.311  11.618 -0.6400  1.2327 -0.6117
 5118TIP3   OH239548   5.785   5.714  12.239  0.6026  0.5137  0.0129
 5118TIP3    H139549   5.858   5.653  12.239 -0.9459 -1.4367 -0.5707
 5118TIP3    H239550   5.767   5.730  12.332  0.5561 -0.5146  0.1858
 5119TIP3   OH239551   4.292   7.414  10.557 -0.3667 -0.1612  0.6438
 5119TIP3    H139552   4.216   7.359  10.536 -0.0481 -0.6009  0.6391
 5119TIP3    H239553   4.281   7.492  10.503  1.0914 -1.7849 -2.2028
 5120TIP3   OH239554   0.147   1.435  12.558 -0.4600  0.0452  0.0914
 5120TIP3    H139555   0.214   1.485  12.604  0.3295 -0.5490 -0.3849
 5120TIP3    H239556   0.070   1.492  12.559  0.7124  1.7820 -1.4001
 5121TIP3   OH239557   6.086   5.533  11.161  0.2783 -0.1136 -1.1438
 5121TIP3    H139558   6.131   5.455  11.127  1.0671  0.3348 -1.1710
 5121TIP3    H239559   6.149   5.604  11.146 -0.6646  0.6298 -1.6451
 5122TIP3   OH239560   6.149   1.286  11.567  0.1938 -0.2680  0.1431
 5122TIP3    H139561   6.224   1.344  11.566  0.9449 -1.1759  1.2351
 5122TIP3    H239562   6.078   1.337  11.527  0.8981  1.2637  0.7765
 5123TIP3   OH239563   6.505   6.245  13.049 -0.1360 -0.0151 -0.1241
 5123TIP3    H139564   6.577   6.289  13.095  0.9841 -0.1648 -1.6625
 5123TIP3    H239565   6.431   6.254  13.108  0.7288  1.5820  0.8064
 5124TIP3   OH239566   3.529   3.954  11.857  0.5454 -0.2185  0.2141
 5124TIP3    H139567   3.518   3.947  11.952 -0.9464 -2.2088 -0.0567
 5124TIP3    H239568   3.489   3.875  11.822 -1.9075  1.9730 -2.3297
 5125TIP3   OH239569   0.681   5.890  10.039 -0.4302  0.1587  0.0991
 5125TIP3    H139570   0.745   5.960  10.024  0.4140 -0.2790  1.4552
 5125TIP3    H239571   0.636   5.916  10.119 -0.4821 -0.5765  0.3143
 5126TIP3   OH239572   1.609   1.120  12.139  0.1991 -0.9361 -0.1604
 5126TIP3    H139573   1.641   1.129  12.229 -0.8948  3.0444  0.0547
 5126TIP3    H239574   1.676   1.164  12.085  0.1469 -1.9951 -1.1328
 5127TIP3   OH239575   2.045   0.855  12.592 -0.4925 -0.2406 -0.4860
 5127TIP3    H139576   2.102   0.906  12.650 -0.5435 -0.1554 -0.5118
 5127TIP3    H239577   2.020   0.916  12.522  0.5281 -0.6548 -1.2513
 5128TIP3   OH239578   5.152   7.118  10.678  0.2228 -0.4007 -0.0370
 5128TIP3    H139579   5.196   7.111  10.594 -1.8273  0.1099 -1.2253
 5128TIP3    H239580   5.128   7.028  10.701  1.6506 -0.6602  0.5360
 5129TIP3   OH239581   3.320   4.857  10.383 -0.4677 -0.9613  0.5010
 5129TIP3    H139582   3.288   4.939  10.422  0.5067  1.3497 -3.0008
 5129TIP3    H239583   3.254   4.836  10.316  1.1620 -0.7288 -1.2675
 5130TIP3   OH239584   6.729   3.839  12.979  0.0274  0.0037 -0.8494
 5130TIP3    H139585   6.698   3.783  12.908 -0.5939 -0.6959 -0.0538
 5130TIP3    H239586   6.661   3.833  13.046  1.5614 -1.0784  0.7134
 5131TIP3   OH239587   4.267   4.452  12.227 -0.1150 -0.0513 -0.0243
 5131TIP3    H139588   4.329   4.411  12.166 -0.6410 -1.1981  0.1830
 5131TIP3    H239589   4.231   4.526  12.178 -0.6321 -1.0296 -1.1927
 5132TIP3   OH239590   3.730   2.785  12.448 -0.1058  0.3770  0.4772
 5132TIP3    H139591   3.637   2.800  12.433 -0.5882 -0.3203  2.4812
 5132TIP3    H239592   3.770   2.872  12.439 -0.7632  0.5287 -1.3533
 5133TIP3   OH239593   2.946   2.074  11.731 -0.2690  0.6842  0.0997
 5133TIP3    H139594   2.886   2.031  11.792  0.1089 -0.2460 -0.1699
 5133TIP3    H239595   2.890   2.133  11.679 -0.5295  1.8342  1.6149
 5134TIP3   OH239596   5.701   3.690  10.453  0.4214  0.3711  0.1754
 5134TIP3    H139597   5.762   3.700  10.380  1.1886 -2.0117  0.4295
 5134TIP3    H239598   5.731   3.612  10.499 -1.6731  0.2614  1.4570
 5135TIP3   OH239599   2.154   2.079  11.084  0.2540 -0.0494 -0.0570
 5135TIP3    H139600   2.235   2.034  11.108 -0.0111 -1.2122 -1.2812
 5135TIP3    H239601   2.161   2.095  10.990 -0.9580 -0.2234 -0.2004
 5136TIP3   OH239602   6.095   6.706  12.112 -0.1327  0.4115 -0.2440
 5136TIP3    H139603   6.159   6.734  12.177  0.4326  2.2447 -1.4976
 5136TIP3    H239604   6.145   6.652  12.051 -0.0246  0.8661 -0.5694
 5137TIP3   OH239605   6.667   4.682  11.938 -0.3444 -0.1334  0.1975
 5137TIP3    H139606   6.591   4.637  11.901 -0.3376 -1.0205  1.2190
 5137TIP3    H239607   6.655   4.676  12.033  0.6117  0.3923  0.3672
 5138TIP3   OH239608   5.451   4.275  10.888 -0.1178  0.0416 -0.7056
 5138TIP3    H139609   5.464   4.183  10.867 -1.3719 -0.5592  0.9001
 5138TIP3    H239610   5.496   4.287  10.971 -1.2072  0.4754 -0.1598
 5139TIP3   OH239611   5.613   2.944  12.010  0.2601  0.5113  0.2638
 5139TIP3    H139612   5.534   2.995  11.992  0.0860  0.6174  1.2787
 5139TIP3    H239613   5.674   3.007  12.047  1.2190  0.6555 -1.4426
 5140TIP3   OH239614   5.365   0.046  11.557  0.1066 -0.1194  0.0539
 5140TIP3    H139615   5.356   0.099  11.636  0.4704  0.6326 -0.3988
 5140TIP3    H239616   5.345   0.107  11.485  0.9106 -0.4939 -0.4938
 5141TIP3   OH239617   6.105   0.440  11.172  0.5030  0.3673  0.0947
 5141TIP3    H139618   6.064   0.451  11.086 -1.3306  0.0578  0.8876
 5141TIP3    H239619   6.173   0.375  11.158 -1.0740 -1.1806 -0.7624
 5142TIP3   OH239620   5.634   0.052  12.372  0.6035 -0.2300 -0.6453
 5142TIP3    H139621   5.627  -0.043  12.364 -0.0667 -0.4282  1.7621
 5142TIP3    H239622   5.544   0.083  12.377  0.8278  0.5052 -0.9669
 5143TIP3   OH239623   2.191   0.054  12.278 -0.1107 -0.2356 -0.4000
 5143TIP3    H139624   2.157   0.052  12.189 -0.1596 -0.8983 -0.3728
 5143TIP3    H239625   2.172  -0.034  12.313  0.7717 -0.3024 -0.0674
 5144TIP3   OH239626   5.576   7.260  11.413 -0.5436 -0.5432  0.0057
 5144TIP3    H139627   5.482   7.239  11.410 -1.1493  1.7727  0.4115
 5144TIP3    H239628   5.578   7.355  11.425  1.8756 -0.3838 -1.1015
 5145TIP3   OH239629   1.889   4.950  11.166 -0.1920 -0.0154  0.2393
 5145TIP3    H139630   1.895   5.016  11.235 -1.0504  1.0425 -0.6513
 5145TIP3    H239631   1.930   4.992  11.090 -0.7751 -0.4920 -0.3455
 5146TIP3   OH239632   3.130   4.407  10.736  0.0363 -0.5400  0.0540
 5146TIP3    H139633   3.166   4.318  10.730 -0.0660 -0.4511 -2.8492
 5146TIP3    H239634   3.200   4.464  10.706 -0.7243  0.1394 -0.4702
 5147TIP3   OH239635   4.412   5.186  11.862  0.2698  0.0810  0.0626
 5147TIP3    H139636   4.467   5.260  11.837  0.4895  0.3155  1.1595
 5147TIP3    H239637   4.349   5.177  11.791  1.0835  0.4668 -0.7179
 5148TIP3   OH239638   2.092   5.450  11.855  0.6001 -0.5085  0.2134
 5148TIP3    H139639   2.000   5.445  11.830  0.9537 -0.7267 -1.1039
 5148TIP3    H239640   2.113   5.362  11.888  0.5209 -0.6783 -0.1843
 5149TIP3   OH239641   5.495   1.960  11.307  0.0042  0.5393 -0.4917
 5149TIP3    H139642   5.407   1.995  11.319  0.9307  3.3566 -1.1208
 5149TIP3    H239643   5.551   2.018  11.359  1.5854 -0.7203 -0.7062
 5150TIP3   OH239644   6.179   1.530  11.987 -0.3801  0.0679  0.0848
 5150TIP3    H139645   6.162   1.599  12.051 -0.8859  1.4897 -1.5398
 5150TIP3    H239646   6.197   1.576  11.905  0.6478 -1.6997 -0.7364
 5151TIP3   OH239647   3.476   5.941  10.091 -0.3865 -0.2530 -0.5713
 5151TIP3    H139648   3.383   5.934  10.111 -0.4398  1.1973 -0.1920
 5151TIP3    H239649   3.480   5.949   9.996 -0.7650  0.8309 -0.5169
 5152TIP3   OH239650   6.125   6.788  11.232  0.1102 -0.1026 -0.1010
 5152TIP3    H139651   6.216   6.759  11.227  0.5912  1.3900 -0.5784
 5152TIP3    H239652   6.123   6.870  11.182 -1.9891 -1.2361 -2.0811
 5153TIP3   OH239653   6.207   5.091  11.355 -1.0589 -0.1660 -0.4322
 5153TIP3    H139654   6.144   5.081  11.426  0.6308  0.7333  1.2478
 5153TIP3    H239655   6.276   5.028  11.374 -0.5732  0.0797 -1.2974
 5154TIP3   OH239656   5.289   5.725  11.581 -0.0550 -0.3356 -0.5035
 5154TIP3    H139657   5.210   5.699  11.532  0.1974 -0.1858 -1.0024
 5154TIP3    H239658   5.294   5.820  11.567 -0.6847 -0.0769  0.8723
 5155TIP3   OH239659   1.560   0.966  11.080  0.2729  0.5848 -0.6320
 5155TIP3    H139660   1.553   1.010  10.995 -0.7824 -0.9741 -1.3943
 5155TIP3    H239661   1.471   0.934  11.098  0.3757  1.2261  1.2742
 5156TIP3   OH239662   1.271   7.566  12.148 -0.6468  0.8028  0.3856
 5156TIP3    H139663   1.343   7.619  12.181 -0.7548  1.3399 -0.2345
 5156TIP3    H239664   1.256   7.597  12.059 -0.0073 -1.0011 -0.3955
 5157TIP3   OH239665   0.649   4.301  10.671 -0.2785  0.8431 -0.9364
 5157TIP3    H139666   0.634   4.209  10.650  1.9549  0.5460 -1.5625
 5157TIP3    H239667   0.641   4.306  10.766 -0.5014  0.0232 -0.9111
 5158TIP3   OH239668   7.286   3.990  11.112  0.1673 -0.8116  0.0564
 5158TIP3    H139669   7.200   3.996  11.154 -0.0842 -0.5653 -0.4794
 5158TIP3    H239670   7.267   3.967  11.021  0.8118 -3.6518  0.5473
 5159TIP3   OH239671   7.252   0.939  12.446 -0.4459 -0.0930 -0.4584
 5159TIP3    H139672   7.208   1.022  12.465  0.4353 -0.1077  2.1345
 5159TIP3    H239673   7.183   0.881  12.415 -2.7531 -0.4560  4.4615
 5160TIP3   OH239674   1.054   1.523  11.875  0.2550 -0.0646  0.3652
 5160TIP3    H139675   1.136   1.564  11.903 -0.2919  2.0086 -0.8108
 5160TIP3    H239676   1.079   1.462  11.806  0.8164  1.0101 -0.4249
 5161TIP3   OH239677   2.487   5.158  11.611 -0.1248  0.1610  0.4141
 5161TIP3    H139678   2.516   5.159  11.520  0.5857 -0.7833  0.6178
 5161TIP3    H239679   2.559   5.197  11.660 -0.2415  0.0942  0.6400
 5162TIP3   OH239680   6.798   0.165  11.348  0.2511  0.1478  0.2475
 5162TIP3    H139681   6.891   0.184  11.355  0.0183  1.5677 -0.1550
 5162TIP3    H239682   6.775   0.126  11.431  1.2243 -0.3003  0.3187
 5163TIP3   OH239683   5.446   3.528  10.457 -0.2377  0.1879 -0.1989
 5163TIP3    H139684   5.490   3.477  10.390 -0.7078 -0.6264  0.1022
 5163TIP3    H239685   5.496   3.610  10.462  0.3493 -0.1264 -0.8808
 5164TIP3   OH239686   5.096   1.355  12.189  0.2185  0.5284  0.8143
 5164TIP3    H139687   5.176   1.405  12.208  0.3499  0.8692 -0.4979
 5164TIP3    H239688   5.035   1.420  12.153 -0.7770  0.3283  2.0844
 5165TIP3   OH239689   4.635   1.592  12.452 -0.2985 -0.6949 -0.3009
 5165TIP3    H139690   4.581   1.615  12.376  0.1117 -2.1204 -1.0446
 5165TIP3    H239691   4.703   1.659  12.453  0.7353 -1.6278 -2.2844
 5166TIP3   OH239692   1.500   6.060  12.317  0.1773  0.3411  0.1887
 5166TIP3    H139693   1.489   5.966  12.309 -0.6598  0.2897  1.5306
 5166TIP3    H239694   1.537   6.088  12.234  0.3777 -1.1613 -0.2439
 5167TIP3   OH239695   4.128   7.315  12.731 -0.1276 -0.3020 -0.9306
 5167TIP3    H139696   4.127   7.290  12.823  0.6289  0.6062 -0.6506
 5167TIP3    H239697   4.087   7.242  12.685 -0.2241 -0.9083  0.0904
 5168TIP3   OH239698   2.598   0.068  11.894  0.2401 -0.5555  0.6941
 5168TIP3    H139699   2.668   0.065  11.959  1.9756  0.4229 -0.9985
 5168TIP3    H239700   2.557   0.154  11.906 -3.0797 -2.3118  3.8666
 5169TIP3   OH239701   3.274   0.785  12.012  0.2419 -0.2985  0.8975
 5169TIP3    H139702   3.231   0.806  11.929  1.1692  0.0489  0.4879
 5169TIP3    H239703   3.223   0.712  12.047 -0.3837 -0.2139  0.2061
 5170TIP3   OH239704   0.194   1.903  12.578 -0.2354 -0.3940 -0.6599
 5170TIP3    H139705   0.227   1.867  12.496  1.2086 -0.7409  0.0515
 5170TIP3    H239706   0.268   1.898  12.639 -1.2040  0.0683  0.6063
 5171TIP3   OH239707   5.673   2.000  12.092 -0.6563 -0.0834 -0.3632
 5171TIP3    H139708   5.727   2.022  12.017 -2.7905  2.4426 -1.3090
 5171TIP3    H239709   5.688   1.906  12.105  0.4491 -0.4493 -3.3805
 5172TIP3   OH239710   2.861   0.664  12.083 -0.7442 -0.5461 -0.0517
 5172TIP3    H139711   2.882   0.752  12.115 -3.3248  0.0473  0.2624
 5172TIP3    H239712   2.945   0.618  12.080  0.4303  1.3469  1.5838
 5173TIP3   OH239713   7.341   6.368  12.402  0.2479  0.4838 -0.2037
 5173TIP3    H139714   7.435   6.381  12.413 -0.1401  3.3676  0.6019
 5173TIP3    H239715   7.320   6.412  12.319 -0.6171  1.5160  0.5334
 5174TIP3   OH239716   6.162   5.760  10.356 -0.0150  0.1082  0.2178
 5174TIP3    H139717   6.188   5.748  10.447 -1.8759 -1.0308  0.6534
 5174TIP3    H239718   6.227   5.821  10.320  0.0104  1.6460  2.6426
 5175TIP3   OH239719   4.615   4.786  10.508 -0.1026  0.0276 -0.1805
 5175TIP3    H139720   4.681   4.853  10.484 -0.6652  1.1171  1.1788
 5175TIP3    H239721   4.665   4.721  10.557 -0.0136  0.9149  0.9611
 5176TIP3   OH239722   5.845   5.715  12.978  0.1767  0.1831  0.2561
 5176TIP3    H139723   5.887   5.793  12.943  0.9069  0.4716  1.7230
 5176TIP3    H239724   5.915   5.651  12.985 -0.3009 -0.4218 -0.3764
 5177TIP3   OH239725   4.509   5.985  12.591  0.0812  0.5868  0.2095
 5177TIP3    H139726   4.510   5.902  12.545 -1.8041 -1.1617  3.0212
 5177TIP3    H239727   4.421   6.019  12.578  0.1421  1.0335  0.9076
 5178TIP3   OH239728   7.366   7.159  12.359 -0.0584 -0.0277 -0.0447
 5178TIP3    H139729   7.420   7.200  12.291  2.0387 -0.4857  1.2489
 5178TIP3    H239730   7.347   7.230  12.420  0.3180 -0.1609  0.2314
 5179TIP3   OH239731   5.434   0.985  11.910  0.3790 -0.1559 -0.0700
 5179TIP3    H139732   5.399   1.055  11.965 -1.9520 -0.5896 -0.8644
 5179TIP3    H239733   5.505   1.026  11.860 -0.2082  1.3290  0.2758
 5180TIP3   OH239734   1.814   1.572  11.587  0.1009 -0.4059  0.0141
 5180TIP3    H139735   1.903   1.558  11.554  0.7507 -0.6148  1.7366
 5180TIP3    H239736   1.800   1.500  11.648 -1.8553 -1.2170 -1.3165
 5181TIP3   OH239737   6.972   0.804  10.700  0.0348  0.3617  0.0949
 5181TIP3    H139738   6.933   0.877  10.748 -0.3893  1.3570 -1.6779
 5181TIP3    H239739   7.061   0.833  10.679  0.8590 -0.7947  1.7427
 5182TIP3   OH239740   2.662   3.366  12.753 -0.0858  0.2249  0.1305
 5182TIP3    H139741   2.736   3.421  12.726 -1.1539  1.9821  0.6112
 5182TIP3    H239742   2.617   3.346  12.671  0.5494 -0.3023 -0.0953
 5183TIP3   OH239743   1.496   5.872  11.328 -0.1602 -0.0064  0.7791
 5183TIP3    H139744   1.453   5.787  11.332 -0.7180  0.1675 -0.7942
 5183TIP3    H239745   1.587   5.853  11.351  0.2532 -1.4915 -1.6347
 5184TIP3   OH239746   0.219   0.583  11.498  0.0835 -0.3088 -0.2530
 5184TIP3    H139747   0.276   0.553  11.569  1.4268  3.0593  0.2910
 5184TIP3    H239748   0.131   0.555  11.524  0.7554 -0.5739  1.9391
 5185TIP3   OH239749   5.754   0.327  12.134 -0.1225  0.1445  0.2450
 5185TIP3    H139750   5.734   0.405  12.081  0.0450 -1.6839 -2.7270
 5185TIP3    H239751   5.671   0.280  12.139 -0.0612  0.1393  1.4341
 5186TIP3   OH239752   6.723   0.057  11.594  0.2227 -0.6134  0.4812
 5186TIP3    H139753   6.692   0.134  11.641  0.3617 -0.8147  0.9074
 5186TIP3    H239754   6.795   0.024  11.648  1.5632  0.1622 -0.7463
 5187TIP3   OH239755   1.343   3.742  11.344 -0.2285  0.4498  0.0639
 5187TIP3    H139756   1.290   3.734  11.423 -0.1618  0.5767  0.1232
 5187TIP3    H239757   1.426   3.780  11.375  0.7136 -1.6706  0.3284
 5188TIP3   OH239758   7.136   6.228  12.463  0.1646  0.2476 -0.1291
 5188TIP3    H139759   7.135   6.182  12.380 -0.9397 -0.0559  0.0299
 5188TIP3    H239760   7.211   6.287  12.458  0.1263  0.2104 -1.3257
 5189TIP3   OH239761   3.551   4.276  12.010  0.0691  0.1713  0.2308
 5189TIP3    H139762   3.634   4.236  12.036 -0.4674 -0.7847  0.5555
 5189TIP3    H239763   3.565   4.306  11.920  0.3620 -1.2115 -0.2067
 5190TIP3   OH239764   6.172   3.618   9.982 -0.6990  0.2602  0.0521
 5190TIP3    H139765   6.090   3.627  10.030 -0.6173  1.4134  0.0083
 5190TIP3    H239766   6.164   3.535   9.936 -1.0880 -0.5130  1.4572
 5191TIP3   OH239767   0.840   1.456  11.275  0.2703  0.2861  0.6999
 5191TIP3    H139768   0.746   1.437  11.282  0.4523 -0.7717  0.4071
 5191TIP3    H239769   0.878   1.416  11.353  0.4147  1.2375  1.1324
 5192TIP3   OH239770   6.059   6.398  11.150  0.4120 -0.3230 -0.1463
 5192TIP3    H139771   6.140   6.440  11.122  0.3249  0.0957  0.2163
 5192TIP3    H239772   6.004   6.397  11.072  0.7497 -0.5807 -0.3849
 5193TIP3   OH239773   7.235   4.925  10.847 -0.0426 -0.8508 -0.1274
 5193TIP3    H139774   7.148   4.957  10.821  0.6313 -0.8971 -2.7345
 5193TIP3    H239775   7.296   4.982  10.801  1.2811 -1.9929  0.1461
 5194TIP3   OH239776   6.917   4.572  11.847 -0.5568 -0.1321  0.5805
 5194TIP3    H139777   6.981   4.596  11.913  0.1420 -1.3610  0.3824
 5194TIP3    H239778   6.833   4.602  11.882  0.2144  2.6654  0.2637
 5195TIP3   OH239779   2.028   1.146  12.499  0.3888 -0.2356  0.4997
 5195TIP3    H139780   2.114   1.112  12.524  1.1925  0.2438 -1.4468
 5195TIP3    H239781   2.032   1.239  12.517  0.7204 -0.0115 -0.6369
 5196TIP3   OH239782   4.664   7.468  11.270  0.6750 -0.5057 -0.3034
 5196TIP3    H139783   4.697   7.557  11.285 -1.0347  0.2212 -0.5960
 5196TIP3    H239784   4.615   7.446  11.349  1.2954 -1.3089 -0.1273
 5197TIP3   OH239785   0.568   1.463  11.338 -0.4211 -0.3376  0.5452
 5197TIP3    H139786   0.537   1.544  11.378  1.6384  0.3174  0.8987
 5197TIP3    H239787   0.527   1.394  11.391 -0.6485  0.4839  1.4653
 5198TIP3   OH239788   7.259   4.549  11.215  0.0062  0.1994 -0.6100
 5198TIP3    H139789   7.345   4.587  11.231  0.0868 -0.0765 -0.3876
 5198TIP3    H239790   7.267   4.458  11.242 -0.6407  0.4283  0.4338
 5199TIP3   OH239791   3.576   3.142  12.778  0.7130 -0.4890  0.0802
 5199TIP3    H139792   3.583   3.109  12.868 -0.1361  2.0788  1.2010
 5199TIP3    H239793   3.483   3.161  12.768  1.0513  0.8161 -0.7153
 5200TIP3   OH239794   2.830   1.972  11.446  0.0553  0.6248 -0.3620
 5200TIP3    H139795   2.789   2.019  11.374 -0.3623  1.2154  0.2499
 5200TIP3    H239796   2.771   1.986  11.520  1.1310  1.1101  0.4254
 5201TIP3   OH239797   5.250   5.219  12.701 -0.3621 -0.5648  0.2387
 5201TIP3    H139798   5.257   5.314  12.692 -0.5893 -0.7003 -1.5952
 5201TIP3    H239799   5.260   5.204  12.795 -0.8780  1.3138  0.6414
 5202TIP3   OH239800   0.630   5.127  10.942  0.1656 -0.1085  0.0177
 5202TIP3    H139801   0.632   5.202  11.002 -0.5126 -0.2945  0.2861
 5202TIP3    H239802   0.722   5.102  10.932  0.3089  0.0752  0.7921
 5203TIP3   OH239803   5.191   7.650  11.281 -0.7071 -0.6761 -0.5094
 5203TIP3    H139804   5.269   7.704  11.295 -0.8315 -0.2737 -1.3070
 5203TIP3    H239805   5.132   7.706  11.231 -0.8701 -1.5260 -1.2966
 5204TIP3   OH239806   6.672   0.973  11.594 -0.3855 -0.1412  0.4180
 5204TIP3    H139807   6.695   0.893  11.640  0.5916  0.2997  0.7098
 5204TIP3    H239808   6.592   1.003  11.637  0.1707 -0.0646  1.4394
 5205TIP3   OH239809   6.774   0.041  12.043  0.0336 -0.4199 -0.7487
 5205TIP3    H139810   6.722   0.109  12.085  0.2032 -0.5418 -0.3326
 5205TIP3    H239811   6.712  -0.032  12.031 -0.5729  0.3590 -2.6694
 5206TIP3   OH239812   0.375   4.312  11.563  0.5637  0.1228 -0.2255
 5206TIP3    H139813   0.320   4.389  11.546  0.5755  0.1325 -0.2208
 5206TIP3    H239814   0.313   4.245  11.591  0.7054  0.5605  1.2325
 5207TIP3   OH239815   3.979   1.176  12.333  0.2364 -0.4153 -0.2943
 5207TIP3    H139816   4.051   1.126  12.296  0.6068 -0.6774  0.7552
 5207TIP3    H239817   3.902   1.121  12.320  0.5547 -1.0296  0.3801
 5208TIP3   OH239818   1.744   3.378  11.234 -0.4302  0.0874 -0.1249
 5208TIP3    H139819   1.830   3.416  11.221 -0.7663 -0.0116 -3.6390
 5208TIP3    H239820   1.685   3.435  11.185 -1.8119 -1.7458 -0.7129
 5209TIP3   OH239821   2.605   4.416   9.911  0.2981  0.1842  0.1590
 5209TIP3    H139822   2.686   4.373   9.882  1.1144  0.0286  2.4237
 5209TIP3    H239823   2.535   4.362   9.875  1.2596 -1.2526  0.3539
 5210TIP3   OH239824   1.680   0.513  12.080 -0.2456 -0.7033 -0.2618
 5210TIP3    H139825   1.665   0.567  12.157 -0.1812 -1.1903  0.0944
 5210TIP3    H239826   1.660   0.570  12.006  0.3019 -0.0363  0.0941
 5211TIP3   OH239827   5.984   5.331  12.554  0.4387 -0.0811  0.5082
 5211TIP3    H139828   5.895   5.325  12.590 -0.9773  0.3341 -2.5808
 5211TIP3    H239829   5.989   5.418  12.516  0.6701 -1.3306 -2.6769
 5212TIP3   OH239830   1.138   6.044  10.812 -0.0872 -0.1366  0.4370
 5212TIP3    H139831   1.089   6.032  10.731  0.0205  0.8325  0.2128
 5212TIP3    H239832   1.230   6.032  10.787  0.0391  1.2927  0.1625
 5213TIP3   OH239833   2.950   3.333  10.770 -0.0792 -0.2059  0.0752
 5213TIP3    H139834   3.037   3.330  10.809  0.1659 -0.0991 -0.4468
 5213TIP3    H239835   2.966   3.358  10.679 -0.5688 -1.1604 -0.2924
 5214TIP3   OH239836   2.364   4.975  12.278 -0.0955 -0.1882  0.0864
 5214TIP3    H139837   2.370   5.069  12.296  1.4243 -0.5246  1.6093
 5214TIP3    H239838   2.286   4.946  12.325  0.2616  0.0773  0.8560
 5215TIP3   OH239839   6.385   1.291  11.414  0.5659  0.5924 -0.4562
 5215TIP3    H139840   6.390   1.277  11.508  0.0714  0.2829 -0.4693
 5215TIP3    H239841   6.428   1.375  11.400 -0.7294  1.4220  0.2560
 5216TIP3   OH239842   6.142   6.155  10.527  0.0133 -0.1635  0.2901
 5216TIP3    H139843   6.175   6.129  10.441  1.2499 -1.0105  0.9909
 5216TIP3    H239844   6.047   6.159  10.516  0.0350 -1.6548 -0.7493
 5217TIP3   OH239845   5.589   0.929  11.352  0.8487  0.4608 -1.0279
 5217TIP3    H139846   5.541   1.011  11.336  1.8825  1.2555 -0.1682
 5217TIP3    H239847   5.591   0.886  11.267 -1.0257  0.5883 -1.1882
 5218TIP3   OH239848   1.107   0.456  11.959 -0.3529  0.1760 -0.4638
 5218TIP3    H139849   1.035   0.466  11.896 -1.0304  0.2452  0.3037
 5218TIP3    H239850   1.069   0.481  12.043 -0.5672 -3.2671  0.6520
 5219TIP3   OH239851   5.383   6.242  11.107  0.2349  0.2853 -0.1214
 5219TIP3    H139852   5.317   6.232  11.039 -0.4872 -1.7757  0.8129
 5219TIP3    H239853   5.371   6.331  11.140 -1.5373  0.2123 -0.5226
 5220TIP3   OH239854   2.067   1.410  12.524  0.2166  0.0885  0.0884
 5220TIP3    H139855   2.136   1.472  12.499 -0.1512  0.7869  0.7519
 5220TIP3    H239856   1.986   1.458  12.510 -0.1188 -0.5549 -0.2108
 5221TIP3   OH239857   4.390   4.911  11.232 -0.1646  0.3655  0.6665
 5221TIP3    H139858   4.437   4.990  11.208 -0.8285  0.3963 -0.5992
 5221TIP3    H239859   4.398   4.854  11.155 -3.2121  0.8568 -0.1215
 5222TIP3   OH239860   6.844   6.620  11.066 -0.1175  0.0481 -0.2076
 5222TIP3    H139861   6.758   6.593  11.098  0.5815 -0.6726  1.1213
 5222TIP3    H239862   6.873   6.687  11.128  1.2457 -1.3514  0.7512
 5223TIP3   OH239863   2.138   3.089  11.238 -0.1754  0.6928 -0.6945
 5223TIP3    H139864   2.106   3.152  11.302  1.0947  0.4052  0.2543
 5223TIP3    H239865   2.232   3.084  11.253 -0.2979 -1.8529 -0.3371
 5224TIP3   OH239866   6.310   4.344  12.102 -0.1067  0.3945  0.1931
 5224TIP3    H139867   6.348   4.264  12.139 -0.5400  0.3612  0.5745
 5224TIP3    H239868   6.240   4.368  12.163 -0.7573  0.4018 -0.5444
 5225TIP3   OH239869   3.158   4.849  11.587 -0.1225  0.1383  0.0532
 5225TIP3    H139870   3.231   4.896  11.548 -0.1731  0.1159 -0.0686
 5225TIP3    H239871   3.112   4.810  11.513  0.1741 -0.4817  0.1875
 5226TIP3   OH239872   3.884   6.020  10.441  0.1264 -1.0565  0.3634
 5226TIP3    H139873   3.960   5.990  10.392  0.1703 -1.0678  0.4384
 5226TIP3    H239874   3.810   6.007  10.381  0.6344  3.1535 -1.5446
 5227TIP3   OH239875   3.944   2.275  10.280 -0.3527 -0.4811 -0.8928
 5227TIP3    H139876   3.898   2.331  10.343 -0.2252  1.2588 -2.2921
 5227TIP3    H239877   4.035   2.276  10.309 -0.3745 -0.0840 -0.8393
 5228TIP3   OH239878   0.644   1.848  12.149  0.7136  1.1638  0.1261
 5228TIP3    H139879   0.584   1.783  12.112  2.2114 -0.8763  1.0897
 5228TIP3    H239880   0.591   1.928  12.156 -1.2812  0.0165 -0.8763
 5229TIP3   OH239881   4.924   5.431  10.387  0.2038 -0.0771 -0.3374
 5229TIP3    H139882   4.902   5.521  10.411  1.3532  0.1157  0.0509
 5229TIP3    H239883   4.932   5.433  10.291 -0.8232 -0.0214 -0.4326
 5230TIP3   OH239884   3.977   0.870  11.484  0.3665  0.2404  0.9819
 5230TIP3    H139885   4.003   0.912  11.566  0.5552  1.4056  0.3505
 5230TIP3    H239886   3.919   0.934  11.442 -0.0807 -0.5282  0.4061
 5231TIP3   OH239887   1.155   5.992  11.951 -0.2927  0.3714 -0.1019
 5231TIP3    H139888   1.148   6.062  11.887  0.9426  0.3680 -0.2749
 5231TIP3    H239889   1.100   5.922  11.917  1.2385 -0.0784 -1.7983
 5232TIP3   OH239890   4.524   3.839  12.455 -0.0140 -0.1478 -0.0477
 5232TIP3    H139891   4.615   3.839  12.484  0.0082 -0.0567 -0.1185
 5232TIP3    H239892   4.528   3.839  12.360 -0.0734 -2.6084 -0.1117
 5233TIP3   OH239893   7.552   4.508  11.882 -0.0207 -0.4533  0.8133
 5233TIP3    H139894   7.639   4.536  11.853  0.4527 -2.3668  0.2927
 5233TIP3    H239895   7.560   4.497  11.977  0.7491 -2.0214  0.5920
 5234TIP3   OH239896   3.638   4.902  10.268 -0.6399  0.0535  0.1545
 5234TIP3    H139897   3.597   4.872  10.186  0.5114  0.5088 -0.6079
 5234TIP3    H239898   3.635   4.825  10.325 -1.7180 -0.1864 -0.1887
 5235TIP3   OH239899   0.771   5.124  12.004 -0.5003 -0.2777  0.2966
 5235TIP3    H139900   0.743   5.211  11.977  2.1057  0.2951 -0.8715
 5235TIP3    H239901   0.756   5.069  11.927 -0.3874 -0.4343  0.3845
 5236TIP3   OH239902   5.437   1.158  11.364 -0.3877 -0.3869 -0.1421
 5236TIP3    H139903   5.398   1.153  11.277 -1.3908 -0.5270  0.3051
 5236TIP3    H239904   5.366   1.187  11.421  0.3970  0.2362  0.5491
 5237TIP3   OH239905   7.409   7.574  10.236  0.6241 -0.1432  0.1855
 5237TIP3    H139906   7.480   7.598  10.295  1.5614  1.3548 -1.4508
 5237TIP3    H239907   7.453   7.532  10.162 -0.0850  1.4231 -1.1781
 5238TIP3   OH239908   0.855   5.670  11.517 -0.1544  0.5321 -0.0609
 5238TIP3    H139909   0.850   5.684  11.422 -1.3669 -0.4653 -0.1563
 5238TIP3    H239910   0.929   5.610  11.528 -0.7970 -0.3723 -0.5177
 5239TIP3   OH239911   3.132   3.334  11.357  0.5500 -0.4228 -0.5743
 5239TIP3    H139912   3.202   3.329  11.291  0.1896 -0.3191 -0.9675
 5239TIP3    H239913   3.052   3.342  11.306  0.0824 -2.1193 -0.1769
 5240TIP3   OH239914   6.741   1.829  10.428 -0.4382  0.4320  0.0384
 5240TIP3    H139915   6.707   1.900  10.373 -1.1307  0.5061  0.5577
 5240TIP3    H239916   6.773   1.764  10.365 -0.3415  0.9347 -0.4489
 5241TIP3   OH239917   2.422   7.217  11.026  0.2829  0.1730  0.0906
 5241TIP3    H139918   2.378   7.244  11.107 -0.1771  0.3249 -0.2000
 5241TIP3    H239919   2.412   7.292  10.968  1.1006  0.2777  0.0771
 5242TIP3   OH239920   7.500   2.076  12.056  0.3064  0.0506 -0.1736
 5242TIP3    H139921   7.508   2.065  11.961 -1.6806  1.7746 -0.6348
 5242TIP3    H239922   7.480   2.169  12.067  0.2239 -0.1697  1.9370
 5243TIP3   OH239923   0.169   4.148  11.589  0.0999  0.1628 -0.3396
 5243TIP3    H139924   0.115   4.149  11.668 -0.6387 -1.3230 -0.7971
 5243TIP3    H239925   0.106   4.148  11.517  0.7229 -0.3104 -0.8995
 5244TIP3   OH239926   1.999   5.715  11.801 -0.3366  0.0222 -0.0300
 5244TIP3    H139927   2.065   5.740  11.865 -0.6140 -0.3952  0.4245
 5244TIP3    H239928   1.962   5.634  11.835 -1.7682  0.7502  0.2222
 5245TIP3   OH239929   6.525   3.162  12.077 -0.1202 -0.2619 -0.7470
 5245TIP3    H139930   6.569   3.236  12.118  0.8025 -0.3660 -1.5113
 5245TIP3    H239931   6.505   3.102  12.149 -1.0648  0.7965 -0.0914
 5246TIP3   OH239932   4.815   6.941  12.654  0.2610  0.4151 -0.2541
 5246TIP3    H139933   4.873   6.888  12.709  0.7194  2.0014  0.8621
 5246TIP3    H239934   4.873   6.976  12.586  0.9784  2.8470  1.4542
 5247TIP3   OH239935   3.939   0.919  10.455 -0.2270 -0.7522  0.0215
 5247TIP3    H139936   4.029   0.885  10.447 -0.1003 -0.1779 -1.1408
 5247TIP3    H239937   3.902   0.908  10.368 -0.2431  1.8992 -0.3870
 5248TIP3   OH239938   2.819   6.530  12.524 -0.1040  0.2564 -0.8927
 5248TIP3    H139939   2.857   6.532  12.612 -1.5374 -1.2232 -0.1898
 5248TIP3    H239940   2.776   6.615  12.514 -1.9831 -0.4144  0.8480
 5249TIP3   OH239941   0.926   4.791  12.392  0.2107 -0.1411  0.2490
 5249TIP3    H139942   0.869   4.822  12.321 -0.6966 -0.4308  0.8299
 5249TIP3    H239943   0.941   4.869  12.446 -0.3639 -0.2446  0.5696
 5250TIP3   OH239944   4.956   2.514  12.811 -0.0797  0.1437  0.2841
 5250TIP3    H139945   4.980   2.605  12.797 -1.6260  0.5907  0.3460
 5250TIP3    H239946   4.871   2.505  12.767  1.0127 -1.8327 -1.5859
 5251TIP3   OH239947   3.790   4.585  11.739 -0.1638  0.0404  0.5164
 5251TIP3    H139948   3.863   4.607  11.680 -1.6738  0.9256 -1.1373
 5251TIP3    H239949   3.784   4.660  11.798 -0.6563  0.6746 -0.3190
 5252TIP3   OH239950   1.053   4.199  12.171  0.1181 -0.3824 -0.1547
 5252TIP3    H139951   0.961   4.195  12.146  0.2570 -1.4255 -0.5252
 5252TIP3    H239952   1.060   4.141  12.247  0.5945 -0.8617 -0.5550
 5253TIP3   OH239953   3.449   0.670  12.170  0.1738 -0.2312  0.5791
 5253TIP3    H139954   3.452   0.704  12.259  0.7303  1.6156 -0.0953
 5253TIP3    H239955   3.381   0.723  12.126  0.0687 -0.9482 -0.1549
 5254TIP3   OH239956   5.497   1.455  10.437  0.0207 -0.2531 -0.4396
 5254TIP3    H139957   5.450   1.426  10.359  0.6324 -1.3779 -0.4175
 5254TIP3    H239958   5.565   1.513  10.404 -0.8578  0.7556 -0.5458
 5255TIP3   OH239959   6.426   4.889  12.309  0.0965 -0.4577  0.7107
 5255TIP3    H139960   6.359   4.850  12.366  0.1144 -0.1467  0.9456
 5255TIP3    H239961   6.405   4.982  12.308 -0.5286 -0.5847 -0.6207
 5256TIP3   OH239962   1.764   4.691  11.406  0.2090 -0.4001  0.3044
 5256TIP3    H139963   1.722   4.763  11.360 -0.9315 -1.0890  0.2352
 5256TIP3    H239964   1.856   4.717  11.412  0.4356 -0.3140 -2.4253
 5257TIP3   OH239965   3.648   7.576  11.729  0.0630  0.2129  0.3852
 5257TIP3    H139966   3.666   7.529  11.647 -1.3909 -1.0624  0.7440
 5257TIP3    H239967   3.713   7.543  11.790  1.5952  1.6747 -0.3997
 5258TIP3   OH239968   5.052   2.688  11.749  0.0303  0.2218 -0.8227
 5258TIP3    H139969   5.068   2.598  11.720 -2.0572 -0.8279  0.9936
 5258TIP3    H239970   5.032   2.736  11.668 -0.1358 -1.2584 -1.6986
 5259TIP3   OH239971   0.226   4.279  11.904 -0.1858 -0.3907  0.3652
 5259TIP3    H139972   0.288   4.206  11.903 -1.1874 -1.2828  0.6376
 5259TIP3    H239973   0.147   4.243  11.863  0.1412  1.3584 -1.9786
 5260TIP3   OH239974   3.854   1.605  12.201  0.3651  0.6570  0.1616
 5260TIP3    H139975   3.887   1.655  12.127  0.7802  0.4527  0.2053
 5260TIP3    H239976   3.762   1.589  12.180  0.2829  1.2482  0.0452
 5261TIP3   OH239977   6.071   5.916  10.746  0.1875 -0.1765 -0.5355
 5261TIP3    H139978   6.059   5.899  10.653  0.1560  1.9582 -0.9726
 5261TIP3    H239979   6.150   5.867  10.769  0.1381 -0.8146 -1.6425
 5262TIP3   OH239980   7.432   6.809  11.221 -0.3295  0.3715 -0.2290
 5262TIP3    H139981   7.475   6.728  11.247 -0.3706  0.5124  0.2776
 5262TIP3    H239982   7.420   6.858  11.302 -1.5092  0.3046 -0.3462
 5263TIP3   OH239983   3.008   7.486  10.471  0.3035  0.6352 -0.2644
 5263TIP3    H139984   3.047   7.570  10.495  2.3021 -0.1690 -0.5436
 5263TIP3    H239985   3.048   7.464  10.387 -0.1388 -0.6165 -0.1660
 5264TIP3   OH239986   1.526   5.587  12.377  0.3271 -0.0950  0.0581
 5264TIP3    H139987   1.531   5.494  12.397  1.1139 -0.4040 -1.4674
 5264TIP3    H239988   1.538   5.630  12.462  1.9278 -1.3570  0.5090
 5265TIP3   OH239989   2.834   3.812  10.898 -0.3557 -0.0222 -0.5662
 5265TIP3    H139990   2.804   3.842  10.984  0.4506 -0.7233 -0.0141
 5265TIP3    H239991   2.761   3.762  10.863 -0.5113 -0.1589 -0.0563
 5266TIP3   OH239992   6.567   6.354  11.454  0.3000 -0.4643  0.2817
 5266TIP3    H139993   6.487   6.362  11.401  1.0593  1.7418 -0.6190
 5266TIP3    H239994   6.537   6.369  11.544 -0.1763  1.5548 -0.1665
 5267TIP3   OH239995   2.426   1.217  10.757  0.5875  0.7405 -0.1264
 5267TIP3    H139996   2.362   1.282  10.787  0.5333 -0.0117  1.5151
 5267TIP3    H239997   2.503   1.231  10.812  1.3863  0.8090 -1.2331
 5268TIP3   OH239998   0.856   0.840  12.431 -0.6194  0.0283 -0.2436
 5268TIP3    H139999   0.793   0.768  12.430 -0.2093 -0.3402  0.1075
 5268TIP3    H240000   0.817   0.906  12.373 -0.8098 -0.6421 -0.9068
 5269TIP3   OH240001   1.392   3.993  11.880 -0.0484  0.3854  0.2245
 5269TIP3    H140002   1.449   4.049  11.933  0.1848 -0.3255  0.7290
 5269TIP3    H240003   1.433   3.907  11.881 -0.1403  0.3000 -0.9630
 5270TIP3   OH240004   0.941   6.783  10.333  0.1937 -0.1754 -0.3660
 5270TIP3    H140005   0.968   6.746  10.249 -0.9039 -0.0685 -0.7880
 5270TIP3    H240006   0.968   6.875  10.329 -1.4582  0.3108 -1.3922
 5271TIP3   OH240007   0.826   3.690  12.239 -0.4669  0.5611 -0.5315
 5271TIP3    H140008   0.876   3.640  12.174  0.8005 -2.8971  2.7451
 5271TIP3    H240009   0.735   3.671  12.218 -0.0584 -1.4378 -0.7493
 5272TIP3   OH240010   4.725   1.134  11.064  0.1984  0.3455  0.2154
 5272TIP3    H140011   4.696   1.177  11.145  0.4434  0.6236  0.1532
 5272TIP3    H240012   4.792   1.072  11.093 -0.0628  0.0943  0.2879
 5273TIP3   OH240013   5.531   6.966  10.052 -0.5412 -0.0830  0.1927
 5273TIP3    H140014   5.615   6.935  10.087 -0.7428  0.1247  0.8637
 5273TIP3    H240015   5.472   6.967  10.127 -1.2989 -0.7363 -0.3721
 5274TIP3   OH240016   4.092   4.474  10.633  0.0150 -0.3986  0.2357
 5274TIP3    H140017   4.051   4.528  10.565  0.3287 -1.8537 -1.1575
 5274TIP3    H240018   4.176   4.449  10.597  1.1008  0.4383  2.0290
 5275TIP3   OH240019   6.620   6.544  11.194  0.7077 -0.1687  0.1962
 5275TIP3    H140020   6.555   6.614  11.182  0.9475 -0.1860 -1.4511
 5275TIP3    H240021   6.613   6.520  11.286 -0.5295  0.9079  0.4084
 5276TIP3   OH240022   7.539   6.626   9.990 -0.0038  0.3748  0.2439
 5276TIP3    H140023   7.607   6.691   9.973 -0.0171  0.3333  0.0240
 5276TIP3    H240024   7.476   6.671  10.046  0.6146  0.1548  1.1303
 5277TIP3   OH240025   1.362   7.191  10.426 -0.3867  0.0627 -0.3634
 5277TIP3    H140026   1.454   7.215  10.433 -0.5096  0.2411  0.9205
 5277TIP3    H240027   1.315   7.275  10.431 -0.7395 -0.2067  2.4267
 5278TIP3   OH240028   1.347   2.052  10.583  0.1930  0.0679  0.4694
 5278TIP3    H140029   1.293   2.115  10.630  0.8311  0.6825  0.3987
 5278TIP3    H240030   1.361   2.091  10.497  0.8175 -0.0280  0.5176
 5279TIP3   OH240031   3.946   4.636  10.865 -0.7749  0.1477 -0.1473
 5279TIP3    H140032   3.949   4.559  10.808 -3.3286 -0.2798  0.1727
 5279TIP3    H240033   3.863   4.679  10.843 -0.5335  1.4820  1.3575
 5280TIP3   OH240034   1.498   2.875  10.291 -0.1541 -0.2406  0.3123
 5280TIP3    H140035   1.528   2.959  10.256  1.6515 -0.9710  0.0120
 5280TIP3    H240036   1.454   2.832  10.217 -0.8558  0.3087  0.3990
 5281TIP3   OH240037   3.348   1.295  12.427 -0.4204 -0.0032 -0.1492
 5281TIP3    H140038   3.356   1.390  12.441  3.4510 -0.4654  2.4333
 5281TIP3    H240039   3.298   1.287  12.346 -2.1338  4.1442  0.2385
 5282TIP3   OH240040   4.538   1.153   9.939  0.3154  0.0341 -0.2279
 5282TIP3    H140041   4.517   1.153  10.032  0.2444  0.0777 -0.2443
 5282TIP3    H240042   4.617   1.207   9.932  2.1935 -2.4557  0.2522
 5283TIP3   OH240043   4.933   5.665  12.944  0.2106  0.1884  0.0503
 5283TIP3    H140044   5.020   5.701  12.925 -0.2195  1.3865  0.2333
 5283TIP3    H240045   4.910   5.703  13.029  0.4681 -1.9661  1.1394
 5284TIP3   OH240046   0.057   3.588  10.484 -0.4842 -0.0073 -0.6342
 5284TIP3    H140047   0.076   3.504  10.527 -1.1552  0.7446  1.2510
 5284TIP3    H240048  -0.007   3.567  10.417 -1.3288 -0.9111  0.4140
 5285TIP3   OH240049   0.241   4.618  12.425  0.6726 -0.1380 -0.6394
 5285TIP3    H140050   0.236   4.528  12.456  0.1901  0.5817  1.5192
 5285TIP3    H240051   0.276   4.610  12.336 -1.0318 -2.5587 -1.2041
 5286TIP3   OH240052   2.952   3.021  12.569 -0.3669  0.1223  0.2951
 5286TIP3    H140053   2.873   3.075  12.575 -1.0914 -0.7620 -0.7846
 5286TIP3    H240054   2.954   2.992  12.478  1.6327  0.7141  0.1038
 5287TIP3   OH240055   6.388   6.693  11.250  0.2624 -0.6416 -0.2955
 5287TIP3    H140056   6.446   6.762  11.217 -0.3832  0.4671  0.8008
 5287TIP3    H240057   6.382   6.710  11.344 -0.1210 -2.0600 -0.0411
 5288TIP3   OH240058   2.876   5.042  12.172 -0.8863  0.3607 -0.3806
 5288TIP3    H140059   2.807   5.027  12.107  0.3299 -0.1739 -1.6009
 5288TIP3    H240060   2.944   4.978  12.150 -0.2868  0.4096  1.2190
 5289TIP3   OH240061   4.119   7.145  10.687 -0.8850 -0.7117 -0.3623
 5289TIP3    H140062   4.101   7.189  10.603 -0.6072  2.3177  1.0424
 5289TIP3    H240063   4.072   7.197  10.752 -0.8843 -2.8312  1.4334
 5290TIP3   OH240064   1.105   0.897  10.183 -0.4234 -0.0821  0.1065
 5290TIP3    H140065   1.042   0.888  10.111 -1.2368  0.6309  0.6977
 5290TIP3    H240066   1.111   0.992  10.197 -1.1977 -0.2379  1.7316
 5291TIP3   OH240067   5.553   1.437  10.028 -0.2206  0.5875  0.0314
 5291TIP3    H140068   5.491   1.443   9.955 -1.1991  3.1758  0.9852
 5291TIP3    H240069   5.499   1.450  10.106  1.3603  1.9318  0.9489
 5292TIP3   OH240070   3.079   5.872  11.569 -0.4282  0.0217  0.1283
 5292TIP3    H140071   3.152   5.872  11.506 -0.0715  0.2921  0.5333
 5292TIP3    H240072   3.082   5.785  11.610 -0.3276  0.0353  0.1496
 5293TIP3   OH240073   2.296   3.960  12.416  0.0719 -0.2756 -0.4243
 5293TIP3    H140074   2.304   3.868  12.440  0.5642 -0.7973 -2.3971
 5293TIP3    H240075   2.345   3.967  12.334 -1.2461  1.4044 -1.1149
 5294TIP3   OH240076   7.196   2.686  12.593  0.1622 -0.2323  0.3304
 5294TIP3    H140077   7.227   2.610  12.544  2.4175 -0.6125  2.1859
 5294TIP3    H240078   7.125   2.652  12.648  0.6944 -0.8522  0.6426
 5295TIP3   OH240079   7.479   7.193  11.299 -0.7037 -0.6839  0.2274
 5295TIP3    H140080   7.452   7.249  11.372  0.3610  1.8053 -1.1803
 5295TIP3    H240081   7.423   7.220  11.226  0.2647 -1.0135 -0.6625
 5296TIP3   OH240082   7.452   0.267  11.544  0.0415  0.1517 -0.1683
 5296TIP3    H140083   7.365   0.303  11.557 -0.3600 -0.9592  0.3888
 5296TIP3    H240084   7.453   0.236  11.454  0.3602  1.4181 -0.6236
 5297TIP3   OH240085   6.125   6.918  10.899 -0.2477  0.1392 -0.2404
 5297TIP3    H140086   6.111   6.833  10.857 -0.5953  0.7983 -1.4938
 5297TIP3    H240087   6.039   6.942  10.934 -0.1808  0.0431 -0.0071
 5298TIP3   OH240088   3.907   5.735  10.499  0.5670  0.3377 -0.1765
 5298TIP3    H140089   3.904   5.641  10.482 -1.2391  0.4972 -0.9574
 5298TIP3    H240090   3.969   5.744  10.572  1.9852 -1.2696 -1.1045
 5299TIP3   OH240091   1.366   7.329  11.994  0.1301 -0.4385  0.7298
 5299TIP3    H140092   1.453   7.366  12.008  1.0008 -2.4602  0.8802
 5299TIP3    H240093   1.307   7.390  12.040  1.2750  1.6139 -0.3557
 5300TIP3   OH240094   0.763   4.606  11.519 -0.6408 -0.0151 -0.2301
 5300TIP3    H140095   0.814   4.598  11.439 -1.8945 -0.1253 -1.0472
 5300TIP3    H240096   0.808   4.674  11.569  0.5527 -0.4290 -0.7025
 5301TIP3   OH240097   7.099   4.201  12.947  0.1785  0.1264  0.1943
 5301TIP3    H140098   7.007   4.177  12.954 -0.8270  2.0177 -3.6914
 5301TIP3    H240099   7.146   4.118  12.954 -1.6304 -0.8112  2.9772
 5302TIP3   OH240100   4.523   3.240  11.257  0.2427  0.4167 -0.1114
 5302TIP3    H140101   4.431   3.228  11.233 -0.1503  0.2774  1.3197
 5302TIP3    H240102   4.528   3.330  11.290  0.8357  0.7281 -1.0033
 5303TIP3   OH240103   6.205   6.465  11.492 -0.0181 -0.4494 -0.2293
 5303TIP3    H140104   6.245   6.442  11.408  2.1412  0.6371  0.4184
 5303TIP3    H240105   6.205   6.560  11.493 -2.0018 -0.4107  0.1669
 5304TIP3   OH240106   2.560   0.553  12.417  0.4624 -0.6261  0.1757
 5304TIP3    H140107   2.556   0.459  12.433 -1.3141 -0.3229  1.9869
 5304TIP3    H240108   2.562   0.592  12.505  1.7171  1.0291 -0.5344
 5305TIP3   OH240109   1.384   3.443  12.473  0.1605 -0.4879 -0.1786
 5305TIP3    H140110   1.433   3.484  12.401 -1.9064  2.4154 -0.1180
 5305TIP3    H240111   1.450   3.425  12.540  1.5081  0.9615 -1.0473
 5306TIP3   OH240112   3.419   1.218  12.009 -0.0123 -0.1288  0.8204
 5306TIP3    H140113   3.392   1.141  12.060 -1.7412 -0.6374 -0.7779
 5306TIP3    H240114   3.514   1.208  12.000 -0.0624 -1.5302  1.4844
 5307TIP3   OH240115   0.901   3.379  10.343 -0.2593 -0.2882 -0.6281
 5307TIP3    H140116   0.941   3.308  10.292 -0.3526 -2.1847  1.7238
 5307TIP3    H240117   0.888   3.449  10.280  1.4962 -1.6889 -2.7339
 5308TIP3   OH240118   6.447   4.632  11.111  0.2704  0.6608  0.0118
 5308TIP3    H140119   6.463   4.612  11.019 -0.9030  0.5965 -0.1850
 5308TIP3    H240120   6.472   4.551  11.157 -2.1626 -0.5284 -0.5710
 5309TIP3   OH240121   0.882   6.110  11.853 -0.6616  0.6757 -0.4901
 5309TIP3    H140122   0.815   6.119  11.786  0.5625 -2.3063 -2.3193
 5309TIP3    H240123   0.965   6.121  11.806  0.2307 -1.1023  0.5685
 5310TIP3   OH240124   4.593   4.193  12.147  0.5239 -0.0025  0.1326
 5310TIP3    H140125   4.550   4.275  12.122  1.3172 -0.6920 -4.2929
 5310TIP3    H240126   4.530   4.125  12.124  1.5716 -0.7776 -0.4956
 5311TIP3   OH240127   5.414   1.647  11.018  0.2470  0.0716 -0.1674
 5311TIP3    H140128   5.338   1.688  11.061  0.2160  0.4108 -0.5386
 5311TIP3    H240129   5.434   1.571  11.072  1.2840  1.4298  1.4522
 5312TIP3   OH240130   4.322   5.689  11.832  0.4348  0.2152  0.1213
 5312TIP3    H140131   4.315   5.678  11.927 -1.0594  0.4116  0.0509
 5312TIP3    H240132   4.344   5.602  11.799  2.1603  0.3741  0.7157
 5313TIP3   OH240133   6.854   2.993  12.824  0.4594  0.3255  0.4063
 5313TIP3    H140134   6.837   2.981  12.731  0.9160 -1.2860  0.5019
 5313TIP3    H240135   6.781   2.951  12.868  1.9879 -2.1485  0.7654
 5314TIP3   OH240136   7.394   0.308  10.749 -0.5103  0.5289 -0.0336
 5314TIP3    H140137   7.400   0.403  10.741 -0.9046  0.5062 -0.7150
 5314TIP3    H240138   7.472   0.275  10.705 -1.0759  0.5058 -1.0596
 5315TIP3   OH240139   0.767   4.270  12.079  0.8548 -0.8296 -0.5417
 5315TIP3    H140140   0.807   4.331  12.141  0.6418 -2.1188  0.8968
 5315TIP3    H240141   0.786   4.309  11.993  0.5227  1.3796  0.3081
 5316TIP3   OH240142   1.906   3.428  10.588  0.3100  0.1144  0.4396
 5316TIP3    H140143   1.980   3.372  10.614  0.7393 -0.0016 -0.9595
 5316TIP3    H240144   1.871   3.386  10.509  0.3489  1.5766 -0.3744
 5317TIP3   OH240145   2.775   0.219  11.313  0.2833 -0.1647  0.5597
 5317TIP3    H140146   2.734   0.300  11.342  0.6443  0.3268 -0.2744
 5317TIP3    H240147   2.704   0.155  11.314 -0.8857  0.9244 -2.0126
 5318TIP3   OH240148   5.874   5.666  11.281 -0.5411 -0.5619  0.3007
 5318TIP3    H140149   5.902   5.755  11.260  0.5387 -1.0310 -0.3721
 5318TIP3    H240150   5.943   5.610  11.244 -1.1989 -1.6752  0.7022
 5319TIP3   OH240151   6.256   7.461   9.746 -0.0331  0.3217  0.0746
 5319TIP3    H140152   6.240   7.498   9.833 -2.4316 -0.6190  0.1010
 5319TIP3    H240153   6.314   7.386   9.762  1.1479  1.3070  0.5713
 5320TIP3   OH240154   5.958   1.985  10.951 -0.4376  0.1819  0.5357
 5320TIP3    H140155   5.963   2.081  10.954 -0.2582  0.1862  0.1624
 5320TIP3    H240156   5.956   1.959  11.043  0.5217  0.4976  0.6596
 5321TIP3   OH240157   4.369   3.102  10.903 -0.0181  0.8298  0.0012
 5321TIP3    H140158   4.305   3.111  10.833 -0.6895  0.7091  0.5798
 5321TIP3    H240159   4.323   3.134  10.981  0.1084 -0.6261  0.7103
 5322TIP3   OH240160   4.169   2.561  12.527 -0.1685  0.0963  0.8942
 5322TIP3    H140161   4.167   2.615  12.448 -1.0759 -1.0764  0.0736
 5322TIP3    H240162   4.077   2.542  12.546  0.0840 -0.3619  1.7314
 5323TIP3   OH240163   5.437   6.631  12.944 -0.2641 -0.4406  0.7306
 5323TIP3    H140164   5.483   6.686  13.008  0.0817 -0.9300  0.9157
 5323TIP3    H240165   5.345   6.638  12.968 -0.4403  1.4160 -0.3138
 5324TIP3   OH240166   1.072   6.148  11.399 -0.0396 -0.1640  0.0435
 5324TIP3    H140167   1.114   6.230  11.375 -0.1331  0.2089  1.1172
 5324TIP3    H240168   0.978   6.168  11.400 -0.0626 -0.2809  0.3171
 5325TIP3   OH240169   1.789   2.074  12.591 -0.1358  0.0436 -0.1232
 5325TIP3    H140170   1.711   2.019  12.603  0.6144 -0.7597  1.3430
 5325TIP3    H240171   1.862   2.013  12.601  0.6985  1.0429 -0.0890
 5326TIP3   OH240172   4.068   1.446  12.286 -0.1947  0.4891  0.4537
 5326TIP3    H140173   4.029   1.359  12.274 -0.9027  0.9915 -1.2019
 5326TIP3    H240174   3.996   1.507  12.271  0.7472  1.3959 -0.6035
 5327TIP3   OH240175   1.610   3.872  10.861  0.1452 -0.2460 -0.3224
 5327TIP3    H140176   1.566   3.952  10.832 -2.0707 -0.8973  0.9807
 5327TIP3    H240177   1.589   3.865  10.954  0.9396 -1.9505 -0.2321
 5328TIP3   OH240178   4.916   5.097  11.640  0.0123  0.1708  0.2992
 5328TIP3    H140179   5.005   5.062  11.649 -0.1987 -0.0442  2.0354
 5328TIP3    H240180   4.859   5.026  11.670 -0.8292  0.0069 -1.5884
 5329TIP3   OH240181   4.891   5.362  11.768  0.0568  0.1630 -0.3735
 5329TIP3    H140182   4.886   5.293  11.702 -0.1527  1.3122 -1.5897
 5329TIP3    H240183   4.959   5.332  11.828 -2.4140 -2.8474  1.2523
 5330TIP3   OH240184   5.197   1.142  11.485 -0.1246  0.1689  0.1003
 5330TIP3    H140185   5.186   1.047  11.480  0.4584  0.0344  1.0965
 5330TIP3    H240186   5.188   1.162  11.578 -1.6802  1.2909 -0.2628
 5331TIP3   OH240187   5.983   7.656  12.803  0.0577  0.4409  0.2526
 5331TIP3    H140188   5.958   7.580  12.750  1.1934  0.8605 -0.9443
 5331TIP3    H240189   6.054   7.624  12.859  1.1608  0.7992 -0.8899
 5332TIP3   OH240190   5.801   0.355  11.287 -0.3172 -0.4252  0.4638
 5332TIP3    H140191   5.783   0.426  11.227 -0.8496 -0.3648  0.6931
 5332TIP3    H240192   5.897   0.356  11.297 -0.1317 -0.9760 -1.0253
 5333TIP3   OH240193   7.330   7.451  11.971  0.1137  0.2565 -0.5589
 5333TIP3    H140194   7.303   7.495  12.052 -0.0684  0.0655 -0.5161
 5333TIP3    H240195   7.425   7.443  11.979 -0.0904 -1.5227  0.5291
 5334TIP3   OH240196   7.526   1.272  11.201 -0.7212  0.7397 -0.3004
 5334TIP3    H140197   7.447   1.323  11.186 -0.1188  1.9497  0.5212
 5334TIP3    H240198   7.517   1.239  11.291  0.3325  2.1086  0.3481
 5335TIP3   OH240199   6.176   6.927  11.976  0.1200  0.5787  0.2777
 5335TIP3    H140200   6.145   6.888  12.058 -0.3997  1.2833  0.4215
 5335TIP3    H240201   6.103   6.918  11.915  0.1385  0.9655  0.1935
 5336TIP3   OH240202   5.457   4.524  11.860 -0.3126 -0.7658  0.2493
 5336TIP3    H140203   5.395   4.463  11.821 -0.7047 -0.6219  0.6396
 5336TIP3    H240204   5.448   4.511  11.954 -0.0055 -0.4912  0.3189
 5337TIP3   OH240205   2.561   3.928  10.615  0.1269 -0.2949 -0.2793
 5337TIP3    H140206   2.484   3.905  10.667  0.4113 -0.6381 -0.0011
 5337TIP3    H240207   2.527   3.944  10.527 -0.4843  1.1617  0.1917
 5338TIP3   OH240208   6.825   2.011  12.591  0.4061  0.7308 -0.0832
 5338TIP3    H140209   6.805   1.918  12.584  0.2929  0.6856  0.6748
 5338TIP3    H240210   6.765   2.054  12.531 -0.5304  0.4241  0.6028
 5339TIP3   OH240211   6.157   5.571  11.748  0.5398 -0.6048  0.4234
 5339TIP3    H140212   6.063   5.559  11.764  0.4982  0.2556  0.8880
 5339TIP3    H240213   6.162   5.605  11.659  0.3460  0.1167  0.6843
 5340TIP3   OH240214   1.668   2.095  10.623  0.1158  0.6815 -0.5231
 5340TIP3    H140215   1.757   2.065  10.641 -0.3484 -0.4784 -0.1051
 5340TIP3    H240216   1.651   2.069  10.533 -0.5881 -1.1275  0.1024
 5341TIP3   OH240217   1.394   7.666  11.298  0.1967  0.1867  0.2722
 5341TIP3    H140218   1.480   7.623  11.297  0.3975  0.3902  3.0381
 5341TIP3    H240219   1.411   7.753  11.334 -0.9020  1.0177 -1.0904
 5342TIP3   OH240220   0.957   7.540  12.545 -0.5846 -0.7934  0.4870
 5342TIP3    H140221   0.899   7.527  12.470 -1.2338 -0.2784  0.8962
 5342TIP3    H240222   1.044   7.517  12.511 -0.3735  2.1106 -1.2715
 5343TIP3   OH240223   5.068   5.576  11.505 -0.1363  0.4825  0.3105
 5343TIP3    H140224   4.979   5.572  11.540  0.0268 -1.0893  0.5865
 5343TIP3    H240225   5.057   5.566  11.410 -0.1347 -2.6343  0.5325
 5344TIP3   OH240226   3.164   0.770  11.329 -0.8895  0.2167 -0.0612
 5344TIP3    H140227   3.142   0.677  11.328  2.1761 -0.5892 -1.3954
 5344TIP3    H240228   3.245   0.776  11.380 -0.9341  2.1554 -0.1235
 5345TIP3   OH240229   7.322   6.042  11.804  0.1527  0.3689  0.5287
 5345TIP3    H140230   7.301   6.135  11.801 -0.7249  0.2263 -3.6423
 5345TIP3    H240231   7.418   6.039  11.807  0.2245  1.4714 -0.1692
 5346TIP3   OH240232   0.581   2.882  10.551 -0.0484 -0.3032 -0.1225
 5346TIP3    H140233   0.627   2.813  10.599 -0.7523 -0.3500  0.5190
 5346TIP3    H240234   0.646   2.919  10.492  1.1808  0.4959  1.6518
 5347TIP3   OH240235   5.152   5.681  10.878 -0.5167  0.8546 -0.4275
 5347TIP3    H140236   5.113   5.618  10.939  0.0021 -0.9762 -1.9008
 5347TIP3    H240237   5.078   5.726  10.839 -0.8498  2.8476  2.2326
 5348TIP3   OH240238   6.419   2.173  11.808 -0.1720 -0.2484  0.4185
 5348TIP3    H140239   6.486   2.152  11.872 -0.7658  1.0280  1.5084
 5348TIP3    H240240   6.385   2.258  11.835 -1.2582 -0.2113 -0.9194
 5349TIP3   OH240241   4.205   0.003  11.718 -0.0574 -0.3035 -0.4417
 5349TIP3    H140242   4.276   0.043  11.668  0.1870 -0.9175 -0.6007
 5349TIP3    H240243   4.131   0.063  11.709  0.2666  0.0464 -0.7683
 5350TIP3   OH240244   3.034   5.557  10.768 -0.4790  0.1610 -0.0527
 5350TIP3    H140245   3.098   5.587  10.704  0.2534 -0.9025  0.1500
 5350TIP3    H240246   3.056   5.606  10.848 -0.2024  0.1357 -0.1108
 5351TIP3   OH240247   2.990   4.600  10.162 -0.1174 -0.8043  0.3066
 5351TIP3    H140248   2.991   4.549  10.081 -1.0154 -0.2129 -0.0893
 5351TIP3    H240249   2.939   4.547  10.223 -0.4030 -0.7290  0.1331
 5352TIP3   OH240250   7.134   2.189  11.997  0.1011  0.3297 -0.0859
 5352TIP3    H140251   7.076   2.118  11.971  0.6065 -0.4535  0.8809
 5352TIP3    H240252   7.117   2.202  12.090 -0.2586  1.7477 -0.3232
 5353TIP3   OH240253   0.429   4.244  12.991 -1.2308 -0.0488 -0.0029
 5353TIP3    H140254   0.386   4.323  13.024  1.7180  0.7742  2.2446
 5353TIP3    H240255   0.495   4.277  12.930  0.6679 -0.5738  1.6594
 5354TIP3   OH240256   0.564   1.632  11.761  0.1117 -0.3664  0.3450
 5354TIP3    H140257   0.492   1.659  11.705  1.3371  0.6605 -0.8204
 5354TIP3    H240258   0.610   1.714  11.782  1.7612 -1.1123 -0.1546
 5355TIP3   OH240259   3.629   5.989  11.128  0.1377 -0.1752 -0.0648
 5355TIP3    H140260   3.678   5.923  11.177  1.1664 -0.2998 -1.2097
 5355TIP3    H240261   3.643   6.070  11.177  1.5026 -0.2158 -0.3283
 5356TIP3   OH240262   2.653   3.281  10.034  0.1905  0.8583  0.0401
 5356TIP3    H140263   2.680   3.190  10.029  0.3811  0.9526 -0.8432
 5356TIP3    H240264   2.557   3.279  10.031  0.1322  0.6178  1.4776
 5357TIP3   OH240265   4.554   6.977  10.695 -0.5373  0.1742 -0.1255
 5357TIP3    H140266   4.647   6.975  10.672 -0.7185 -0.1789 -0.8935
 5357TIP3    H240267   4.512   7.018  10.619 -1.2385 -1.6297 -0.7861
 5358TIP3   OH240268   5.598   0.645  12.420  0.4306  0.0996 -0.2020
 5358TIP3    H140269   5.640   0.597  12.491  0.2533  0.6449  0.2798
 5358TIP3    H240270   5.652   0.627  12.343  1.4466  0.6422  0.3737
 5359TIP3   OH240271   2.365   6.148  10.201 -0.0854  0.0214 -0.0519
 5359TIP3    H140272   2.356   6.193  10.285 -1.1200  1.2922 -0.8098
 5359TIP3    H240273   2.289   6.176  10.150  0.3237 -1.0181 -1.2913
 5360TIP3   OH240274   5.043   6.698  12.023 -0.1606  0.2798 -0.5201
 5360TIP3    H140275   4.970   6.711  11.963 -1.4224 -0.0358  0.9097
 5360TIP3    H240276   5.075   6.610  12.003 -1.4292 -0.3475  0.1524
 5361TIP3   OH240277   4.397   7.353  10.973  0.1160  0.3503 -0.4946
 5361TIP3    H140278   4.325   7.409  10.947  0.5651  0.6948 -1.0405
 5361TIP3    H240279   4.470   7.413  10.990  0.0571  0.0752  0.8670
 5362TIP3   OH240280   3.763   5.717  11.050 -0.3496  0.5882 -0.2320
 5362TIP3    H140281   3.818   5.759  11.116 -0.5542 -0.0699  0.3634
 5362TIP3    H240282   3.819   5.651  11.009 -0.7888 -0.3429  0.6357
 5363TIP3   OH240283   5.298   1.000  12.660 -0.2166 -0.0965 -0.2274
 5363TIP3    H140284   5.262   0.915  12.635 -0.6728 -0.4294  1.4375
 5363TIP3    H240285   5.230   1.063  12.637 -1.0156 -0.4951  0.9799
 5364TIP3   OH240286   6.991   6.272  11.147  0.1613 -0.9272 -0.4583
 5364TIP3    H140287   6.935   6.325  11.204 -0.2298 -0.4919 -1.2457
 5364TIP3    H240288   6.967   6.297  11.058  1.6929 -0.6384 -0.8178
 5365TIP3   OH240289   6.925   7.498   9.500  0.0973 -0.6327  0.2559
 5365TIP3    H140290   6.830   7.503   9.490  0.1360 -1.0568 -0.3834
 5365TIP3    H240291   6.954   7.440   9.430  0.7907 -0.8210  0.6792
 5366TIP3   OH240292   5.983   2.589  12.426  0.0294  0.1588 -0.3898
 5366TIP3    H140293   6.016   2.504  12.458 -0.3788  0.3272  0.5250
 5366TIP3    H240294   5.904   2.567  12.377  0.3499 -0.0567 -0.8157
 5367TIP3   OH240295   1.956   0.956  11.707  0.0657 -0.2931  0.1529
 5367TIP3    H140296   2.037   0.999  11.734  0.1988  0.6432 -1.6299
 5367TIP3    H240297   1.981   0.898  11.636 -0.7472 -0.3670 -0.0838
 5368TIP3   OH240298   1.410   1.008  12.591  0.2734  0.3514  0.4578
 5368TIP3    H140299   1.352   0.933  12.585  0.8915 -0.3913  2.7139
 5368TIP3    H240300   1.351   1.084  12.590 -0.5715 -0.2850  0.5713
 5369TIP3   OH240301   2.699   4.256  11.277  0.0651  0.0869 -0.0360
 5369TIP3    H140302   2.606   4.243  11.294  0.1521  1.3655  1.6925
 5369TIP3    H240303   2.741   4.181  11.320 -0.0454  0.8473  1.4918
 5370TIP3   OH240304   6.902   1.556  12.540 -0.3002 -0.6041  0.4442
 5370TIP3    H140305   6.925   1.487  12.479 -0.9357 -0.8167  0.4373
 5370TIP3    H240306   6.962   1.544  12.614  0.3630 -0.4427 -0.0614
 5371TIP3   OH240307   0.499   3.554  11.168 -0.2949  0.1208 -0.0709
 5371TIP3    H140308   0.467   3.595  11.087 -0.0689 -0.3434 -0.4000
 5371TIP3    H240309   0.575   3.607  11.193 -0.8281  0.7480  0.2824
 5372TIP3   OH240310   6.296   0.502  12.571 -0.1030  0.2153  0.0832
 5372TIP3    H140311   6.339   0.552  12.502  0.6478  1.6957  1.5537
 5372TIP3    H240312   6.343   0.419  12.573  0.7245  0.6592 -0.3128
 5373TIP3   OH240313   1.637   3.107  12.592 -0.4407  0.0498 -0.3622
 5373TIP3    H140314   1.603   3.065  12.513  0.5049 -0.5919 -0.4406
 5373TIP3    H240315   1.580   3.075  12.662  0.4897 -1.7145 -0.3605
 5374TIP3   OH240316   7.112   3.803  11.353 -0.7750  0.1768  0.0791
 5374TIP3    H140317   7.069   3.884  11.377 -0.3111  1.0207 -1.7731
 5374TIP3    H240318   7.042   3.748  11.318 -0.9082  0.1995  0.3085
 5375TIP3   OH240319   2.175   2.252  12.452 -0.1524  0.5308  0.3116
 5375TIP3    H140320   2.134   2.190  12.513 -1.2515 -0.3832 -1.2833
 5375TIP3    H240321   2.177   2.335  12.500 -3.1314  0.4288  0.8069
 5376TIP3   OH240322   3.848   2.704  12.156 -0.2237 -0.8849 -0.3459
 5376TIP3    H140323   3.880   2.626  12.111  1.0286 -1.3404  1.2474
 5376TIP3    H240324   3.821   2.672  12.242 -0.1005  0.3638  0.1764
 5377TIP3   OH240325   2.799   4.659  10.779 -0.7142  0.6405  0.2645
 5377TIP3    H140326   2.851   4.650  10.699 -3.1393  0.1788 -1.3452
 5377TIP3    H240327   2.784   4.753  10.788 -2.1925  0.5638 -1.0651
 5378TIP3   OH240328   4.876   6.716  12.225 -0.8894  0.6907  0.1570
 5378TIP3    H140329   4.829   6.633  12.213  0.5382 -0.1770  0.3079
 5378TIP3    H240330   4.935   6.721  12.150 -0.6006  1.3134  0.4226
 5379TIP3   OH240331   6.086   0.508  12.274 -0.0780 -0.5071  0.2978
 5379TIP3    H140332   6.181   0.498  12.275  0.2399  1.9501  0.6962
 5379TIP3    H240333   6.069   0.567  12.201 -1.2699 -0.7109  0.3952
 5380TIP3   OH240334   4.602   4.981  11.888 -0.1707 -0.1396 -0.3540
 5380TIP3    H140335   4.515   5.018  11.874 -0.5434 -0.7995  0.1187
 5380TIP3    H240336   4.657   5.055  11.911 -0.1542  0.5874 -2.4988
 5381TIP3   OH240337   5.865   0.834  11.123  0.4850  0.2992 -0.0399
 5381TIP3    H140338   5.863   0.881  11.207  1.6772 -0.9864  0.7466
 5381TIP3    H240339   5.841   0.744  11.146 -0.7716  0.2581 -1.3603
 5382TIP3   OH240340   0.169   3.441  11.200  0.1753  0.2736 -0.0267
 5382TIP3    H140341   0.232   3.477  11.137 -2.0116  1.0674 -1.9247
 5382TIP3    H240342   0.218   3.433  11.281  2.5370  1.4098 -1.2267
 5383TIP3   OH240343   2.588   2.400  10.403 -0.0190  0.4978  0.0439
 5383TIP3    H140344   2.543   2.426  10.483  0.0011 -1.3163  0.6755
 5383TIP3    H240345   2.527   2.341  10.359  0.4216  0.6041 -0.7347
 5384TIP3   OH240346   2.915   6.304  10.073  0.3063  0.2153  0.4631
 5384TIP3    H140347   2.886   6.373  10.012 -0.7518 -0.3736  0.2747
 5384TIP3    H240348   2.838   6.287  10.128  0.1392 -1.6691 -0.2963
 5385TIP3   OH240349   3.459   0.110  12.698 -0.0585  0.1676  0.0847
 5385TIP3    H140350   3.441   0.036  12.639  0.0709 -0.2259  0.5307
 5385TIP3    H240351   3.553   0.126  12.688  0.3733 -1.1540  1.5854
 5386TIP3   OH240352   3.422   1.958  12.058  0.9232  0.4088 -0.1355
 5386TIP3    H140353   3.464   2.005  11.987  1.7565  1.2716  0.8973
 5386TIP3    H240354   3.494   1.925  12.112  0.3412 -1.1673 -0.2510
 5387TIP3   OH240355   1.053   7.531  11.548  0.1664 -0.4419 -0.4160
 5387TIP3    H140356   0.964   7.528  11.583  0.0795 -1.2180 -0.6856
 5387TIP3    H240357   1.101   7.466  11.598  0.7280  0.3481  0.0919
 5388TIP3   OH240358   4.128   3.958  12.119 -0.0198 -0.0409 -0.2918
 5388TIP3    H140359   4.135   4.045  12.158 -1.5111  0.1596 -0.4007
 5388TIP3    H240360   4.200   3.908  12.159 -1.7077 -0.0181  3.1951
 5389TIP3   OH240361   5.027   3.267  11.583  0.5029 -1.1491 -0.0060
 5389TIP3    H140362   4.962   3.199  11.560 -1.8075  0.6857  0.6885
 5389TIP3    H240363   4.977   3.349  11.582  1.7464 -0.0291  4.7003
 5390TIP3   OH240364   3.676   7.486  12.079  0.2797  0.6919 -0.0752
 5390TIP3    H140365   3.759   7.486  12.126 -0.1873 -0.4500  0.7910
 5390TIP3    H240366   3.684   7.415  12.015 -0.0093  0.6079 -0.0216
 5391TIP3   OH240367   6.996   5.372   5.099  0.2107 -0.4829  0.0126
 5391TIP3    H140368   7.042   5.333   5.024 -0.1028  0.1132 -0.5016
 5391TIP3    H240369   6.945   5.300   5.135 -1.6342 -0.2463 -1.9226
 5392TIP3   OH240370   5.601   4.062   6.701 -0.4713  0.3087  0.5795
 5392TIP3    H140371   5.509   4.084   6.690 -0.1663  1.0090 -0.8250
 5392TIP3    H240372   5.602   3.991   6.765 -2.3841 -2.8543 -2.5426
 5393TIP3   OH240373   3.713   0.560   5.782  0.1813  0.6582  0.0930
 5393TIP3    H140374   3.723   0.473   5.743 -1.4332  0.0633  0.9155
 5393TIP3    H240375   3.738   0.549   5.874  0.8037  1.2763  0.0074
 5394TIP3   OH240376   6.501   4.493   4.400 -0.6563 -0.4450  0.7010
 5394TIP3    H140377   6.504   4.587   4.381 -0.0032 -0.8349 -1.4292
 5394TIP3    H240378   6.580   4.476   4.451 -1.0312  0.2233  1.5292
 5395TIP3   OH240379   3.717   2.393   5.410 -0.0285 -0.2560 -0.6494
 5395TIP3    H140380   3.660   2.470   5.418 -0.3193 -0.4331 -0.9926
 5395TIP3    H240381   3.705   2.346   5.492  0.2849  0.1591 -0.3659
 5396TIP3   OH240382   0.338   3.027   5.874 -0.0773  0.1608 -0.6192
 5396TIP3    H140383   0.275   2.955   5.884  0.6539 -0.7442 -2.2569
 5396TIP3    H240384   0.340   3.068   5.960 -1.1746 -1.2300  0.1173
 5397TIP3   OH240385   5.860   3.630   3.727  0.1067 -0.4350 -0.2016
 5397TIP3    H140386   5.843   3.718   3.694 -1.0154 -1.2590 -2.0263
 5397TIP3    H240387   5.951   3.633   3.758  0.5720  0.9905 -1.5624
 5398TIP3   OH240388   7.453   4.325   5.127  0.3698  0.4175 -0.5969
 5398TIP3    H140389   7.368   4.294   5.097 -0.4027  4.0588 -2.7447
 5398TIP3    H240390   7.514   4.303   5.057  0.5359  0.6454 -0.5272
 5399TIP3   OH240391   5.211   2.167   5.530 -0.5782 -0.1330 -0.0267
 5399TIP3    H140392   5.227   2.105   5.601  0.6742  0.1396 -0.0541
 5399TIP3    H240393   5.254   2.248   5.559 -0.1768  0.0248 -1.0246
 5400TIP3   OH240394   5.833   5.128   5.678  0.0845  0.3057  0.5488
 5400TIP3    H140395   5.797   5.189   5.613 -1.6286  0.4865  1.6032
 5400TIP3    H240396   5.917   5.166   5.702  0.7966  0.1932 -1.5828
 5401TIP3   OH240397   4.460   7.453   4.884 -0.3813 -0.4217 -0.5004
 5401TIP3    H140398   4.368   7.436   4.904 -0.0309  0.7148  2.7828
 5401TIP3    H240399   4.459   7.520   4.817 -2.0203  0.5323  0.4189
 5402TIP3   OH240400   4.756   6.343   5.956  0.3398 -0.0589  0.0381
 5402TIP3    H140401   4.718   6.419   5.999 -1.0479  1.3179 -3.2630
 5402TIP3    H240402   4.682   6.283   5.943  0.9875 -1.0298  0.6827
 5403TIP3   OH240403   4.058   0.478   5.816  0.3033 -0.0457 -0.5302
 5403TIP3    H140404   4.148   0.451   5.797  0.6500  1.3406 -0.9996
 5403TIP3    H240405   4.004   0.421   5.762  1.0171  0.3143 -1.6728
 5404TIP3   OH240406   3.606   4.444   4.263  0.1601 -0.1369 -0.1156
 5404TIP3    H140407   3.698   4.434   4.285  0.0874 -0.5616 -0.0110
 5404TIP3    H240408   3.577   4.357   4.238 -0.0870  0.0899 -0.6453
 5405TIP3   OH240409   0.988   2.617   5.155  0.0483 -0.0542  0.5682
 5405TIP3    H140410   0.911   2.671   5.173  0.5044  0.3053  1.4985
 5405TIP3    H240411   0.954   2.528   5.152 -0.1717 -0.0934  2.7303
 5406TIP3   OH240412   5.428   3.163   5.403 -0.1318 -0.2194  0.2208
 5406TIP3    H140413   5.355   3.225   5.401 -1.0905 -1.2078  1.7647
 5406TIP3    H240414   5.480   3.184   5.326 -1.5857  1.0904 -0.4599
 5407TIP3   OH240415   6.517   4.453   4.094  0.1397 -0.1818 -0.3206
 5407TIP3    H140416   6.446   4.399   4.060 -0.5852 -0.7560  1.9073
 5407TIP3    H240417   6.497   4.462   4.187  2.9760 -0.3305  0.3893
 5408TIP3   OH240418   5.948   1.294   4.062  0.5678 -0.1405  0.0611
 5408TIP3    H140419   5.858   1.269   4.083  0.5473  0.2467  0.4490
 5408TIP3    H240420   5.967   1.250   3.979  0.1382 -0.4947  0.1505
 5409TIP3   OH240421   6.568   7.542   6.170  0.1605  0.2289 -0.4705
 5409TIP3    H140422   6.631   7.598   6.214 -0.3834  0.7031 -0.2914
 5409TIP3    H240423   6.587   7.454   6.203 -0.1942  0.5608  0.6829
 5410TIP3   OH240424   0.944   5.238   6.668  0.5393  0.1471 -0.0770
 5410TIP3    H140425   1.025   5.205   6.707 -0.1536  1.4707  2.7557
 5410TIP3    H240426   0.877   5.176   6.695  0.0038  1.2213  1.1756
 5411TIP3   OH240427   5.440   1.207   4.788  0.1919 -0.0130  0.0245
 5411TIP3    H140428   5.412   1.252   4.708  1.6340  0.2961 -0.3443
 5411TIP3    H240429   5.476   1.124   4.757  1.8141  0.5909  0.1908
 5412TIP3   OH240430   1.953   3.046   4.292  0.5442  0.3839 -0.0490
 5412TIP3    H140431   2.013   3.026   4.220 -0.5413  0.5126 -1.0155
 5412TIP3    H240432   1.930   3.138   4.279  2.8968  1.4598  2.4183
 5413TIP3   OH240433   2.044   7.671   6.338 -0.4778 -0.1249  0.2565
 5413TIP3    H140434   2.032   7.743   6.276  0.8196 -0.4276 -0.3902
 5413TIP3    H240435   1.973   7.681   6.401 -0.3557  1.7155  0.1658
 5414TIP3   OH240436   3.012   6.220   4.494  0.3088 -0.0344  0.2338
 5414TIP3    H140437   3.106   6.215   4.478  0.6914 -0.6267  2.3718
 5414TIP3    H240438   2.985   6.129   4.507 -0.7762  0.0292 -1.2631
 5415TIP3   OH240439   5.941   3.865   5.050  0.1347  0.2997  0.4271
 5415TIP3    H140440   6.019   3.920   5.048  0.2482  0.1149 -0.1545
 5415TIP3    H240441   5.878   3.910   4.994 -0.3456  0.6863  1.2463
 5416TIP3   OH240442   2.590   3.005   3.734 -0.0084  0.3429  0.2387
 5416TIP3    H140443   2.528   3.076   3.751 -0.0194  0.2191  0.7256
 5416TIP3    H240444   2.672   3.050   3.710  0.3150  0.5518  1.6665
 5417TIP3   OH240445   0.876   3.718   4.693  0.0851 -0.1141 -0.2415
 5417TIP3    H140446   0.901   3.806   4.722 -0.2124 -0.2392  0.4070
 5417TIP3    H240447   0.844   3.731   4.603  0.8810  0.2974 -0.4794
 5418TIP3   OH240448   7.272   5.711   5.874 -0.1111 -0.3437  0.7223
 5418TIP3    H140449   7.322   5.708   5.792 -2.6615 -1.7256 -0.8954
 5418TIP3    H240450   7.255   5.804   5.889 -0.6986 -0.1371 -1.0616
 5419TIP3   OH240451   0.064   6.442   4.815 -0.1560 -0.2627 -0.2090
 5419TIP3    H140452  -0.001   6.376   4.838  0.9405 -0.6497  2.0006
 5419TIP3    H240453   0.086   6.484   4.898  1.5606  0.6572 -1.0840
 5420TIP3   OH240454   6.833   6.694   4.930 -0.0345  0.2726  0.1881
 5420TIP3    H140455   6.896   6.690   5.002 -0.2286 -0.7297  0.3177
 5420TIP3    H240456   6.750   6.714   4.972 -0.0103  0.4478  0.1532
 5421TIP3   OH240457   1.194   6.233   6.285 -0.4545  0.6520 -0.2527
 5421TIP3    H140458   1.122   6.200   6.232 -1.0975 -0.0990  1.0353
 5421TIP3    H240459   1.213   6.162   6.346  1.2151  0.9408 -0.4044
 5422TIP3   OH240460   6.192   5.519   5.359  0.2996  0.2811 -0.4838
 5422TIP3    H140461   6.251   5.530   5.434 -0.8642 -3.0074  1.1072
 5422TIP3    H240462   6.238   5.460   5.300  0.4272  1.3589 -1.4880
 5423TIP3   OH240463   1.468   4.794   5.324 -0.0928 -0.4335 -0.0047
 5423TIP3    H140464   1.398   4.810   5.388  1.2941  1.0790  1.2211
 5423TIP3    H240465   1.451   4.857   5.254 -0.8916 -1.2266 -0.5437
 5424TIP3   OH240466   6.342   1.352   5.454  0.1275 -0.4690  0.5873
 5424TIP3    H140467   6.312   1.407   5.382  1.2474  1.2397  1.3860
 5424TIP3    H240468   6.401   1.289   5.413 -0.1220 -0.2463 -0.1333
 5425TIP3   OH240469   3.354   2.388   5.436 -0.1734  0.5253  0.8266
 5425TIP3    H140470   3.343   2.429   5.350  0.2593  0.4783  0.7486
 5425TIP3    H240471   3.300   2.309   5.432  0.9235 -0.2203  0.1050
 5426TIP3   OH240472   5.562   5.569   4.769 -0.2820  0.2220  0.2779
 5426TIP3    H140473   5.595   5.635   4.830  0.5589 -1.2663  1.5336
 5426TIP3    H240474   5.498   5.519   4.821 -0.6555 -0.1695 -0.5392
 5427TIP3   OH240475   6.343   3.726   5.003 -0.1301  0.2839 -0.0360
 5427TIP3    H140476   6.373   3.773   5.080 -1.8242  0.1328  0.7598
 5427TIP3    H240477   6.331   3.793   4.936 -2.4461  1.0652  1.0594
 5428TIP3   OH240478   2.848   6.989   5.157  0.1250  0.3907 -0.2851
 5428TIP3    H140479   2.770   6.979   5.103  0.6699  3.3241 -1.7942
 5428TIP3    H240480   2.913   6.930   5.118 -0.5056 -0.0272 -0.7072
 5429TIP3   OH240481   4.750   0.467   5.902 -0.8569 -0.5379 -0.1769
 5429TIP3    H140482   4.689   0.482   5.829 -0.4684 -0.4158 -0.4795
 5429TIP3    H240483   4.775   0.375   5.892  0.1373 -0.2072 -0.9373
 5430TIP3   OH240484   7.248   1.444   4.708 -0.1675  0.4065 -0.7518
 5430TIP3    H140485   7.339   1.473   4.712 -0.5711  1.7825 -0.9522
 5430TIP3    H240486   7.253   1.352   4.682  1.1798  0.2649 -0.0760
 5431TIP3   OH240487   5.058   3.799   4.429  0.2289 -0.3608 -0.0345
 5431TIP3    H140488   4.968   3.779   4.407  0.3618  0.3781 -1.3736
 5431TIP3    H240489   5.093   3.718   4.466 -0.8625 -0.7616  0.1409
 5432TIP3   OH240490   3.795   0.725   3.870  0.5175  0.1642  0.2196
 5432TIP3    H140491   3.818   0.637   3.899  0.3187 -0.0490 -0.2669
 5432TIP3    H240492   3.877   0.764   3.842  0.5985  0.1221  0.3949
 5433TIP3   OH240493   5.731   5.124   5.944 -0.8114 -0.1866 -0.0516
 5433TIP3    H140494   5.769   5.104   5.858  0.5201 -1.0570  0.6971
 5433TIP3    H240495   5.721   5.038   5.985 -1.6511  0.2096  0.5819
 5434TIP3   OH240496   1.119   6.273   5.042  0.0769  0.1445  0.0970
 5434TIP3    H140497   1.204   6.234   5.061 -0.2244 -0.7998 -0.4281
 5434TIP3    H240498   1.139   6.361   5.009  1.0252 -0.8941 -2.3257
 5435TIP3   OH240499   6.304   2.761   6.665 -0.7228 -0.8779 -0.4479
 5435TIP3    H140500   6.215   2.792   6.680 -1.3922 -3.4436  1.5939
 5435TIP3    H240501   6.299   2.666   6.676  2.1788 -1.1916 -0.8840
 5436TIP3   OH240502   4.634   2.288   5.817 -0.3045  0.1615  0.2327
 5436TIP3    H140503   4.700   2.274   5.884  0.2044 -0.4690 -0.3901
 5436TIP3    H240504   4.682   2.324   5.742 -0.3874 -1.6442 -0.7450
 5437TIP3   OH240505   3.639   1.426   4.503  0.5152  0.6693 -0.3920
 5437TIP3    H140506   3.636   1.447   4.410  0.3066 -2.8140 -1.2991
 5437TIP3    H240507   3.548   1.431   4.532  0.7161  3.0364  0.0649
 5438TIP3   OH240508   6.204   4.707   4.115 -0.0491 -0.3467  0.1752
 5438TIP3    H140509   6.148   4.783   4.103 -1.1592 -1.4094 -1.9068
 5438TIP3    H240510   6.144   4.635   4.130  0.9183 -1.0416  0.8251
 5439TIP3   OH240511   1.047   5.159   5.774  0.4725 -0.2812  0.3192
 5439TIP3    H140512   1.047   5.087   5.837  1.0616 -1.1062 -0.5902
 5439TIP3    H240513   1.104   5.128   5.703 -1.0778  0.1364 -1.1567
 5440TIP3   OH240514   4.040   2.650   6.013 -0.0270  0.2420 -0.1473
 5440TIP3    H140515   4.024   2.601   5.933  2.0278 -1.5916  0.4480
 5440TIP3    H240516   4.058   2.739   5.984 -0.5346 -0.0997 -1.5851
 5441TIP3   OH240517   6.835   4.317   6.251  0.1608 -0.4059 -0.0338
 5441TIP3    H140518   6.876   4.245   6.298  0.5816 -0.4155 -0.4031
 5441TIP3    H240519   6.908   4.375   6.228 -0.2200  0.3533  0.6260
 5442TIP3   OH240520   2.648   4.704   3.700 -0.1100 -0.3183 -0.6282
 5442TIP3    H140521   2.627   4.732   3.611 -2.1926  1.6877  0.4053
 5442TIP3    H240522   2.594   4.627   3.715 -0.9165  0.2470 -0.5996
 5443TIP3   OH240523   7.080   4.336   4.663  0.3084 -0.1690 -0.2252
 5443TIP3    H140524   7.110   4.369   4.748  1.5056 -2.0578  0.1373
 5443TIP3    H240525   6.990   4.309   4.678 -0.7804  2.8806 -0.5715
 5444TIP3   OH240526   7.285   3.261   5.865  0.5552 -0.1049  0.2294
 5444TIP3    H140527   7.234   3.340   5.882 -0.1935  0.1289 -2.6744
 5444TIP3    H240528   7.302   3.262   5.771  1.4316 -2.8733  0.2549
 5445TIP3   OH240529   4.044   7.002   4.220 -0.5230 -0.4273  0.0589
 5445TIP3    H140530   3.955   7.036   4.212  0.1050  1.2726 -0.2053
 5445TIP3    H240531   4.034   6.916   4.261 -2.4868 -1.5011 -2.4120
 5446TIP3   OH240532   5.820   4.066   5.837 -0.5144 -0.0609 -0.3287
 5446TIP3    H140533   5.828   4.038   5.746 -0.0102 -1.4581  0.1271
 5446TIP3    H240534   5.807   3.985   5.886  0.8627  0.5071  1.0286
 5447TIP3   OH240535   1.894   3.796   4.123  0.1023 -0.4446 -0.2889
 5447TIP3    H140536   1.935   3.882   4.132  0.0387 -0.3540 -0.8381
 5447TIP3    H240537   1.801   3.812   4.140 -0.2239 -0.0370 -2.2839
 5448TIP3   OH240538   3.154   0.929   4.343  0.3464 -0.4331  0.8908
 5448TIP3    H140539   3.211   0.955   4.270 -1.3055 -2.1238 -1.1180
 5448TIP3    H240540   3.164   0.834   4.349 -2.0167 -0.7555  0.6365
 5449TIP3   OH240541   0.676   4.488   5.411  0.0946 -0.1076  0.2115
 5449TIP3    H140542   0.702   4.396   5.413 -1.9555 -0.7251  1.9731
 5449TIP3    H240543   0.650   4.504   5.320 -0.9828 -1.7449  0.1938
 5450TIP3   OH240544   5.828   6.195   6.039 -0.2843  0.6013 -0.3603
 5450TIP3    H140545   5.868   6.276   6.071  0.5331 -0.4370  1.3775
 5450TIP3    H240546   5.841   6.198   5.944  2.0307  1.3323 -0.0846
 5451TIP3   OH240547   2.043   0.838   4.311 -0.0781 -0.4525  0.0889
 5451TIP3    H140548   2.012   0.848   4.221  0.5244 -0.8949 -0.1765
 5451TIP3    H240549   2.131   0.800   4.301  0.8399  1.3975  0.7845
 5452TIP3   OH240550   2.151   1.031   4.533 -0.3962  0.2827 -0.0231
 5452TIP3    H140551   2.098   0.956   4.508 -0.6604  0.1444  0.9273
 5452TIP3    H240552   2.210   1.044   4.459 -1.9247  0.6205 -1.2296
 5453TIP3   OH240553   4.915   2.232   5.495 -0.5125  0.9105 -0.4930
 5453TIP3    H140554   5.007   2.209   5.510 -0.6558  1.5230  1.6511
 5453TIP3    H240555   4.876   2.152   5.460  0.7210  0.5032 -1.0006
 5454TIP3   OH240556   6.385   3.437   5.087 -0.1414  0.4854 -0.4709
 5454TIP3    H140557   6.394   3.519   5.039  0.4758  0.0950 -1.0384
 5454TIP3    H240558   6.474   3.410   5.106 -0.2960 -0.5842 -1.2019
 5455TIP3   OH240559   7.654   2.706   4.037 -0.0233  0.4337 -0.1230
 5455TIP3    H140560   7.746   2.727   4.020 -0.4228  0.7360 -2.2263
 5455TIP3    H240561   7.645   2.614   4.013 -0.2815  0.3953  0.1110
 5456TIP3   OH240562   5.181   6.586   6.623  0.1792  0.3831  0.4286
 5456TIP3    H140563   5.197   6.653   6.557 -0.1367 -1.2506 -1.3684
 5456TIP3    H240564   5.253   6.524   6.613 -1.1525 -1.1468 -0.0710
 5457TIP3   OH240565   3.662   4.702   5.082  0.2397 -0.0035  0.0896
 5457TIP3    H140566   3.590   4.642   5.061  1.1803 -0.8621 -0.7700
 5457TIP3    H240567   3.633   4.786   5.047 -0.3724 -0.3354 -0.2299
 5458TIP3   OH240568   4.826   1.787   5.425  0.2111  0.0095  0.6752
 5458TIP3    H140569   4.750   1.753   5.377  0.1968 -2.5354  2.2987
 5458TIP3    H240570   4.821   1.882   5.414 -0.8987 -0.3076 -2.5785
 5459TIP3   OH240571   1.879   1.400   4.106 -0.1985  0.7743 -0.3621
 5459TIP3    H140572   1.929   1.344   4.166  0.2492 -0.7206 -2.0371
 5459TIP3    H240573   1.939   1.471   4.083  0.5625 -0.0428 -0.9760
 5460TIP3   OH240574   2.856   3.897   4.954 -0.4468  0.6154 -0.6051
 5460TIP3    H140575   2.810   3.978   4.932  1.7122  2.2893  0.6295
 5460TIP3    H240576   2.895   3.869   4.871  0.5759  2.1125 -0.6715
 5461TIP3   OH240577   4.029   1.571   5.133 -0.2520 -0.0495  0.3752
 5461TIP3    H140578   4.062   1.620   5.208 -0.6221 -3.3735  2.9418
 5461TIP3    H240579   4.085   1.597   5.060  1.6786  1.6090  2.3200
 5462TIP3   OH240580   0.155   2.590   4.875 -0.0860  0.3738 -0.1341
 5462TIP3    H140581   0.121   2.661   4.930 -2.8074  0.1909 -1.3910
 5462TIP3    H240582   0.136   2.619   4.786  3.0226  0.0889 -0.9750
 5463TIP3   OH240583   1.233   5.128   5.579 -0.2345  0.1057  0.9784
 5463TIP3    H140584   1.300   5.170   5.633  0.6220 -0.6811  0.5529
 5463TIP3    H240585   1.215   5.191   5.510  2.1576 -0.7402 -0.5501
 5464TIP3   OH240586   0.920   1.305   4.530  0.0936 -0.5987 -0.1519
 5464TIP3    H140587   0.833   1.286   4.567 -0.3043  0.6841 -0.3661
 5464TIP3    H240588   0.932   1.239   4.463 -2.1062  0.9779 -2.2646
 5465TIP3   OH240589   1.373   4.067   3.864  0.6686 -0.0754 -0.6387
 5465TIP3    H140590   1.289   4.031   3.893  0.7693 -0.9016 -1.3099
 5465TIP3    H240591   1.388   4.143   3.920 -1.4131  1.2022 -1.6744
 5466TIP3   OH240592   0.624   4.715   4.819  0.3583  0.5479  0.3170
 5466TIP3    H140593   0.596   4.733   4.729 -0.6201 -0.6701  0.3423
 5466TIP3    H240594   0.714   4.683   4.810 -0.2406 -1.0427 -0.4321
 5467TIP3   OH240595   5.625   4.699   4.708 -0.2551 -0.8942 -0.3080
 5467TIP3    H140596   5.530   4.691   4.701 -0.2394 -0.9143 -0.5182
 5467TIP3    H240597   5.654   4.718   4.618  0.0802 -2.3963 -0.5405
 5468TIP3   OH240598   0.532   2.833   4.785  0.6816  0.4041 -0.6283
 5468TIP3    H140599   0.504   2.832   4.876  1.8207  2.0145 -0.2208
 5468TIP3    H240600   0.603   2.769   4.781 -0.1667 -0.5588 -0.6918
 5469TIP3   OH240601   0.738   2.711   4.447 -0.0766 -0.3567 -0.2085
 5469TIP3    H140602   0.722   2.616   4.449 -0.3050 -0.3130  0.0413
 5469TIP3    H240603   0.658   2.749   4.483 -0.0814 -0.0553 -0.5359
 5470TIP3   OH240604   6.906   7.554   5.600  0.0300  0.6736  0.7450
 5470TIP3    H140605   6.840   7.620   5.622 -1.1025 -0.3707  0.5913
 5470TIP3    H240606   6.860   7.471   5.610  0.2919  0.0008 -2.6045
 5471TIP3   OH240607   7.115   0.240   5.109  0.7489 -0.0342  0.2463
 5471TIP3    H140608   7.026   0.262   5.082  0.1976 -0.2475  1.7651
 5471TIP3    H240609   7.135   0.302   5.180  1.8690  0.0997 -0.1651
 5472TIP3   OH240610   1.250   0.219   5.838 -0.0123  0.3180 -0.3140
 5472TIP3    H140611   1.271   0.310   5.817  0.9169  0.4903  1.1761
 5472TIP3    H240612   1.297   0.167   5.773 -1.0119  0.8938 -1.5245
 5473TIP3   OH240613   3.073   3.310   5.669  0.0784  0.2762  0.4685
 5473TIP3    H140614   3.067   3.403   5.690  0.0962  0.2269  0.6909
 5473TIP3    H240615   3.156   3.282   5.707  0.9215  0.5603 -1.1011
 5474TIP3   OH240616   6.013   4.636   5.664 -0.4480  0.0376  0.3979
 5474TIP3    H140617   5.967   4.718   5.647 -1.8921 -0.8950 -0.3665
 5474TIP3    H240618   5.945   4.576   5.692  0.4671 -1.1429  0.1598
 5475TIP3   OH240619   4.524   5.644   5.390 -0.0882  0.1220 -0.3249
 5475TIP3    H140620   4.436   5.608   5.400  0.2890 -0.5390  0.8008
 5475TIP3    H240621   4.511   5.737   5.376 -1.0699 -0.3421 -2.9089
 5476TIP3   OH240622   4.964   4.194   5.137  0.5781  0.4256 -0.5445
 5476TIP3    H140623   4.982   4.099   5.136 -0.8236  0.1472 -1.0156
 5476TIP3    H240624   4.905   4.206   5.211 -1.4564  0.4717 -2.1014
 5477TIP3   OH240625   5.847   6.506   3.763  0.3651  0.1997  0.3325
 5477TIP3    H140626   5.878   6.420   3.790 -0.5403 -0.0729  0.5341
 5477TIP3    H240627   5.890   6.567   3.823  0.0823 -0.2149  0.9733
 5478TIP3   OH240628   7.404   4.391   4.426  0.2929  0.2592 -0.4368
 5478TIP3    H140629   7.444   4.477   4.420 -0.7029  0.6448 -2.0057
 5478TIP3    H240630   7.392   4.363   4.335 -1.8984 -0.3243 -0.0261
 5479TIP3   OH240631   3.738   1.720   5.194 -0.0122  0.9198 -0.9764
 5479TIP3    H140632   3.749   1.625   5.190 -2.2788  0.5505 -0.0260
 5479TIP3    H240633   3.657   1.733   5.242  1.3576  3.4286  0.9036
 5480TIP3   OH240634   0.142   4.851   5.165 -0.2709  0.4226  0.1948
 5480TIP3    H140635   0.108   4.940   5.170 -1.9238 -0.2339  1.6356
 5480TIP3    H240636   0.093   4.803   5.232  0.7817 -1.5053 -0.3529
 5481TIP3   OH240637   5.919   6.372   5.317 -0.0134  0.0197  0.1209
 5481TIP3    H140638   6.013   6.361   5.300  0.8506  3.3122  1.8362
 5481TIP3    H240639   5.880   6.380   5.231  1.6415  0.7072 -0.6204
 5482TIP3   OH240640   4.877   2.569   4.622 -0.2336  0.2411  0.0481
 5482TIP3    H140641   4.809   2.585   4.688 -1.2530  0.2974 -0.9744
 5482TIP3    H240642   4.883   2.473   4.618 -0.2354  0.2360  0.1697
 5483TIP3   OH240643   1.296   2.369   4.448 -0.0423  0.0440  0.1825
 5483TIP3    H140644   1.293   2.276   4.424 -0.4596  0.2128 -0.4288
 5483TIP3    H240645   1.389   2.386   4.462 -0.0369 -0.6960  1.2635
 5484TIP3   OH240646   6.751   3.966   4.195  0.3908 -0.0546 -0.2132
 5484TIP3    H140647   6.765   4.045   4.144  0.2260 -0.3893 -0.7869
 5484TIP3    H240648   6.818   3.969   4.263  0.7219  0.3166 -0.5512
 5485TIP3   OH240649   1.148   3.982   3.983  0.7537  0.0033 -0.2442
 5485TIP3    H140650   1.089   3.957   3.912  0.9503  0.6956 -0.6572
 5485TIP3    H240651   1.140   3.911   4.046 -0.5763  0.0976 -0.2573
 5486TIP3   OH240652   5.657   7.328   5.102 -0.2761 -0.4362 -0.1391
 5486TIP3    H140653   5.586   7.362   5.049  0.8288  0.0436 -1.3639
 5486TIP3    H240654   5.713   7.281   5.040  0.0671 -1.4912  0.9336
 5487TIP3   OH240655   6.401   0.188   3.925 -0.3288 -0.0710  0.9652
 5487TIP3    H140656   6.464   0.117   3.915  0.8454  0.8094  1.7402
 5487TIP3    H240657   6.442   0.263   3.881 -1.5931  0.1136  0.0561
 5488TIP3   OH240658   2.089   3.825   6.209 -0.4586  0.0808  0.5964
 5488TIP3    H140659   2.145   3.834   6.132  0.0404  0.9568  1.0492
 5488TIP3    H240660   2.121   3.747   6.253 -1.7794 -1.3847 -0.8943
 5489TIP3   OH240661   0.926   0.941   5.881  0.3216  0.5409 -0.1613
 5489TIP3    H140662   0.916   0.847   5.895 -0.3328  0.7049  0.5208
 5489TIP3    H240663   0.941   0.977   5.968  0.3740  1.0920 -0.3952
 5490TIP3   OH240664   7.181   4.889   4.514 -0.3361 -0.1881  0.5675
 5490TIP3    H140665   7.226   4.905   4.597 -1.3541 -1.7775  1.4655
 5490TIP3    H240666   7.095   4.855   4.538  0.2872 -3.3163 -1.0658
 5491TIP3   OH240667   1.008   2.204   6.055 -0.4263  0.4504 -0.2610
 5491TIP3    H140668   0.930   2.152   6.033  0.4105 -0.9799  0.0622
 5491TIP3    H240669   0.977   2.265   6.121 -1.0245 -0.9746  0.8332
 5492TIP3   OH240670   5.125   6.056   4.150  0.1280  0.1870  0.6531
 5492TIP3    H140671   5.045   6.007   4.134  0.4556 -0.2995  0.4642
 5492TIP3    H240672   5.107   6.144   4.116 -0.1299 -0.0769  0.1030
 5493TIP3   OH240673   6.970   1.767   6.337  0.2927  0.2453 -0.4319
 5493TIP3    H140674   6.939   1.808   6.256  1.5775 -2.1829 -2.2857
 5493TIP3    H240675   7.019   1.836   6.382 -0.8896  1.7940 -1.4554
 5494TIP3   OH240676   1.495   3.945   4.725 -0.1219 -0.4943 -0.5876
 5494TIP3    H140677   1.460   3.887   4.658 -0.8693  0.2644 -0.8678
 5494TIP3    H240678   1.583   3.910   4.744  1.2737  0.8078 -3.9009
 5495TIP3   OH240679   0.282   0.934   5.356 -0.0516 -0.2707  0.4698
 5495TIP3    H140680   0.194   0.904   5.380  0.5902 -0.7852  2.3581
 5495TIP3    H240681   0.298   1.008   5.415 -0.2216  1.6055 -1.7013
 5496TIP3   OH240682   4.098   2.492   5.772 -0.2397  0.5569 -0.3294
 5496TIP3    H140683   4.105   2.530   5.684  0.8784  1.1176 -0.0193
 5496TIP3    H240684   4.047   2.412   5.760  0.9716 -0.0558 -1.7188
 5497TIP3   OH240685   4.604   2.379   4.939  0.0615 -0.1585 -0.6470
 5497TIP3    H140686   4.692   2.340   4.944  0.1431  0.1324  2.5283
 5497TIP3    H240687   4.545   2.306   4.957 -0.2471 -0.0666 -1.2813
 5498TIP3   OH240688   0.303   6.939   6.646  0.1609 -0.2287  0.2546
 5498TIP3    H140689   0.365   6.904   6.581  1.1519  0.5538  0.7451
 5498TIP3    H240690   0.230   6.878   6.645 -0.4160  0.3646 -2.4499
 5499TIP3   OH240691   5.513   6.689   4.745 -0.0759 -0.1475  0.3736
 5499TIP3    H140692   5.559   6.704   4.662 -0.5370 -0.3422  0.0731
 5499TIP3    H240693   5.439   6.751   4.743 -1.4540 -1.7357 -0.4581
 5500TIP3   OH240694   1.042   5.211   3.990 -0.3567 -0.2577 -0.1054
 5500TIP3    H140695   0.997   5.182   3.911  0.0260 -0.2744 -0.3164
 5500TIP3    H240696   1.079   5.296   3.968  0.0275 -0.4077 -0.0499
 5501TIP3   OH240697   1.472   5.785   4.120  0.6954  0.1670 -0.0293
 5501TIP3    H140698   1.449   5.824   4.036  0.6224 -0.7327 -0.4296
 5501TIP3    H240699   1.567   5.780   4.119  0.7539  0.9985  0.3324
 5502TIP3   OH240700   6.838   5.678   3.895 -0.0239  0.3677  0.4739
 5502TIP3    H140701   6.814   5.606   3.837 -1.1638 -2.2086  3.8598
 5502TIP3    H240702   6.929   5.661   3.918 -0.5468 -0.5729  1.9533
 5503TIP3   OH240703   7.188   1.456   5.238 -0.4554 -0.3163 -0.4265
 5503TIP3    H140704   7.197   1.548   5.213  0.0325 -0.9599 -2.8303
 5503TIP3    H240705   7.098   1.449   5.270  0.1395  1.3807  1.8395
 5504TIP3   OH240706   7.189   3.943   4.842  0.7696  0.9856 -0.3573
 5504TIP3    H140707   7.160   3.948   4.933 -1.1003  0.7334 -0.8943
 5504TIP3    H240708   7.285   3.945   4.847  0.7337  0.0162  1.6576
 5505TIP3   OH240709   1.042   0.623   4.219 -0.8890  0.4345  0.3351
 5505TIP3    H140710   1.101   0.558   4.179 -3.3128 -0.6523 -1.7025
 5505TIP3    H240711   1.041   0.599   4.312 -1.8086 -2.6456 -0.3503
 5506TIP3   OH240712   3.025   2.804   4.198  0.1405  0.1217  0.6471
 5506TIP3    H140713   3.102   2.755   4.169 -0.0682 -0.7882  1.5612
 5506TIP3    H240714   2.952   2.764   4.151 -0.1897 -1.3126  2.2473
 5507TIP3   OH240715   1.788   1.338   5.370  0.5456  0.0903  0.2032
 5507TIP3    H140716   1.823   1.358   5.283  0.2137 -0.9204 -0.1716
 5507TIP3    H240717   1.756   1.248   5.363 -0.1930  0.2704  1.1485
 5508TIP3   OH240718   6.632   0.359   5.840 -0.0858  0.1515 -0.3580
 5508TIP3    H140719   6.677   0.359   5.924 -0.8838 -2.5679  0.1560
 5508TIP3    H240720   6.540   0.348   5.862 -0.7180  2.5063 -1.5240
 5509TIP3   OH240721   2.682   3.417   4.306  0.1448 -0.3212  0.7716
 5509TIP3    H140722   2.659   3.434   4.397 -1.5562 -0.2536  0.3549
 5509TIP3    H240723   2.663   3.498   4.260 -0.0740 -0.7088  0.1610
 5510TIP3   OH240724   6.132   6.004   4.084 -0.1796 -0.4842 -0.1494
 5510TIP3    H140725   6.151   5.953   4.162 -2.1736 -1.2849 -0.1481
 5510TIP3    H240726   6.059   5.959   4.042  0.1798  0.4952 -1.9489
 5511TIP3   OH240727   5.640   2.034   4.548  0.8221 -0.3400  0.2210
 5511TIP3    H140728   5.703   2.048   4.618  0.9115  1.3611 -0.1673
 5511TIP3    H240729   5.677   2.081   4.473 -0.9967  0.9129  0.0542
 5512TIP3   OH240730   1.716   3.632   5.468 -0.2170  0.5786 -0.5657
 5512TIP3    H140731   1.764   3.599   5.544 -0.4051 -0.0376 -0.7008
 5512TIP3    H240732   1.628   3.594   5.477 -0.2256  0.4578 -1.1129
 5513TIP3   OH240733   6.616   4.683   5.840  0.0247  0.2644  0.7465
 5513TIP3    H140734   6.707   4.653   5.835  0.1588  0.7069  0.4856
 5513TIP3    H240735   6.622   4.778   5.837 -0.5177  0.2735 -0.5670
 5514TIP3   OH240736   7.033   0.498   4.515  0.1286 -0.4982 -0.0390
 5514TIP3    H140737   7.046   0.439   4.441 -0.9686  0.3273 -0.9401
 5514TIP3    H240738   7.113   0.551   4.518  1.2734 -2.2012  1.0023
 5515TIP3   OH240739   0.621   1.790   5.424 -0.8168  0.3434 -0.6071
 5515TIP3    H140740   0.633   1.715   5.366  0.4769  0.5184 -0.5893
 5515TIP3    H240741   0.621   1.752   5.512 -0.2686  0.3469 -0.6033
 5516TIP3   OH240742   7.075   2.242   4.531 -0.1216  0.6138 -0.1972
 5516TIP3    H140743   7.170   2.240   4.523 -0.0323  3.1435 -0.5619
 5516TIP3    H240744   7.059   2.239   4.626  0.3527  0.8074 -0.1091
 5517TIP3   OH240745   1.326   4.532  10.934  0.4399 -0.2887 -0.2887
 5517TIP3    H140746   1.280   4.545  10.850 -0.9947 -2.8899 -0.0068
 5517TIP3    H240747   1.388   4.461  10.916 -0.8608 -1.8581  1.1070
 5518TIP3   OH240748   5.060   6.126   5.907  0.5748  0.2502  0.7243
 5518TIP3    H140749   5.001   6.054   5.886  0.5879  0.8063 -1.4979
 5518TIP3    H240750   5.148   6.088   5.899  0.5850  0.4786 -0.5628
 5519TIP3   OH240751   6.786   0.294   4.607 -0.1562 -0.0235  0.1941
 5519TIP3    H140752   6.781   0.317   4.514  0.9867 -0.8583 -0.0898
 5519TIP3    H240753   6.698   0.312   4.640  0.0836  2.8275 -0.4272
 5520TIP3   OH240754   4.136   6.325   5.036  0.4462  0.6338  0.2565
 5520TIP3    H140755   4.129   6.325   5.132  0.1161  1.4575  0.2417
 5520TIP3    H240756   4.230   6.339   5.019  0.2290  2.5451  0.4717
 5521TIP3   OH240757   4.366   5.927   4.772  0.0641  0.2197 -0.3465
 5521TIP3    H140758   4.309   5.938   4.696 -0.1975 -0.5641 -0.2804
 5521TIP3    H240759   4.336   5.992   4.835 -1.2581 -0.6577 -0.0313
 5522TIP3   OH240760   0.166   4.526   5.862 -0.3571 -0.0033 -0.6618
 5522TIP3    H140761   0.201   4.439   5.883 -0.5698  0.3559  1.3606
 5522TIP3    H240762   0.133   4.559   5.945 -0.3423  2.0037 -1.4104
 5523TIP3   OH240763   0.458   1.996   5.024 -0.0728  0.4427 -0.1275
 5523TIP3    H140764   0.425   1.915   4.985 -1.3527  0.1019  1.5758
 5523TIP3    H240765   0.552   1.981   5.033 -0.2140 -0.6516 -0.3063
 5524TIP3   OH240766   3.476   2.947   3.944  0.1671  0.2034 -0.0321
 5524TIP3    H140767   3.565   2.975   3.924  0.3036 -1.0594 -1.3988
 5524TIP3    H240768   3.457   2.987   4.029  2.0183  0.5125  0.2919
 5525TIP3   OH240769   6.262   0.664   5.736  0.3012 -0.2238 -0.3520
 5525TIP3    H140770   6.347   0.659   5.780 -0.6905  0.2186  1.7655
 5525TIP3    H240771   6.227   0.749   5.764 -2.0673 -1.6437  1.3205
 5526TIP3   OH240772   2.459   2.243   6.001 -0.1715  0.0401 -0.6319
 5526TIP3    H140773   2.404   2.197   5.937  0.1798  0.3941 -1.2039
 5526TIP3    H240774   2.484   2.175   6.064 -1.7852  0.0043  0.0292
 5527TIP3   OH240775   6.095   1.812   6.007 -0.8029 -0.1353 -0.3853
 5527TIP3    H140776   6.128   1.757   5.936 -0.6573 -0.3807 -0.1257
 5527TIP3    H240777   6.174   1.849   6.047 -0.9138  0.9310 -1.0794
 5528TIP3   OH240778   5.995   4.039   3.692  0.4798  0.0831  0.7221
 5528TIP3    H140779   6.086   4.043   3.721  0.8824  0.1813 -0.5145
 5528TIP3    H240780   5.981   4.122   3.646 -0.1148 -0.1200  0.5294
 5529TIP3   OH240781   0.777   2.706  10.634 -0.0142 -0.6587 -0.5954
 5529TIP3    H140782   0.798   2.636  10.696 -0.2194  0.1994  0.4857
 5529TIP3    H240783   0.812   2.785  10.676  0.9783 -0.2094 -2.1851
 5530TIP3   OH240784   7.272   3.473   6.403  0.4131  0.0847  0.2084
 5530TIP3    H140785   7.315   3.478   6.488 -0.2783 -3.0218  0.8387
 5530TIP3    H240786   7.185   3.437   6.421  0.2465 -0.6436 -1.7957
 5531TIP3   OH240787   3.751   0.091   3.716  0.2065 -0.2103  0.9319
 5531TIP3    H140788   3.680   0.032   3.690 -0.1863  0.2111  1.0343
 5531TIP3    H240789   3.828   0.034   3.725  0.4589 -0.3610 -1.4440
 5532TIP3   OH240790   0.285   7.239   5.639  0.3480  0.0126 -0.2906
 5532TIP3    H140791   0.239   7.299   5.698 -1.8213  0.2529 -2.1285
 5532TIP3    H240792   0.225   7.224   5.567  1.9483 -2.1965 -1.2937
 5533TIP3   OH240793   1.025   0.585   4.513  0.7678 -0.2255 -0.2822
 5533TIP3    H140794   0.967   0.526   4.561  0.6215  0.0806 -0.0872
 5533TIP3    H240795   1.069   0.636   4.580  0.1119  0.6312 -0.4972
 5534TIP3   OH240796   2.220   0.619   4.247  0.1096  0.5109 -0.0700
 5534TIP3    H140797   2.137   0.577   4.269  0.1873  0.1761 -0.4183
 5534TIP3    H240798   2.261   0.561   4.183  0.1604  1.1679 -0.6573
 5535TIP3   OH240799   5.731   1.960   5.300 -0.1705 -0.4556  0.8899
 5535TIP3    H140800   5.653   2.011   5.321 -0.2477 -0.2217  0.0794
 5535TIP3    H240801   5.701   1.897   5.234  0.7337  1.0347 -1.0792
 5536TIP3   OH240802   3.050   4.085   4.438  0.1267 -0.3548 -0.4074
 5536TIP3    H140803   2.983   4.133   4.390 -0.1291 -1.6322 -1.3816
 5536TIP3    H240804   3.128   4.141   4.432 -0.3700  0.3139 -0.7994
 5537TIP3   OH240805   7.527   5.573   4.621 -0.0905  0.0965  0.0512
 5537TIP3    H140806   7.470   5.553   4.546  0.8941  0.2474 -0.7693
 5537TIP3    H240807   7.467   5.586   4.694 -1.0261 -1.2903 -0.4183
 5538TIP3   OH240808   1.201   3.604   3.834  0.0671 -0.4833 -0.1655
 5538TIP3    H140809   1.211   3.679   3.775  1.1397 -1.1961 -0.9217
 5538TIP3    H240810   1.115   3.616   3.873  0.2116  1.1462 -0.2653
 5539TIP3   OH240811   7.027   5.044   5.999 -0.0246  0.0834 -0.1392
 5539TIP3    H140812   7.048   5.079   6.086 -1.5027 -1.7401  1.0320
 5539TIP3    H240813   6.999   4.954   6.016 -0.4753 -0.2786 -2.5165
 5540TIP3   OH240814   5.518   1.288   5.501 -0.2639 -0.8309  0.2872
 5540TIP3    H140815   5.602   1.296   5.544  0.6721 -1.6424 -1.2768
 5540TIP3    H240816   5.467   1.230   5.558  0.5354 -1.0097  0.8383
 5541TIP3   OH240817   4.326   5.546   4.462  0.3639 -0.0321  0.7462
 5541TIP3    H140818   4.269   5.562   4.538  0.9321  0.9037  0.9932
 5541TIP3    H240819   4.266   5.539   4.388 -0.2391 -1.4189  1.3322
 5542TIP3   OH240820   1.390   5.634   6.069  0.2571  0.1130  0.1497
 5542TIP3    H140821   1.384   5.539   6.055  1.5389  0.1750 -0.9771
 5542TIP3    H240822   1.324   5.652   6.136  0.1192 -1.6028  0.5294
 5543TIP3   OH240823   7.642   4.569   4.942 -0.2816  0.6677  0.3463
 5543TIP3    H140824   7.557   4.529   4.925 -0.2543 -0.2445  2.1584
 5543TIP3    H240825   7.693   4.502   4.988  1.2268  1.3904 -0.1782
 5544TIP3   OH240826   2.218   7.169   4.176  0.2345 -0.3005  0.2106
 5544TIP3    H140827   2.161   7.246   4.186 -0.2815 -0.7528  0.8122
 5544TIP3    H240828   2.216   7.150   4.082  0.3259  0.3896  0.0642
 5545TIP3   OH240829   0.991   5.597   4.243  0.0334  0.0565 -0.5411
 5545TIP3    H140830   1.073   5.572   4.201  0.2250 -0.9380  0.3859
 5545TIP3    H240831   0.926   5.588   4.173  0.3946 -1.2807 -0.7395
 5546TIP3   OH240832   2.781   1.711   4.518 -0.3961  0.3883  0.1758
 5546TIP3    H140833   2.756   1.626   4.555 -0.6156 -1.2369 -3.3706
 5546TIP3    H240834   2.862   1.734   4.565  0.2593 -2.3004  0.5541
 5547TIP3   OH240835   1.490   5.242   4.268  0.1397  1.0017 -0.1624
 5547TIP3    H140836   1.507   5.332   4.295 -0.6511  0.7947  1.1136
 5547TIP3    H240837   1.394   5.239   4.257  0.1756  0.3380 -0.3078
 5548TIP3   OH240838   5.105   2.312   4.664  0.4303 -0.3712 -0.0516
 5548TIP3    H140839   5.142   2.226   4.641 -1.7077 -2.1062  2.4816
 5548TIP3    H240840   5.012   2.304   4.646  0.0064  1.0019  1.3100
 5549TIP3   OH240841   5.743   2.360   4.497  0.4911  0.2762  0.2124
 5549TIP3    H140842   5.818   2.419   4.500  0.0298  0.9726 -1.2460
 5549TIP3    H240843   5.678   2.406   4.445  0.1628 -1.5696 -1.1088
 5550TIP3   OH240844   5.798   1.662   4.430 -0.4437 -0.3216  0.3181
 5550TIP3    H140845   5.845   1.595   4.480  0.1901  0.1807  0.3999
 5550TIP3    H240846   5.808   1.635   4.339  1.9299  0.9479  0.1306
 5551TIP3   OH240847   0.527   3.551   5.459 -0.3368  0.4947 -0.5900
 5551TIP3    H140848   0.546   3.516   5.372 -0.2700  0.5233 -0.5869
 5551TIP3    H240849   0.599   3.521   5.514 -0.1630  0.8240 -0.6368
 5552TIP3   OH240850   2.035   6.538   5.187 -0.3937  0.7239  0.1987
 5552TIP3    H140851   1.965   6.602   5.177  1.8086  3.1036 -1.2736
 5552TIP3    H240852   2.115   6.590   5.191  1.3611 -1.8467  1.7331
 5553TIP3   OH240853   2.110   2.739   4.452 -0.1645 -0.1291  0.5844
 5553TIP3    H140854   2.037   2.779   4.498  1.4303 -0.0741  3.2662
 5553TIP3    H240855   2.148   2.810   4.400 -1.0046  0.2700  0.5139
 5554TIP3   OH240856   5.753   6.098   4.167 -0.4626  0.3271  0.3478
 5554TIP3    H140857   5.799   6.023   4.128  0.2827  0.4795  0.9044
 5554TIP3    H240858   5.660   6.078   4.157 -0.2701 -0.3163 -0.1850
 5555TIP3   OH240859   0.504   5.809   4.462  0.2444 -0.5193  0.3753
 5555TIP3    H140860   0.420   5.819   4.418 -0.1819  1.5065  1.4908
 5555TIP3    H240861   0.568   5.806   4.392 -0.6817 -1.0720 -0.4665
 5556TIP3   OH240862   6.507   3.967   4.328 -0.5827 -0.1739 -0.0239
 5556TIP3    H140863   6.595   3.974   4.291 -0.3556 -0.9238  0.3437
 5556TIP3    H240864   6.456   3.922   4.260 -0.5088 -0.3520  0.0389
 5557TIP3   OH240865   6.299   5.672   5.557  0.3563  0.2447  0.3723
 5557TIP3    H140866   6.365   5.740   5.548 -0.4253  0.9040 -0.6942
 5557TIP3    H240867   6.215   5.718   5.545 -0.1765 -0.9072 -0.5320
 5558TIP3   OH240868   0.466   7.006   4.002  0.6237 -0.2498 -0.1435
 5558TIP3    H140869   0.477   7.083   3.946 -1.4318 -0.7953 -1.3836
 5558TIP3    H240870   0.379   7.016   4.040 -0.1996 -2.4872 -1.2617
 5559TIP3   OH240871   1.582   7.556   4.195  0.6445 -0.3108  0.2894
 5559TIP3    H140872   1.549   7.641   4.225  1.0836 -0.1591  0.3405
 5559TIP3    H240873   1.513   7.524   4.136  0.4770  0.0786  0.2677
 5560TIP3   OH240874   7.653   2.431   6.581  1.0277 -0.0305 -0.1269
 5560TIP3    H140875   7.612   2.344   6.580  0.1922  0.3547 -0.7300
 5560TIP3    H240876   7.587   2.488   6.621  1.2549  0.4690 -0.4524
 5561TIP3   OH240877   1.097   4.059   5.144  0.3235 -0.4649 -0.1425
 5561TIP3    H140878   1.142   4.027   5.066  1.3250 -0.6747  0.5018
 5561TIP3    H240879   1.161   4.116   5.187 -0.7502  0.8924 -0.2513
 5562TIP3   OH240880   2.796   6.427   4.111  0.0625  0.6343  0.6609
 5562TIP3    H140881   2.780   6.498   4.049  3.6282  0.7903 -0.2796
 5562TIP3    H240882   2.784   6.467   4.197 -1.7408  1.2765  0.1514
 5563TIP3   OH240883   4.929   5.155   4.223 -0.8200 -0.5450  0.4119
 5563TIP3    H140884   4.922   5.084   4.286  0.9540 -0.6499  0.5589
 5563TIP3    H240885   5.018   5.189   4.235 -1.2282  0.9388 -0.4496
 5564TIP3   OH240886   4.882   7.382   4.370  0.5196 -0.2348 -0.5567
 5564TIP3    H140887   4.861   7.380   4.277 -0.6432  0.0958 -0.3139
 5564TIP3    H240888   4.932   7.302   4.385  1.1398 -0.0474 -1.5533
 5565TIP3   OH240889   5.667   3.761   3.962  0.4466 -0.5714 -0.0492
 5565TIP3    H140890   5.720   3.696   3.916  0.6705  0.0282 -0.6535
 5565TIP3    H240891   5.583   3.760   3.916  0.4198 -0.5038 -0.0018
 5566TIP3   OH240892   0.142   3.939   4.737 -0.1514  0.3116 -0.6383
 5566TIP3    H140893   0.054   3.945   4.699  0.5241  0.3567 -2.2580
 5566TIP3    H240894   0.168   4.030   4.752 -0.9575  0.2710  1.3363
 5567TIP3   OH240895   4.924   6.873   4.260 -0.3170  0.2437  0.1960
 5567TIP3    H140896   4.947   6.886   4.168  1.9125  0.2819  0.7201
 5567TIP3    H240897   4.978   6.936   4.308  0.9070 -1.8934  1.7695
 5568TIP3   OH240898   7.023   3.380   6.405 -0.6202 -0.1790 -0.5240
 5568TIP3    H140899   6.960   3.308   6.398  0.7364 -1.3307 -1.4937
 5568TIP3    H240900   7.001   3.437   6.331 -1.6338  0.3893  0.1868
 5569TIP3   OH240901   1.163   4.284   6.050 -0.1806 -0.2526 -0.1605
 5569TIP3    H140902   1.245   4.329   6.033 -1.6024  3.0395  0.9047
 5569TIP3    H240903   1.101   4.323   5.989 -1.3318 -1.5173  0.1500
 5570TIP3   OH240904   1.744   5.190   5.850  0.4251  0.3451 -0.5013
 5570TIP3    H140905   1.731   5.116   5.910  1.1865 -0.5443 -1.4063
 5570TIP3    H240906   1.709   5.265   5.898 -1.6937 -0.8015 -0.1041
 5571TIP3   OH240907   3.485   2.207   6.075 -0.2168 -0.2035  0.0831
 5571TIP3    H140908   3.434   2.205   6.156  1.1522 -0.3947  0.9651
 5571TIP3    H240909   3.423   2.178   6.007 -2.0391  2.0215  0.6470
 5572TIP3   OH240910   0.456   7.277   4.900 -0.2301  0.3376  0.2703
 5572TIP3    H140911   0.439   7.283   4.806 -1.5736  0.9319  0.5311
 5572TIP3    H240912   0.373   7.302   4.941  0.2084 -0.3288  1.6137
 5573TIP3   OH240913   7.121   3.545   5.021  0.9826  0.0712  0.0340
 5573TIP3    H140914   7.030   3.557   4.996  0.9386 -0.2890  0.0068
 5573TIP3    H240915   7.118   3.479   5.091  1.2837 -0.5735 -0.5449
 5574TIP3   OH240916   7.647   5.316   5.013  0.2113  0.7230  0.3051
 5574TIP3    H140917   7.635   5.225   5.041 -0.9363  0.6396 -0.3910
 5574TIP3    H240918   7.593   5.367   5.073 -2.4042  0.5282 -1.6622
 5575TIP3   OH240919   6.567   3.342   5.275  0.1107  0.1881 -0.1931
 5575TIP3    H140920   6.628   3.342   5.201 -0.2409  0.0693 -0.4870
 5575TIP3    H240921   6.516   3.262   5.263  2.2568 -1.6724  2.0322
 5576TIP3   OH240922   2.468   1.744   5.080  0.1201  0.7022 -0.0195
 5576TIP3    H140923   2.414   1.682   5.029  1.5220  2.0056 -3.3931
 5576TIP3    H240924   2.404   1.802   5.121 -1.1374 -0.3607 -0.3718
 5577TIP3   OH240925   6.239   2.910   4.452  0.4026  0.0473  0.3246
 5577TIP3    H140926   6.312   2.963   4.485  0.8937 -0.3017 -0.2074
 5577TIP3    H240927   6.257   2.822   4.483  1.2401 -0.4404 -1.4025
 5578TIP3   OH240928   4.526   2.615   4.237  0.4164  0.0094  0.4685
 5578TIP3    H140929   4.547   2.529   4.273 -0.9562 -1.2106 -1.4521
 5578TIP3    H240930   4.437   2.633   4.266 -0.1975 -0.3639 -1.1019
 5579TIP3   OH240931   5.889   0.274   6.189 -0.1624 -0.3765  0.5625
 5579TIP3    H140932   5.878   0.369   6.183  0.9039 -0.2256  0.8191
 5579TIP3    H240933   5.905   0.246   6.099 -2.2058 -0.5775  0.2047
 5580TIP3   OH240934   3.851   7.667   5.437  0.1272 -0.0581  0.4019
 5580TIP3    H140935   3.864   7.577   5.407  1.6003 -0.1876  1.3216
 5580TIP3    H240936   3.818   7.658   5.526 -2.1378  0.3355 -0.3429
 5581TIP3   OH240937   3.762   1.083   4.845 -0.1322 -0.0005  0.2618
 5581TIP3    H140938   3.752   1.177   4.859 -0.8296  0.2043 -1.3912
 5581TIP3    H240939   3.837   1.058   4.900 -1.8204  0.8847  3.1371
 5582TIP3   OH240940   3.147   6.389   5.016  0.1976  0.5032 -0.3844
 5582TIP3    H140941   3.199   6.325   4.968  0.1748  1.6263 -1.9732
 5582TIP3    H240942   3.146   6.467   4.960 -1.2416  1.3048  0.6780
 5583TIP3   OH240943   6.607   1.542   5.146  0.0389  0.5737  0.1155
 5583TIP3    H140944   6.549   1.536   5.069 -0.9770  1.1091  0.8080
 5583TIP3    H240945   6.555   1.591   5.210  1.5277  1.6709  0.5274
 5584TIP3   OH240946   5.604   2.385   4.719  0.1274  0.0666  0.1873
 5584TIP3    H140947   5.672   2.357   4.657 -0.1541 -0.6048  0.1678
 5584TIP3    H240948   5.576   2.471   4.687  0.0345 -0.2384 -0.5879
 5585TIP3   OH240949   4.022   5.902   5.097 -0.0942 -0.1387  0.7576
 5585TIP3    H140950   3.942   5.870   5.056 -0.2415 -0.6690  1.4400
 5585TIP3    H240951   3.992   5.963   5.165  0.1523  0.8565  0.0068
 5586TIP3   OH240952   5.148   4.921   4.460  0.2263 -0.0062 -0.1331
 5586TIP3    H140953   5.063   4.922   4.503  0.2098 -1.4216 -0.1008
 5586TIP3    H240954   5.142   4.852   4.394  1.3729 -0.1782 -0.0914
 5587TIP3   OH240955   1.935   7.566   5.739 -0.0041 -0.5265 -0.6672
 5587TIP3    H140956   1.901   7.477   5.739  1.4413 -1.1599 -2.9550
 5587TIP3    H240957   1.944   7.588   5.832 -1.9995 -2.0830 -0.0398
 5588TIP3   OH240958   0.348   1.759   4.865 -0.2758 -0.3420 -0.3200
 5588TIP3    H140959   0.372   1.798   4.781  0.2031  0.4747  0.1812
 5588TIP3    H240960   0.355   1.665   4.851  1.1979 -0.1822 -0.8003
 5589TIP3   OH240961   5.873   6.282   4.736  0.2653  0.0383 -0.0772
 5589TIP3    H140962   5.960   6.269   4.698  0.1844 -0.1181 -0.2083
 5589TIP3    H240963   5.821   6.319   4.665  0.0393 -0.5123 -0.2065
 5590TIP3   OH240964   0.878   0.667   5.879  0.6900 -0.8587  0.5101
 5590TIP3    H140965   0.866   0.574   5.901 -1.3179 -1.1016 -1.2836
 5590TIP3    H240966   0.882   0.668   5.784 -0.3848  0.9907  0.4438
 5591TIP3   OH240967   2.438   6.611   3.548  0.7786 -0.7610 -0.0575
 5591TIP3    H140968   2.382   6.551   3.599  0.2305 -1.3886 -1.3538
 5591TIP3    H240969   2.525   6.572   3.554  0.7578 -0.7274  0.5431
 5592TIP3   OH240970   6.571   6.184   4.496  0.2817 -0.3714 -0.2946
 5592TIP3    H140971   6.643   6.211   4.554 -1.1280  2.6741  0.1989
 5592TIP3    H240972   6.592   6.223   4.411  0.3474 -1.5010 -0.8241
 5593TIP3   OH240973   0.656   1.547   4.605  0.5028 -0.1437 -0.2646
 5593TIP3    H140974   0.624   1.596   4.530 -0.0438 -0.9323 -0.5564
 5593TIP3    H240975   0.629   1.457   4.589 -1.3015 -0.0444  1.7783
 5594TIP3   OH240976   5.828   2.183   4.091 -0.1901  0.3498 -0.6796
 5594TIP3    H140977   5.756   2.240   4.065 -1.6051 -1.8248 -1.9041
 5594TIP3    H240978   5.828   2.113   4.025  0.9632 -1.4473  1.0988
 5595TIP3   OH240979   7.019   3.585   3.924 -0.7262  0.7245  0.2910
 5595TIP3    H140980   6.960   3.608   3.995 -1.7524  2.1602 -0.9414
 5595TIP3    H240981   6.968   3.526   3.868  0.1730 -0.6378  0.8584
 5596TIP3   OH240982   6.012   6.175   3.823  0.1485  0.1121 -0.5793
 5596TIP3    H140983   5.967   6.211   3.899  2.0188  1.2759  0.0404
 5596TIP3    H240984   6.097   6.220   3.821  0.3837 -0.2704 -3.0415
 5597TIP3   OH240985   6.794   0.619   4.490  0.0544  0.1882 -0.2600
 5597TIP3    H140986   6.740   0.601   4.567  3.0606  0.1848  2.0461
 5597TIP3    H240987   6.875   0.570   4.507  0.4969 -0.6370 -3.9751
 5598TIP3   OH240988   2.303   5.855   5.516 -0.4507 -0.2731 -0.3708
 5598TIP3    H140989   2.292   5.792   5.587  0.4330  0.4892  0.4901
 5598TIP3    H240990   2.380   5.906   5.542  0.5936 -0.7048 -2.4546
 5599TIP3   OH240991   0.252   6.299   3.953  0.0036 -0.1143 -0.5747
 5599TIP3    H140992   0.264   6.381   3.905  0.0351 -0.5025 -1.2494
 5599TIP3    H240993   0.159   6.278   3.943  0.2017 -0.6908 -1.3029
 5600TIP3   OH240994   1.007   7.377   6.740  0.1758  0.2516 -0.3671
 5600TIP3    H140995   0.966   7.354   6.656 -0.3860 -2.5021  0.5593
 5600TIP3    H240996   0.942   7.433   6.783 -1.0973 -1.1014 -0.4226
 5601TIP3   OH240997   3.349   7.165   5.847 -0.2639  0.1118 -0.2466
 5601TIP3    H140998   3.410   7.093   5.861 -2.3451 -2.1332 -2.0092
 5601TIP3    H240999   3.315   7.185   5.934  1.8671  0.5163  0.5733
 5602TIP3   OH241000   6.661   0.075   5.273  0.4356 -0.1059 -0.6761
 5602TIP3    H141001   6.692   0.141   5.335  1.1715 -0.8407 -0.2440
 5602TIP3    H241002   6.664   0.119   5.188  0.6429  0.5034 -0.3578
 5603TIP3   OH241003   7.529   3.254   4.211  0.0057 -0.1519 -0.2639
 5603TIP3    H141004   7.478   3.174   4.199 -0.1198 -0.0864 -0.1705
 5603TIP3    H241005   7.560   3.250   4.301 -1.1460  0.5637  0.1825
 5604TIP3   OH241006   0.656   1.018   5.039  0.1926  0.2058 -0.5415
 5604TIP3    H141007   0.669   0.964   5.118  0.0657 -0.2454 -0.8231
 5604TIP3    H241008   0.742   1.055   5.020  0.4446 -0.4745 -0.7540
 5605TIP3   OH241009   5.129   6.151   6.267  0.1464 -0.3297 -0.4319
 5605TIP3    H141010   5.035   6.169   6.274  0.0967 -0.8222  0.2567
 5605TIP3    H241011   5.163   6.226   6.218 -0.4824  0.2527 -0.0100
 5606TIP3   OH241012   6.050   6.611   5.809  0.9296  0.0166 -0.0112
 5606TIP3    H141013   6.024   6.677   5.745 -0.2823  0.3881  0.8387
 5606TIP3    H241014   6.125   6.650   5.855 -0.2828  1.1894  1.0485
 5607TIP3   OH241015   4.958   4.573   4.899 -0.1229  0.0071 -0.1620
 5607TIP3    H141016   4.945   4.490   4.852 -0.0801 -0.5027  0.7065
 5607TIP3    H241017   4.869   4.606   4.913 -0.2241 -0.6268  0.7617
 5608TIP3   OH241018   6.698   4.639   3.958 -1.0720  0.5316  0.4397
 5608TIP3    H141019   6.648   4.597   4.029 -0.4112  1.0692  1.2431
 5608TIP3    H241020   6.759   4.697   4.003  0.3392 -0.1555 -0.5181
 5609TIP3   OH241021   4.560   5.782   4.664  0.3023  0.0354 -0.8425
 5609TIP3    H141022   4.494   5.847   4.688 -1.6791 -2.1460 -0.0039
 5609TIP3    H241023   4.592   5.748   4.747 -2.0283 -3.1685 -1.1177
 5610TIP3   OH241024   3.331   4.652   5.195  0.2938  0.2334  0.1538
 5610TIP3    H141025   3.291   4.707   5.127 -1.8619 -0.2853  0.9277
 5610TIP3    H241026   3.299   4.564   5.175  2.0356 -0.4242  0.1432
 5611TIP3   OH241027   4.445   6.775   4.690  0.4846  0.4412 -0.5880
 5611TIP3    H141028   4.539   6.773   4.710  0.2011 -2.0073  1.0032
 5611TIP3    H241029   4.435   6.707   4.623 -0.2290  0.0349 -0.0839
 5612TIP3   OH241030   6.600   4.771   4.460 -0.2994  0.5975  0.2392
 5612TIP3    H141031   6.555   4.800   4.540  0.7988 -1.6941  1.7881
 5612TIP3    H241032   6.626   4.853   4.417 -4.0465  2.0169  0.2492
 5613TIP3   OH241033   4.426   3.463   5.700  0.4729  0.5197  0.0383
 5613TIP3    H141034   4.497   3.446   5.761  0.9417  1.6894 -0.1443
 5613TIP3    H241035   4.454   3.541   5.652 -1.2832  1.5105  0.5246
 5614TIP3   OH241036   4.240   7.457   4.294 -0.4098 -0.2593 -0.6444
 5614TIP3    H141037   4.235   7.362   4.297  0.4535 -0.2900  0.1838
 5614TIP3    H241038   4.213   7.480   4.205  0.0789 -1.3131 -1.0737
 5615TIP3   OH241039   4.118   0.909   5.259  0.5451 -0.3993 -0.4470
 5615TIP3    H141040   4.078   0.915   5.346  0.4493  0.7310 -0.5586
 5615TIP3    H241041   4.096   0.820   5.229  0.4380 -0.7429  0.6028
 5616TIP3   OH241042   1.287   5.573   4.193  0.1451  0.0029 -0.1086
 5616TIP3    H141043   1.350   5.643   4.175  0.2596 -0.3323 -1.0726
 5616TIP3    H241044   1.319   5.532   4.274  1.8271 -0.8814 -1.1677
 5617TIP3   OH241045   4.080   4.775   6.034  0.1899 -0.2961 -0.2965
 5617TIP3    H141046   4.118   4.696   6.073 -0.1905 -1.6081 -2.4380
 5617TIP3    H241047   4.082   4.840   6.105  2.8172 -1.4425  0.7966
 5618TIP3   OH241048   6.391   3.858   4.765  0.4648  0.3160 -0.3543
 5618TIP3    H141049   6.420   3.810   4.688  0.6054 -0.3914  0.1266
 5618TIP3    H241050   6.369   3.945   4.733 -2.3480 -0.7990 -1.7460
 5619TIP3   OH241051   4.269   3.010   5.640  0.5479  0.6382  0.1354
 5619TIP3    H141052   4.182   2.971   5.636  0.2116  1.4474 -2.2263
 5619TIP3    H241053   4.257   3.094   5.684 -0.6335  2.2806 -2.9889
 5620TIP3   OH241054   1.831   6.133   5.343 -0.0856  0.1857  0.4635
 5620TIP3    H141055   1.774   6.160   5.271  2.0647  1.3995 -0.8694
 5620TIP3    H241056   1.886   6.208   5.361  1.2787 -1.0031  1.5461
 5621TIP3   OH241057   1.222   5.738   3.878 -0.0415  0.2236  0.1374
 5621TIP3    H141058   1.294   5.786   3.837 -1.0017  0.3782 -1.4218
 5621TIP3    H241059   1.197   5.792   3.953 -1.2722  2.3849 -1.7245
 5622TIP3   OH241060   5.356   4.570   4.271  0.0265  0.1507  0.0721
 5622TIP3    H141061   5.384   4.494   4.322 -0.5504  0.0210  0.1992
 5622TIP3    H241062   5.403   4.561   4.188  1.8414  0.9555  0.9485
 5623TIP3   OH241063   1.276   7.446   4.382  0.1644  0.0630  0.5350
 5623TIP3    H141064   1.263   7.394   4.461  0.6242 -0.2373  0.4192
 5623TIP3    H241065   1.354   7.408   4.341  0.8900  1.2511  0.7767
 5624TIP3   OH241066   1.615   1.128   5.838  0.4460  0.8482  0.1576
 5624TIP3    H141067   1.522   1.141   5.855  0.5598  1.0466  0.6248
 5624TIP3    H241068   1.648   1.083   5.916  0.7062  0.6183 -0.0826
 5625TIP3   OH241069   4.583   0.253   5.367  0.0776  0.0638  0.3871
 5625TIP3    H141070   4.581   0.281   5.275 -1.2597 -1.0192  0.0512
 5625TIP3    H241071   4.522   0.179   5.370  0.8237 -0.5133  1.9608
 5626TIP3   OH241072   4.555   4.638   5.659  0.0969  0.1438  0.1031
 5626TIP3    H141073   4.563   4.706   5.592 -1.8829  0.5047  0.1720
 5626TIP3    H241074   4.508   4.567   5.615 -0.2404 -0.0655  0.7926
 5627TIP3   OH241075   1.551   2.423   4.439 -0.3958 -0.1111 -0.0020
 5627TIP3    H141076   1.646   2.418   4.450 -0.4191 -0.0934  0.2177
 5627TIP3    H241077   1.537   2.419   4.345 -0.1098  0.9709 -0.1024
 5628TIP3   OH241078   4.441   6.917   4.292 -0.2963  0.5801 -0.1397
 5628TIP3    H141079   4.383   6.947   4.362 -1.7323  0.5508 -1.2535
 5628TIP3    H241080   4.523   6.896   4.336 -0.3019  2.9615  1.1496
 5629TIP3   OH241081   6.026   7.610   3.907 -0.9324 -0.6876 -0.1209
 5629TIP3    H141082   6.071   7.568   3.834  0.4727 -1.9066  1.3556
 5629TIP3    H241083   5.958   7.548   3.933 -0.7429 -0.7482  0.2440
 5630TIP3   OH241084   5.177   7.396   4.543 -0.5697  0.3962  0.2365
 5630TIP3    H141085   5.158   7.324   4.483 -0.6994 -1.3595  2.2324
 5630TIP3    H241086   5.149   7.363   4.629  1.6937  1.8186  1.6399
 5631TIP3   OH241087   4.778   4.211   5.749  0.1638 -0.9980 -0.1097
 5631TIP3    H141088   4.715   4.141   5.733  0.8110 -1.6948  0.3329
 5631TIP3    H241089   4.729   4.274   5.803 -0.1724 -1.5057  0.1912
 5632TIP3   OH241090   4.689   4.678   4.606 -0.2252  0.7724 -0.2908
 5632TIP3    H141091   4.772   4.635   4.583 -1.0869 -0.5955 -0.9740
 5632TIP3    H241092   4.688   4.758   4.555  0.5538  0.6615 -0.4920
 5633TIP3   OH241093   7.146   5.951   5.830  0.2227  0.4878  0.2203
 5633TIP3    H141094   7.133   5.994   5.915 -1.1937  1.8382 -0.6414
 5633TIP3    H241095   7.136   6.021   5.766 -0.5365 -0.8308 -1.1628
 5634TIP3   OH241096   2.476   6.138   4.915  0.6648  0.0737  0.2372
 5634TIP3    H141097   2.465   6.046   4.892  0.7662  0.1414 -0.0867
 5634TIP3    H241098   2.388   6.175   4.912  0.3986 -0.3389  1.8233
 5635TIP3   OH241099   0.750   3.465   5.625 -0.2833 -0.2627 -0.4724
 5635TIP3    H141100   0.805   3.538   5.650  0.5995 -0.9437 -0.3814
 5635TIP3    H241101   0.796   3.387   5.658 -0.8924 -0.9064 -1.0936
 5636TIP3   OH241102   2.820   1.940   5.409  0.1697  0.2781 -0.2659
 5636TIP3    H141103   2.763   2.016   5.399 -1.6661 -0.9462  0.3591
 5636TIP3    H241104   2.771   1.869   5.367  1.5386 -0.7033 -0.2434
 5637TIP3   OH241105   4.549   7.498   3.888  0.2322  0.3354 -0.0434
 5637TIP3    H141106   4.487   7.443   3.840  0.5658  0.8035 -1.0228
 5637TIP3    H241107   4.634   7.456   3.874  0.1195 -0.5873  1.6988
 5638TIP3   OH241108   0.244   3.717   6.738  0.1228 -0.8178  0.1140
 5638TIP3    H141109   0.287   3.733   6.654  0.7245 -1.1466  0.3493
 5638TIP3    H241110   0.155   3.748   6.726  1.2647  3.3431  0.6878
 5639TIP3   OH241111   1.718   3.508   5.723 -0.1683 -0.4349 -0.5129
 5639TIP3    H141112   1.796   3.487   5.773  1.3136 -0.1895 -2.5602
 5639TIP3    H241113   1.688   3.424   5.689 -0.2709 -0.4359 -0.4171
 5640TIP3   OH241114   0.030   4.880   6.250 -0.1654  0.2231  0.2484
 5640TIP3    H141115   0.075   4.884   6.334  0.5436  2.3247 -0.1640
 5640TIP3    H241116  -0.056   4.844   6.270 -0.0313  0.7491  1.8840
 5641TIP3   OH241117   1.788   4.474   5.089  0.1557 -0.6741  0.3027
 5641TIP3    H141118   1.864   4.532   5.085 -0.4381  0.1467  0.4781
 5641TIP3    H241119   1.713   4.532   5.073 -0.4514 -1.4178  0.3725
 5642TIP3   OH241120   4.824   1.149   4.742 -0.1444 -0.0741 -0.4300
 5642TIP3    H141121   4.779   1.109   4.816  0.5473 -0.3900 -0.1696
 5642TIP3    H241122   4.754   1.181   4.685 -0.6861 -0.3911  0.0523
 5643TIP3   OH241123   3.300   1.594   4.834  0.2533  0.0856  0.2848
 5643TIP3    H141124   3.340   1.623   4.753  0.6147 -0.3485  0.3081
 5643TIP3    H241125   3.214   1.561   4.808 -0.1563  1.1173  0.2506
 5644TIP3   OH241126   5.187   0.237   4.167  0.2149  0.3223  0.1692
 5644TIP3    H141127   5.093   0.245   4.149  0.3803  0.0391 -0.9237
 5644TIP3    H241128   5.198   0.273   4.255 -1.0067 -0.1975  0.5584
 5645TIP3   OH241129   3.553   2.406   5.116 -0.2276 -0.3565  0.3195
 5645TIP3    H141130   3.540   2.338   5.182  1.3470 -0.9782  0.0231
 5645TIP3    H241131   3.574   2.485   5.167  1.4600 -0.9437  0.5925
 5646TIP3   OH241132   4.532   7.674   4.760  0.1213 -0.3143 -0.2472
 5646TIP3    H141133   4.550   7.669   4.666  0.5167 -0.7548 -0.1486
 5646TIP3    H241134   4.507   7.765   4.774  0.3601 -0.1698 -0.7262
 5647TIP3   OH241135   5.255   0.822   5.039 -0.0215 -0.3829  0.1017
 5647TIP3    H141136   5.204   0.826   4.958  0.1645 -0.3370 -0.0125
 5647TIP3    H241137   5.191   0.839   5.108 -0.5219 -2.0600  0.0987
 5648TIP3   OH241138   0.960   5.067   6.272 -0.2665 -0.1984  0.0251
 5648TIP3    H141139   0.904   4.990   6.283 -0.5336 -0.2419 -1.5084
 5648TIP3    H241140   1.046   5.031   6.249  0.7343 -0.1792  3.2478
 5649TIP3   OH241141   5.538   5.494   5.666 -0.0061 -0.4306 -0.5495
 5649TIP3    H141142   5.602   5.535   5.725  0.7872 -0.8172 -1.1318
 5649TIP3    H241143   5.590   5.462   5.592 -0.8897 -0.6580 -1.0852
 5650TIP3   OH241144   3.075   4.731   3.629  0.5932  0.1751 -0.1559
 5650TIP3    H141145   3.039   4.646   3.602  0.9448  0.0993 -0.3881
 5650TIP3    H241146   3.023   4.755   3.705 -0.1402  0.2015 -0.6565
 5651TIP3   OH241147   0.401   2.837   5.599 -0.0346  0.0883 -0.1351
 5651TIP3    H141148   0.326   2.893   5.619  0.0186  0.4778 -0.9898
 5651TIP3    H241149   0.392   2.763   5.658 -0.9408  0.2641 -0.0427
 5652TIP3   OH241150   0.081   7.381   6.328 -0.2508 -0.5057  0.2297
 5652TIP3    H141151   0.080   7.297   6.375 -1.7052 -0.7526 -0.1780
 5652TIP3    H241152   0.093   7.357   6.236 -0.0458 -0.2172  0.1795
 5653TIP3   OH241153   2.348   5.487   4.132  0.8569 -0.4050 -0.7127
 5653TIP3    H141154   2.336   5.442   4.215  0.6365  0.9083 -0.0129
 5653TIP3    H241155   2.412   5.555   4.150 -0.6548  1.1838 -1.0989
 5654TIP3   OH241156   4.365   0.974   5.411  0.1594  0.2611  0.4087
 5654TIP3    H141157   4.301   0.944   5.346  1.3232 -0.9463 -0.2246
 5654TIP3    H241158   4.431   0.904   5.414  1.4749  1.4732  1.0003
 5655TIP3   OH241159   4.955   6.470   3.906  0.6060  0.1128  0.2105
 5655TIP3    H141160   4.899   6.502   3.977 -0.6730 -0.0463 -0.6821
 5655TIP3    H241161   4.949   6.537   3.838 -0.7846 -1.1574 -1.0120
 5656TIP3   OH241162   1.154   4.295   3.923  0.1369  0.4929  0.3162
 5656TIP3    H141163   1.235   4.269   3.880 -0.5766 -0.3133 -0.5848
 5656TIP3    H241164   1.154   4.247   4.006  0.2266 -0.0867 -0.0184
 5657TIP3   OH241165   5.802   5.681   3.868 -0.1494 -0.1433 -0.1119
 5657TIP3    H141166   5.716   5.661   3.832  0.2105  1.3697 -1.9312
 5657TIP3    H241167   5.807   5.627   3.947 -1.2767 -3.1080 -1.8772
 5658TIP3   OH241168   4.062   4.005   5.251  0.0173 -0.2332  0.0425
 5658TIP3    H141169   3.966   3.999   5.252  0.0130 -0.4608 -0.7679
 5658TIP3    H241170   4.083   4.036   5.163  0.6514  0.7996  0.5333
 5659TIP3   OH241171   2.872   5.298   5.023  0.2451  0.3724 -0.2351
 5659TIP3    H141172   2.921   5.256   4.952 -1.1841  1.4395 -1.9298
 5659TIP3    H241173   2.805   5.234   5.047 -0.7257  0.8773 -1.4926
 5660TIP3   OH241174   4.916   1.997   4.541 -0.2577  0.3383 -0.3284
 5660TIP3    H141175   4.916   2.092   4.540  2.1063  0.4006 -2.2348
 5660TIP3    H241176   5.008   1.972   4.542 -0.8015 -1.9773  0.5607
 5661TIP3   OH241177   2.849   1.929   5.753 -0.6040 -0.3287 -0.8975
 5661TIP3    H141178   2.843   1.839   5.785 -0.4601 -0.5762 -1.5673
 5661TIP3    H241179   2.805   1.929   5.669  1.4086 -0.3203 -2.0188
 5662TIP3   OH241180   2.879   4.198   4.243 -0.0037 -0.0608  0.2184
 5662TIP3    H141181   2.942   4.253   4.198  0.4922 -0.6774  0.1547
 5662TIP3    H241182   2.861   4.126   4.182  0.8017 -0.9908  1.0595
 5663TIP3   OH241183   2.922   0.697   4.514  0.6978  0.2411  0.5032
 5663TIP3    H141184   2.966   0.641   4.578  0.6029  0.2969  0.6159
 5663TIP3    H241185   2.908   0.780   4.559 -0.9416 -0.2745  1.0079
 5664TIP3   OH241186   2.974   4.371   5.199  0.5560 -0.0656 -0.0036
 5664TIP3    H141187   3.068   4.376   5.186  0.9224 -0.7709  2.0266
 5664TIP3    H241188   2.963   4.315   5.275 -1.5918 -1.0632 -0.9676
 5665TIP3   OH241189   5.484   2.953   4.658  0.3981 -0.6391 -0.8946
 5665TIP3    H141190   5.574   2.963   4.627 -0.0406  2.0741 -1.5014
 5665TIP3    H241191   5.491   2.952   4.753  0.9950  0.9074 -0.8995
 5666TIP3   OH241192   0.680   6.269   5.637  0.2254  0.1750 -0.2078
 5666TIP3    H141193   0.706   6.317   5.715  0.4066  1.5457 -1.0775
 5666TIP3    H241194   0.762   6.232   5.602  0.4301  1.0959 -0.7313
 5667TIP3   OH241195   2.742   1.975   6.087  0.5200 -0.1602  0.3748
 5667TIP3    H141196   2.673   1.985   6.152 -1.6011 -3.0852 -1.1615
 5667TIP3    H241197   2.696   1.981   6.003  2.1989 -1.5502 -0.7105
 5668TIP3   OH241198   4.566   2.280   5.413  0.1903 -0.0315 -0.5032
 5668TIP3    H141199   4.504   2.335   5.461  0.6409 -0.6725  0.8564
 5668TIP3    H241200   4.620   2.342   5.364 -1.1398  0.5648 -1.2733
 5669TIP3   OH241201   1.598   4.593   5.455 -0.1960 -0.1769  0.2615
 5669TIP3    H141202   1.543   4.656   5.409 -0.6294 -2.4092 -2.5209
 5669TIP3    H241203   1.544   4.515   5.463  1.1721 -1.0699  1.2965
 5670TIP3   OH241204   4.895   4.225   3.869  0.0285  0.3529  0.7451
 5670TIP3    H141205   4.985   4.238   3.838  0.1312 -1.3608  0.2361
 5670TIP3    H241206   4.898   4.145   3.921 -1.1365  0.4789  1.0352
 5671TIP3   OH241207   3.739   0.325   3.912 -0.7388 -0.1416  0.1100
 5671TIP3    H141208   3.742   0.252   3.973 -1.7830  0.8198  1.3920
 5671TIP3    H241209   3.756   0.287   3.826 -0.7286 -1.7771  0.8162
 5672TIP3   OH241210   0.318   5.495   4.900 -0.2334  0.1411 -0.4510
 5672TIP3    H141211   0.398   5.474   4.949 -0.1284  0.4841 -0.4734
 5672TIP3    H241212   0.306   5.421   4.840  1.0670  0.9289 -1.7246
 5673TIP3   OH241213   2.575   6.743   4.385  0.5845  0.1812 -0.7611
 5673TIP3    H141214   2.576   6.648   4.386 -0.8172  0.1397  0.4543
 5673TIP3    H241215   2.512   6.766   4.316 -0.0093  0.1752 -0.2358
 5674TIP3   OH241216   2.571   6.411   4.990 -0.3055  0.4177 -0.2939
 5674TIP3    H141217   2.536   6.397   4.902  2.0642 -1.7744 -1.0048
 5674TIP3    H241218   2.536   6.338   5.041  1.6593 -0.8415 -0.6063
 5675TIP3   OH241219   7.351   4.975   6.728  0.2407  0.5749  0.1268
 5675TIP3    H141220   7.275   4.963   6.672  0.4240 -0.4292  0.0806
 5675TIP3    H241221   7.338   5.062   6.767 -1.9827 -0.3594  1.7017
 5676TIP3   OH241222   6.733   5.017   4.408  0.0862 -0.8566 -0.8969
 5676TIP3    H141223   6.678   5.060   4.343 -0.1755 -0.1821 -0.2362
 5676TIP3    H241224   6.822   5.045   4.386 -0.1288  0.4230 -0.1793
 5677TIP3   OH241225   2.027   1.252   4.274  0.5110  0.2425 -0.0868
 5677TIP3    H141226   2.117   1.278   4.256  0.9749 -0.6861  0.8002
 5677TIP3    H241227   2.020   1.163   4.240 -0.3721  0.6394 -1.0071
 5678TIP3   OH241228   4.093   0.649   5.366 -0.1361  0.6657  0.1642
 5678TIP3    H141229   4.049   0.567   5.389  1.1868 -0.6850 -1.7939
 5678TIP3    H241230   4.038   0.718   5.405 -1.3023 -1.1117  1.8599
 5679TIP3   OH241231   2.028   2.058   4.090 -0.4647 -0.2208 -0.5638
 5679TIP3    H141232   2.111   2.021   4.118 -1.4443 -1.3137  1.1194
 5679TIP3    H241233   1.983   2.081   4.172 -1.6683  0.6768 -1.4310
 5680TIP3   OH241234   6.023   7.566   5.482 -0.2936 -0.5223  0.2268
 5680TIP3    H141235   6.004   7.618   5.560  2.4079  0.4505  0.3086
 5680TIP3    H241236   6.038   7.630   5.413  0.4451 -1.2760 -0.3287
 5681TIP3   OH241237   0.764   5.422   6.592 -0.0001  0.4117 -0.5099
 5681TIP3    H141238   0.837   5.396   6.649 -0.5377  1.1490  0.5452
 5681TIP3    H241239   0.726   5.338   6.564 -0.2329  0.0255  0.8964
 5682TIP3   OH241240   6.860   4.639   6.108  0.3873 -0.2261 -0.6224
 5682TIP3    H141241   6.917   4.713   6.128 -0.1680 -0.2164  1.0152
 5682TIP3    H241242   6.787   4.647   6.169  0.5335 -2.3578 -0.0843
 5683TIP3   OH241243   6.352   3.204   4.717 -0.3276  0.4354 -0.2340
 5683TIP3    H141244   6.380   3.156   4.795 -1.3161  1.1604  0.5848
 5683TIP3    H241245   6.386   3.152   4.644 -0.2821 -0.8222  0.6549
 5684TIP3   OH241246   4.377   4.337   4.906  0.4984  0.3580 -0.1144
 5684TIP3    H141247   4.364   4.267   4.842  0.4538 -0.4551  0.7627
 5684TIP3    H241248   4.309   4.401   4.887 -0.2625 -0.4439 -0.1222
 5685TIP3   OH241249   2.521   5.518   5.618 -0.0978 -0.1858  0.3282
 5685TIP3    H141250   2.534   5.524   5.524  0.2215 -1.9771  0.2336
 5685TIP3    H241251   2.447   5.459   5.629  0.5756 -0.8902  1.2285
 5686TIP3   OH241252   3.965   0.417   5.443  0.4237 -0.2263  0.1496
 5686TIP3    H141253   3.988   0.357   5.514  0.4816  0.0699  0.3821
 5686TIP3    H241254   3.906   0.366   5.387 -1.2060  0.1412  1.4345
 5687TIP3   OH241255   2.318   1.317   3.628 -0.0723 -0.2245  0.2845
 5687TIP3    H141256   2.284   1.356   3.708 -0.4002 -0.0732  0.0725
 5687TIP3    H241257   2.264   1.354   3.558 -0.5102 -1.1821  0.0941
 5688TIP3   OH241258   7.552   6.167   3.931  0.3836 -0.1676  0.5983
 5688TIP3    H141259   7.541   6.189   4.024  1.3546 -0.7148  0.8570
 5688TIP3    H241260   7.604   6.086   3.932  0.9258  0.1566 -0.4369
 5689TIP3   OH241261   2.749   7.555   4.078 -1.2708 -0.1105  0.7923
 5689TIP3    H141262   2.737   7.506   3.997 -1.6770 -1.0543  1.4066
 5689TIP3    H241263   2.741   7.647   4.052 -1.4998 -0.4077 -0.2165
 5690TIP3   OH241264   5.448   6.374   4.196 -0.3827  0.0906  0.5253
 5690TIP3    H141265   5.433   6.350   4.288 -1.8648 -0.9300  0.0550
 5690TIP3    H241266   5.361   6.371   4.156  0.5421 -2.3102 -1.5608
 5691TIP3   OH241267   3.639   1.715   4.670 -0.2566 -0.1497  0.6428
 5691TIP3    H141268   3.547   1.740   4.680  0.1368  1.7927 -0.0634
 5691TIP3    H241269   3.639   1.651   4.599 -1.0509 -0.0650  0.5579
 5692TIP3   OH241270   4.856   4.506   5.745  0.0233  0.4240  0.1491
 5692TIP3    H141271   4.811   4.428   5.713 -0.0388  0.0364  1.1528
 5692TIP3    H241272   4.794   4.546   5.806  0.6238  0.4539  0.7479
 5693TIP3   OH241273   0.232   6.220   4.787  0.1630 -0.1304  0.2919
 5693TIP3    H141274   0.204   6.310   4.796  1.0644  0.2489 -0.5042
 5693TIP3    H241275   0.159   6.168   4.820 -0.4413  0.8766  0.5701
 5694TIP3   OH241276   6.063   4.233   4.433  0.0099  0.1626 -0.2055
 5694TIP3    H141277   5.985   4.271   4.473  0.2602  0.9348 -0.4409
 5694TIP3    H241278   6.134   4.290   4.459  0.5409 -0.6440  0.1626
 5695TIP3   OH241279   4.170   1.032   6.009  0.2480  0.9724  0.4529
 5695TIP3    H141280   4.201   1.041   5.919  0.6231 -1.7555  0.2229
 5695TIP3    H241281   4.076   1.051   6.004 -0.1354 -0.9937 -0.9367
 5696TIP3   OH241282   5.131   0.487   4.899 -0.2370 -0.1169  0.4032
 5696TIP3    H141283   5.173   0.430   4.835 -3.1677 -0.8531 -1.0687
 5696TIP3    H241284   5.111   0.567   4.849 -2.8862 -0.8387  0.1368
 5697TIP3   OH241285   0.462   4.255   5.309 -0.2902 -0.2394 -0.4202
 5697TIP3    H141286   0.479   4.174   5.356 -0.3222  0.3824  0.6951
 5697TIP3    H241287   0.527   4.256   5.238 -0.3752 -1.2853 -0.5245
 5698TIP3   OH241288   5.316   2.148   4.029 -0.0730  0.0773  0.1969
 5698TIP3    H141289   5.233   2.196   4.030  1.2755  2.7422 -2.3106
 5698TIP3    H241290   5.313   2.097   3.948  0.2431 -0.8383  0.7468
 5699TIP3   OH241291   4.184   4.460   5.382  0.1975 -0.6095 -0.3776
 5699TIP3    H141292   4.095   4.426   5.386  0.9577 -2.7119  0.1210
 5699TIP3    H241293   4.205   4.461   5.288 -0.0201 -1.0872 -0.4352
 5700TIP3   OH241294   3.094   4.084   3.797 -0.0573  0.0317  0.3709
 5700TIP3    H141295   3.188   4.080   3.781 -0.2940 -0.1504 -1.1047
 5700TIP3    H241296   3.074   4.178   3.802 -0.1301  0.1714 -1.6836
 5701TIP3   OH241297   5.649   0.545   5.038  0.5273  0.5056  0.0384
 5701TIP3    H141298   5.741   0.571   5.044  0.4510  0.9859 -0.7019
 5701TIP3    H241299   5.651   0.457   5.000  0.7019  0.3062  0.5104
 5702TIP3   OH241300   7.505   4.862   6.036  0.1164  0.0115  0.7249
 5702TIP3    H141301   7.457   4.906   5.966 -1.5710 -1.6147  0.7880
 5702TIP3    H241302   7.448   4.867   6.112  0.0051 -1.9477  0.8127
 5703TIP3   OH241303   5.527   4.141   5.797  0.6360 -0.4896 -0.1577
 5703TIP3    H141304   5.622   4.135   5.788  0.6377 -0.7195  0.0133
 5703TIP3    H241305   5.507   4.094   5.878  0.4626  0.2242  0.2267
 5704TIP3   OH241306   1.361   1.228   4.004  0.1025  0.7342  0.3692
 5704TIP3    H141307   1.290   1.292   3.990 -0.1378  0.4435  0.2504
 5704TIP3    H241308   1.391   1.245   4.093  0.0764  1.0520  0.3194
 5705TIP3   OH241309   2.323   3.328   5.478 -0.4704  0.0828  0.0427
 5705TIP3    H141310   2.295   3.253   5.426 -2.0916  1.8078 -1.7452
 5705TIP3    H241311   2.389   3.293   5.538  0.7241 -2.2662 -2.4358
 5706TIP3   OH241312   3.321   2.652   5.816 -0.4462  0.5735  0.2772
 5706TIP3    H141313   3.326   2.662   5.911  0.7662 -0.6242  0.3855
 5706TIP3    H241314   3.262   2.578   5.803  1.8975 -1.4498  0.3452
 5707TIP3   OH241315   6.456   0.937   5.731 -0.6458  0.2363 -0.1653
 5707TIP3    H141316   6.364   0.924   5.755 -0.6912 -0.6797 -0.7755
 5707TIP3    H241317   6.500   0.857   5.759  0.2204  1.1582  1.2327
 5708TIP3   OH241318   4.195   3.663   4.777  0.2501  0.1469 -0.0651
 5708TIP3    H141319   4.190   3.647   4.871  3.5929  0.7447  0.3515
 5708TIP3    H241320   4.175   3.579   4.737 -0.1239 -0.4082  1.2244
 5709TIP3   OH241321   0.224   4.363   3.766  0.4229  0.5631 -0.0089
 5709TIP3    H141322   0.268   4.278   3.777  1.7054  0.7455 -2.8982
 5709TIP3    H241323   0.293   4.428   3.781  0.1533  0.9827 -0.5418
 5710TIP3   OH241324   3.296   3.255   4.927 -0.0019  0.1483  0.5630
 5710TIP3    H141325   3.259   3.179   4.882 -1.6503  1.0537  0.3193
 5710TIP3    H241326   3.257   3.253   5.014  0.6306  0.2339  0.8542
 5711TIP3   OH241327   3.906   6.380   4.435  0.3588  0.2410  0.1778
 5711TIP3    H141328   3.890   6.333   4.353  2.0090 -2.9624  1.5244
 5711TIP3    H241329   3.996   6.410   4.429 -0.3583  2.4403 -0.2237
 5712TIP3   OH241330   2.749   1.182   3.682  0.1597  0.2469 -0.4068
 5712TIP3    H141331   2.730   1.268   3.720  0.4079  0.5110 -0.8550
 5712TIP3    H241332   2.830   1.154   3.725 -0.8540 -0.5888  1.0379
 5713TIP3   OH241333   4.134   3.016   5.956  0.1358  0.4272 -0.1310
 5713TIP3    H141334   4.215   3.065   5.940  2.3427 -2.8000  0.1250
 5713TIP3    H241335   4.078   3.038   5.882  3.0571 -0.4784 -2.8484
 5714TIP3   OH241336   1.970   3.793   4.708 -0.3052 -0.1730  0.7100
 5714TIP3    H141337   2.023   3.801   4.628  0.4432  0.0470  1.2123
 5714TIP3    H241338   1.948   3.701   4.713 -0.2916 -0.2032  0.2880
 5715TIP3   OH241339   6.883   3.945   3.763  0.2372  0.3520 -0.0611
 5715TIP3    H141340   6.978   3.952   3.775  0.2142 -1.4283  1.4891
 5715TIP3    H241341   6.846   3.975   3.846 -0.4761 -0.6488 -0.0061
 5716TIP3   OH241342   2.345   2.545   6.526  0.2673 -0.4591  0.2493
 5716TIP3    H141343   2.392   2.549   6.442 -1.1707 -1.4942 -0.6513
 5716TIP3    H241344   2.332   2.637   6.550  0.0672 -0.1222 -1.0631
 5717TIP3   OH241345   5.338   3.852   4.424  0.0564 -0.2868 -1.0161
 5717TIP3    H141346   5.243   3.857   4.420 -0.1276 -2.5259 -0.5006
 5717TIP3    H241347   5.368   3.934   4.385 -2.0582  0.1991 -1.7318
 5718TIP3   OH241348   1.498   3.088   4.620 -0.1409 -0.8342  0.2255
 5718TIP3    H141349   1.414   3.057   4.655 -0.7483 -1.5850 -1.7388
 5718TIP3    H241350   1.523   3.022   4.556  1.2021  0.1366 -0.3008
 5719TIP3   OH241351   1.500   0.784   4.997 -0.3683 -0.4482  0.1015
 5719TIP3    H141352   1.464   0.710   4.949 -0.6103 -0.2882  0.0309
 5719TIP3    H241353   1.442   0.857   4.975  0.4487  0.0032 -0.6347
 5720TIP3   OH241354   5.655   7.659   3.938  0.4094  0.7821  0.6326
 5720TIP3    H141355   5.571   7.613   3.935  1.1033 -0.4987 -0.2117
 5720TIP3    H241356   5.632   7.751   3.926 -0.7466  0.2798 -1.5722
 5721TIP3   OH241357   4.111   6.677   5.226 -0.1046 -0.5585 -0.1338
 5721TIP3    H141358   4.130   6.587   5.252  1.4925  0.1415  1.3836
 5721TIP3    H241359   4.182   6.729   5.265 -0.7948  1.3268 -1.2191
 5722TIP3   OH241360   7.630   2.616   5.298 -0.6921 -0.0350  0.4426
 5722TIP3    H141361   7.711   2.666   5.310 -0.2447 -0.7108  0.3127
 5722TIP3    H241362   7.560   2.675   5.327  0.0025 -0.1299  2.5135
 5723TIP3   OH241363   3.729   3.322   4.172 -0.1739  0.3599  0.1749
 5723TIP3    H141364   3.756   3.280   4.254  0.3966 -0.8662 -0.6162
 5723TIP3    H241365   3.806   3.317   4.116 -1.0740 -0.3698 -1.0320
 5724TIP3   OH241366   0.758   1.878   4.086  0.0101  0.5098 -0.3905
 5724TIP3    H141367   0.799   1.856   4.169  0.1423  1.6384 -0.1407
 5724TIP3    H241368   0.677   1.924   4.109 -0.9737 -0.8944 -0.8873
 5725TIP3   OH241369   0.059   7.374   5.252  0.0311  0.0981  0.0964
 5725TIP3    H141370   0.005   7.300   5.225  1.0000 -0.0934 -1.4176
 5725TIP3    H241371   0.147   7.337   5.264  0.1115  0.6270  1.3626
 5726TIP3   OH241372   2.420   5.533   3.842  0.1999 -0.0708 -0.2854
 5726TIP3    H141373   2.329   5.558   3.828  0.2140  0.4869  0.5564
 5726TIP3    H241374   2.416   5.459   3.903  0.3827  1.8749  2.2671
 5727TIP3   OH241375   2.530   1.119   5.028  0.1143 -0.2590  0.2421
 5727TIP3    H141376   2.551   1.138   5.119 -1.2430  3.1461 -0.0094
 5727TIP3    H241377   2.613   1.126   4.982  0.4388  0.4555  0.9182
 5728TIP3   OH241378   2.806   5.824   5.743  0.5448 -0.1570  0.1948
 5728TIP3    H141379   2.839   5.735   5.732  0.7289 -0.0859  0.1801
 5728TIP3    H241380   2.826   5.846   5.834 -1.4243 -0.9255  0.8687
 5729TIP3   OH241381   0.164   2.287   4.758  0.5952  0.8150  0.7358
 5729TIP3    H141382   0.146   2.378   4.733  0.8816  0.4638 -0.8406
 5729TIP3    H241383   0.241   2.293   4.814  0.2151  1.6034  1.1952
 5730TIP3   OH241384   0.854   5.293   6.021 -0.0041  0.0301 -0.0035
 5730TIP3    H141385   0.820   5.204   6.032  3.1266 -1.2980 -0.1737
 5730TIP3    H241386   0.850   5.308   5.926 -1.5175  0.5709  0.1101
 5731TIP3   OH241387   0.876   4.452   4.975 -1.0546 -0.2599 -0.1937
 5731TIP3    H141388   0.926   4.381   4.935 -1.6068 -0.6652 -0.1817
 5731TIP3    H241389   0.867   4.426   5.067 -2.1378 -0.6898 -0.4096
 5732TIP3   OH241390   7.470   4.349   3.670 -0.0945 -0.5867  0.2565
 5732TIP3    H141391   7.526   4.358   3.747  0.2751 -0.4664 -0.0240
 5732TIP3    H241392   7.530   4.330   3.599 -0.4027 -0.3706 -0.0641
 5733TIP3   OH241393   0.442   1.731   4.143  0.2091  0.3291 -0.0148
 5733TIP3    H141394   0.422   1.699   4.055  0.1333  0.2867  0.0177
 5733TIP3    H241395   0.413   1.822   4.143 -2.0836 -0.3323  0.7221
 5734TIP3   OH241396   3.296   3.111   5.496 -0.3134  0.2974  0.1797
 5734TIP3    H141397   3.273   3.162   5.574 -2.0272  0.9319 -0.6784
 5734TIP3    H241398   3.388   3.089   5.507  0.8596  4.4950  0.1171
 5735TIP3   OH241399   7.619   0.697   5.053  0.3443  0.1464  0.4775
 5735TIP3    H141400   7.648   0.606   5.041  1.6949  0.6612 -0.4705
 5735TIP3    H241401   7.585   0.722   4.967  2.5775  1.3683 -0.1401
 5736TIP3   OH241402   6.632   0.610   5.504 -0.2617 -0.0915  0.0863
 5736TIP3    H141403   6.716   0.642   5.537  0.7803 -0.3572 -2.1353
 5736TIP3    H241404   6.589   0.573   5.581  1.3194  0.7443  1.4352
 5737TIP3   OH241405   4.053   4.079   4.379 -0.0965  0.8066 -0.0406
 5737TIP3    H141406   3.992   4.151   4.387 -1.7022 -0.5643  0.7282
 5737TIP3    H241407   4.000   4.005   4.351  1.2393 -0.3858  0.4208
 5738TIP3   OH241408   4.299   4.898   5.712 -0.3947  0.2253 -0.2019
 5738TIP3    H141409   4.259   4.817   5.743  0.2210  0.2100  0.5751
 5738TIP3    H241410   4.249   4.921   5.634 -1.4226 -0.1938  0.3205
 5739TIP3   OH241411   2.217   1.389   5.207 -0.6163 -0.2193  0.3528
 5739TIP3    H141412   2.189   1.479   5.224  1.3271  0.3940  0.4732
 5739TIP3    H241413   2.280   1.397   5.136 -0.3648 -1.4966  0.4162
 5740TIP3   OH241414   2.111   4.076   5.902  0.0498  0.2062 -0.1830
 5740TIP3    H141415   2.048   4.110   5.965  1.3279  1.2983  0.5527
 5740TIP3    H241416   2.058   4.026   5.840 -1.2288 -1.1741  1.8843
 5741TIP3   OH241417   7.614   5.904   3.916 -0.7517  0.0575  0.3356
 5741TIP3    H141418   7.591   5.817   3.884  0.0192 -0.8400  2.1000
 5741TIP3    H241419   7.695   5.891   3.967 -0.8959  1.7003  1.0548
 5742TIP3   OH241420   2.339   2.953   4.768  0.1819 -0.0304 -0.1181
 5742TIP3    H141421   2.274   2.955   4.839 -0.3849 -0.7344 -0.5931
 5742TIP3    H241422   2.299   3.005   4.698  0.0572 -0.5622 -0.4548
 5743TIP3   OH241423   6.655   7.609   9.514 -0.0152 -0.0766 -0.1125
 5743TIP3    H141424   6.725   7.667   9.543  0.1212 -0.1808 -0.2284
 5743TIP3    H241425   6.588   7.614   9.582  0.0677  0.0911 -0.0459
 5744TIP3   OH241426   4.218   2.311   4.230  0.1817 -0.1081  0.2970
 5744TIP3    H141427   4.212   2.353   4.144  0.1220  0.2229  0.4606
 5744TIP3    H241428   4.270   2.232   4.215  0.3269  0.0458 -0.0065
 5745TIP3   OH241429   1.858   7.039   4.158 -0.3604 -0.3403 -0.1396
 5745TIP3    H141430   1.820   7.057   4.244  1.3346  0.5843  0.4622
 5745TIP3    H241431   1.820   6.955   4.132 -0.8620 -0.6645  1.5338
 5746TIP3   OH241432   5.501   4.519   4.034 -0.4823  0.1752  0.6542
 5746TIP3    H141433   5.545   4.601   4.059  0.3073  0.0595 -0.2683
 5746TIP3    H241434   5.541   4.453   4.090  1.0646 -0.0365 -0.6260
 5747TIP3   OH241435   4.900   6.091   4.526  0.5045 -0.1495  0.6521
 5747TIP3    H141436   4.971   6.103   4.464  0.6617 -1.8618  0.4583
 5747TIP3    H241437   4.942   6.099   4.612  0.9918 -1.3693  0.5404
 5748TIP3   OH241438   1.702   1.836   5.960 -0.3389  0.3667  0.6794
 5748TIP3    H141439   1.699   1.775   6.033  0.6516 -0.1820  0.2804
 5748TIP3    H241440   1.786   1.819   5.918 -1.2649  0.0519 -1.1230
 5749TIP3   OH241441   0.906   3.154   4.259  0.5105  0.3057 -0.2606
 5749TIP3    H141442   0.813   3.173   4.272  0.2404  0.6795 -2.2850
 5749TIP3    H241443   0.911   3.059   4.252  0.6134  0.1211  1.7362
 5750TIP3   OH241444   7.271   2.480   6.424  1.0219  0.7654 -0.0516
 5750TIP3    H141445   7.333   2.513   6.357  0.1927  0.3084 -1.0728
 5750TIP3    H241446   7.259   2.388   6.402  0.7223  0.6101  0.7362
 5751TIP3   OH241447   2.045   4.890   4.115  0.6002  0.6711 -0.4969
 5751TIP3    H141448   1.953   4.866   4.124  0.9525 -0.0458  1.6163
 5751TIP3    H241449   2.091   4.840   4.183  2.6007  0.8387 -1.6215
 5752TIP3   OH241450   0.519   0.297   6.256 -0.1133 -0.5025 -0.0088
 5752TIP3    H141451   0.473   0.380   6.270  0.1132 -0.2076 -0.9723
 5752TIP3    H241452   0.480   0.237   6.320 -0.5486  0.2351  0.4326
 5753TIP3   OH241453   3.637   2.866   4.627  0.6420  0.1120 -0.6730
 5753TIP3    H141454   3.655   2.925   4.700  2.1216 -0.8285 -0.2530
 5753TIP3    H241455   3.600   2.923   4.560 -3.3907  0.6239  1.6557
 5754TIP3   OH241456   3.323   4.770   6.057  0.1094 -0.4880 -0.1353
 5754TIP3    H141457   3.291   4.685   6.087 -0.6944 -1.0878 -2.4925
 5754TIP3    H241458   3.317   4.766   5.962  1.1734  1.8014 -0.3720
 5755TIP3   OH241459   5.282   6.791   6.254  0.7258  0.3251 -0.2763
 5755TIP3    H141460   5.346   6.726   6.224  4.6438  3.8637 -0.4288
 5755TIP3    H241461   5.283   6.782   6.350  0.8086 -0.2025 -0.3218
 5756TIP3   OH241462   4.800   3.759   6.046  0.0309  0.1338 -0.1755
 5756TIP3    H141463   4.771   3.849   6.055  0.3323  0.2594 -0.4267
 5756TIP3    H241464   4.803   3.725   6.135  2.0256  1.0435  0.1793
 5757TIP3   OH241465   4.962   2.632   5.030 -0.3539 -0.4484 -0.0755
 5757TIP3    H141466   4.974   2.727   5.023 -0.3173 -0.4157  0.4470
 5757TIP3    H241467   5.029   2.595   4.972  0.5114 -0.1948  0.7511
 5758TIP3   OH241468   5.983   1.073   4.782 -0.2449 -0.0462 -0.4599
 5758TIP3    H141469   6.070   1.086   4.743  0.2790  0.1743  0.7374
 5758TIP3    H241470   5.986   1.124   4.863 -1.0101 -1.1780  0.2927
 5759TIP3   OH241471   0.926   7.032   5.870 -0.8398  0.0687  0.9251
 5759TIP3    H141472   0.849   7.049   5.924 -1.3024  1.2192 -0.0587
 5759TIP3    H241473   0.899   6.959   5.813 -1.5851  1.1020 -0.0937
 5760TIP3   OH241474   5.534   6.204   5.836 -0.1293  0.2289 -0.1969
 5760TIP3    H141475   5.573   6.291   5.832  0.9201 -0.1672  0.7805
 5760TIP3    H241476   5.609   6.144   5.838 -0.5799 -0.4826  3.5742
 5761TIP3   OH241477   7.473   1.726   4.903  0.4069 -0.0196 -0.1886
 5761TIP3    H141478   7.488   1.646   4.852  1.1672 -0.2642  0.4069
 5761TIP3    H241479   7.550   1.780   4.887  1.3458 -0.6731  1.7399
 5762TIP3   OH241480   7.581   6.302   6.815  0.3378 -0.1005  0.3169
 5762TIP3    H141481   7.649   6.369   6.812 -0.8802  1.1444 -0.8504
 5762TIP3    H241482   7.623   6.227   6.857  1.6526  1.4841  2.0167
 5763TIP3   OH241483   4.770   5.204   5.703  0.4202  0.0578  0.0024
 5763TIP3    H141484   4.814   5.241   5.627  1.0964 -1.5869 -0.4569
 5763TIP3    H241485   4.786   5.266   5.773  0.5569  1.1624 -0.9730
 5764TIP3   OH241486   5.041   3.625   5.156 -0.4327  0.3472 -0.0925
 5764TIP3    H141487   5.007   3.569   5.226 -1.0294  1.1766  0.2997
 5764TIP3    H241488   5.123   3.584   5.131  1.0146  1.2399  2.6908
 5765TIP3   OH241489   7.173   4.205   5.087 -0.3161  0.4621 -0.0142
 5765TIP3    H141490   7.188   4.136   5.151 -0.2046  0.2298 -0.2892
 5765TIP3    H241491   7.078   4.207   5.075 -0.3286  0.4349  0.0800
 5766TIP3   OH241492   0.260   1.268   6.330 -0.4302 -0.2198  0.4672
 5766TIP3    H141493   0.290   1.357   6.346  0.0356 -0.4752  1.0745
 5766TIP3    H241494   0.309   1.214   6.393 -1.3293 -0.7952  0.7090
 5767TIP3   OH241495   0.407   1.516   3.889 -0.0980  0.0250  0.4722
 5767TIP3    H141496   0.494   1.545   3.913  0.1212  0.0098 -0.2808
 5767TIP3    H241497   0.417   1.424   3.867 -0.7622 -0.6386  2.7037
 5768TIP3   OH241498   0.629   1.663   5.667 -0.0339 -0.0628  0.2152
 5768TIP3    H141499   0.631   1.582   5.717 -0.7931 -1.6846 -2.1756
 5768TIP3    H241500   0.689   1.722   5.712  0.8861 -2.1000  1.7789
 5769TIP3   OH241501   4.640   6.862   5.567 -0.2168 -0.2025  0.4462
 5769TIP3    H141502   4.561   6.807   5.562  0.5044 -1.2508  0.2214
 5769TIP3    H241503   4.708   6.809   5.525  0.3355  1.2036 -0.4966
 5770TIP3   OH241504   2.481   2.494   5.296 -0.1832  0.7234  0.3840
 5770TIP3    H141505   2.570   2.465   5.275 -0.8062  0.0907 -1.6785
 5770TIP3    H241506   2.483   2.515   5.389  2.0618  0.5195  0.4301
 5771TIP3   OH241507   0.431   7.611   4.371  0.3298  0.0321  0.2594
 5771TIP3    H141508   0.480   7.602   4.289  0.6338 -0.2404  0.4684
 5771TIP3    H241509   0.390   7.697   4.365 -0.0732 -0.1984 -0.4061
 5772TIP3   OH241510   6.823   5.919   4.017  0.0273 -0.4705 -0.5436
 5772TIP3    H141511   6.841   5.840   3.966  0.1313 -0.5674 -0.3598
 5772TIP3    H241512   6.910   5.951   4.043 -0.0643 -1.7476  1.5764
 5773TIP3   OH241513   3.565   4.976   5.033 -0.3461 -0.5439 -0.3132
 5773TIP3    H141514   3.498   5.016   5.088  1.4606 -0.7047  2.2104
 5773TIP3    H241515   3.620   5.050   5.005  1.3377 -0.7774  2.0005
 5774TIP3   OH241516   0.453   5.269   4.734 -0.0927  0.0460 -0.0318
 5774TIP3    H141517   0.518   5.336   4.757 -0.3044  0.1386  0.3053
 5774TIP3    H241518   0.486   5.189   4.774  0.8426 -0.3595 -1.5266
 5775TIP3   OH241519   2.370   6.775   4.205 -0.4137  0.1179 -0.6945
 5775TIP3    H141520   2.289   6.796   4.160 -0.5074  2.3823  0.4025
 5775TIP3    H241521   2.426   6.852   4.193  0.9534 -0.7258 -0.0674
 5776TIP3   OH241522   1.993   0.869   5.137 -0.3225 -0.0923  0.7550
 5776TIP3    H141523   1.905   0.858   5.173 -0.8146  0.5230 -0.2005
 5776TIP3    H241524   1.980   0.873   5.043  0.2094  3.8560  0.6862
 5777TIP3   OH241525   7.149   7.615   5.759  0.6860  0.1782 -0.4145
 5777TIP3    H141526   7.137   7.678   5.830  1.4995  1.3242 -1.2408
 5777TIP3    H241527   7.062   7.604   5.721  0.0356 -1.2712  1.3774
 5778TIP3   OH241528   5.951   3.978   4.472 -0.5955 -0.2489  0.0391
 5778TIP3    H141529   6.012   4.051   4.462  0.4624 -1.0686  0.3483
 5778TIP3    H241530   5.988   3.925   4.542  0.0240 -2.4196 -1.8197
 5779TIP3   OH241531   7.536   6.222   4.201 -0.0304  0.5076 -0.1733
 5779TIP3    H141532   7.603   6.242   4.266  0.1176  1.1093 -0.5098
 5779TIP3    H241533   7.458   6.204   4.253  0.1114  0.8797  0.1773
 5780TIP3   OH241534   0.741   7.226   5.627 -0.5259  0.2606  0.1126
 5780TIP3    H141535   0.826   7.256   5.659  0.1780 -2.0089  0.5709
 5780TIP3    H241536   0.752   7.215   5.533 -0.3945  0.1961  0.1363
 5781TIP3   OH241537   7.149   2.568   4.264 -0.0022 -0.1426  0.0683
 5781TIP3    H141538   7.062   2.532   4.280 -0.2248  0.2441 -0.2504
 5781TIP3    H241539   7.148   2.652   4.311  0.9452 -1.0884  1.8803
 5782TIP3   OH241540   0.925   6.454   5.784  0.5172  0.0808  0.3327
 5782TIP3    H141541   0.885   6.413   5.860 -2.5161  1.3335 -0.4132
 5782TIP3    H241542   0.920   6.388   5.715  0.7355 -0.1251  0.5122
 5783TIP3   OH241543   5.822   4.953   4.782  0.3625 -0.7015  0.2147
 5783TIP3    H141544   5.869   4.873   4.760  0.0273 -1.1524  1.1189
 5783TIP3    H241545   5.733   4.925   4.802  0.7148 -0.4116  2.4849
 5784TIP3   OH241546   3.633   1.014   4.573  0.8984  0.1732 -0.2969
 5784TIP3    H141547   3.693   1.067   4.624  0.4578  0.0295  0.3888
 5784TIP3    H241548   3.602   0.947   4.635 -0.0032  0.2841 -0.6141
 5785TIP3   OH241549   4.045   3.717   4.196  0.0378  0.6405 -0.3288
 5785TIP3    H141550   4.010   3.773   4.265 -1.0590 -0.9231  0.4349
 5785TIP3    H241551   4.055   3.631   4.237  2.4652  0.3948 -1.2213
 5786TIP3   OH241552   2.521   4.470   3.839 -0.1575 -0.4641  0.0181
 5786TIP3    H141553   2.463   4.470   3.915 -0.6106  0.8157 -0.2931
 5786TIP3    H241554   2.531   4.378   3.816 -3.6474 -0.7236 -1.0617
 5787TIP3   OH241555   6.996   2.445   4.927 -0.1665  0.7670 -0.0655
 5787TIP3    H141556   7.091   2.450   4.923 -0.1835  1.1401 -0.0920
 5787TIP3    H241557   6.972   2.504   4.999 -0.2548 -0.8553  1.2887
 5788TIP3   OH241558   6.354   4.222   4.042 -0.2139 -0.0745 -0.3420
 5788TIP3    H141559   6.277   4.185   4.000 -1.2723 -0.3551  1.7264
 5788TIP3    H241560   6.340   4.208   4.136  1.6293  1.2644  0.1993
 5789TIP3   OH241561   1.411   6.414   5.318 -0.1109 -0.0827 -0.1290
 5789TIP3    H141562   1.486   6.463   5.351  1.2150 -0.4234 -2.4540
 5789TIP3    H241563   1.428   6.323   5.345 -0.3530  0.0281  0.4176
 5790TIP3   OH241564   7.608   6.766   5.876 -0.1159  0.4137 -0.2803
 5790TIP3    H141565   7.575   6.784   5.964  0.6619 -0.1895  0.1468
 5790TIP3    H241566   7.592   6.672   5.862  2.5356 -0.2435  0.4796
 5791TIP3   OH241567   4.413   6.674   6.030 -0.0805  0.3954 -0.1698
 5791TIP3    H141568   4.433   6.750   6.085  1.7373 -0.1260 -0.0441
 5791TIP3    H241569   4.456   6.600   6.073  0.2440 -0.2656 -1.5505
 5792TIP3   OH241570   3.207   4.580   4.487  0.4228 -0.3311 -0.4322
 5792TIP3    H141571   3.147   4.651   4.466  1.5523  1.2888  1.4613
 5792TIP3    H241572   3.287   4.601   4.439  0.2496 -1.2814 -1.1844
 5793TIP3   OH241573   1.255   7.103   6.383  0.3936  0.5606 -0.0459
 5793TIP3    H141574   1.281   7.011   6.377 -1.6983 -0.0991  0.1050
 5793TIP3    H241575   1.224   7.113   6.473  1.6719  1.7593  0.2904
 5794TIP3   OH241576   7.553   2.799   4.264  0.6691 -0.3080 -0.4458
 5794TIP3    H141577   7.557   2.718   4.315 -0.5978  0.5204  1.0582
 5794TIP3    H241578   7.575   2.772   4.175 -0.6556 -2.5182 -0.1869
 5795TIP3   OH241579   6.786   7.278   4.316  0.0811  0.2235 -0.5357
 5795TIP3    H141580   6.861   7.336   4.333  1.4556 -1.1194 -1.6878
 5795TIP3    H241581   6.772   7.286   4.222  0.4977 -1.5046 -0.7703
 5796TIP3   OH241582   2.771   1.130   4.924 -0.6117 -0.5022  0.7756
 5796TIP3    H141583   2.863   1.109   4.937 -0.9908 -0.7511  3.6764
 5796TIP3    H241584   2.747   1.084   4.843  1.3057 -2.1592  1.0760
 5797TIP3   OH241585   1.921   5.101   3.930  0.3506 -0.3158 -0.2146
 5797TIP3    H141586   1.933   5.010   3.958  1.6502 -0.4236 -1.0706
 5797TIP3    H241587   1.993   5.118   3.870  0.2953  1.3843  0.1435
 5798TIP3   OH241588   6.096   0.376   4.187 -0.1307 -0.1966 -0.1932
 5798TIP3    H141589   6.041   0.324   4.245 -0.8578  1.0749  0.2975
 5798TIP3    H241590   6.135   0.312   4.127 -1.5468 -1.2210 -0.0787
 5799TIP3   OH241591   5.060   6.375   4.258  0.9613  0.1731 -0.6311
 5799TIP3    H141592   5.120   6.422   4.200 -1.1254  1.1953 -2.0947
 5799TIP3    H241593   5.016   6.312   4.202 -0.8373  0.9190 -0.1486
 5800TIP3   OH241594   0.816   2.017   5.997 -0.3811  0.0448 -0.1313
 5800TIP3    H141595   0.840   2.027   5.905  0.3560  0.7996  0.1293
 5800TIP3    H241596   0.731   2.062   6.004 -0.0650  0.6848 -0.2897
 5801TIP3   OH241597   2.010   4.613   5.084  0.0113  0.1010 -0.0428
 5801TIP3    H141598   1.990   4.697   5.126 -2.5564 -0.5298  0.1603
 5801TIP3    H241599   2.089   4.582   5.128  0.3409  1.8439  0.6799
 5802TIP3   OH241600   2.156   0.627   3.781 -0.0552  0.5166  0.0773
 5802TIP3    H141601   2.153   0.590   3.692  2.0974  2.6914 -1.0177
 5802TIP3    H241602   2.081   0.686   3.785 -0.7096 -0.2947  0.0841
 5803TIP3   OH241603   2.313   4.721   3.799  0.0616  0.3183  0.0160
 5803TIP3    H141604   2.349   4.751   3.882  2.0515  0.7055 -0.9369
 5803TIP3    H241605   2.362   4.641   3.779  1.6938  1.7434 -2.1088
 5804TIP3   OH241606   3.318   5.914   4.952 -0.7331  0.0860  0.3832
 5804TIP3    H141607   3.251   5.934   4.887 -1.3513  1.3022  1.3444
 5804TIP3    H241608   3.398   5.900   4.902 -0.9913  1.9025 -0.5961
 5805TIP3   OH241609   1.868   0.759   4.013 -0.2662  0.1555 -0.5135
 5805TIP3    H141610   1.783   0.801   4.004 -0.3587 -0.2230 -1.4967
 5805TIP3    H241611   1.848   0.673   4.051 -0.3672 -0.0684 -1.0624
 5806TIP3   OH241612   2.083   3.973   5.361  0.2700  0.3472  0.3504
 5806TIP3    H141613   2.170   3.960   5.397  0.2146  1.7399  1.0787
 5806TIP3    H241614   2.097   4.022   5.280  0.2340 -0.4920 -0.1669
 5807TIP3   OH241615   4.066   4.143   3.853  0.1487 -0.7289 -0.1339
 5807TIP3    H141616   4.020   4.064   3.880 -0.0569 -1.3457 -2.0962
 5807TIP3    H241617   4.122   4.114   3.780  0.6763  0.7652 -0.3526
 5808TIP3   OH241618   2.443   2.506   5.619  0.4588 -0.0552  0.4036
 5808TIP3    H141619   2.493   2.440   5.667  1.8768 -2.1083 -3.4260
 5808TIP3    H241620   2.485   2.589   5.640  0.2740 -0.6048  3.3755
 5809TIP3   OH241621   4.101   6.224   6.121 -0.5984  0.2967  0.3720
 5809TIP3    H141622   4.124   6.139   6.083 -0.2624  0.5421  0.0190
 5809TIP3    H241623   4.033   6.203   6.185 -1.1322 -0.1348 -0.3186
 5810TIP3   OH241624   6.550   2.065   5.250  0.4837 -0.7396  0.0898
 5810TIP3    H141625   6.485   2.011   5.206 -0.4674  0.7100 -0.3496
 5810TIP3    H241626   6.498   2.124   5.306  1.3557  0.8124 -0.6770
 5811TIP3   OH241627   4.446   3.280   4.596 -0.3599 -0.1980 -0.7302
 5811TIP3    H141628   4.500   3.212   4.637 -2.0725 -0.0919  2.0121
 5811TIP3    H241629   4.413   3.239   4.516  0.8321 -1.5529 -0.5857
 5812TIP3   OH241630   0.727   6.132   4.935 -0.0402 -0.0586 -0.5473
 5812TIP3    H141631   0.732   6.225   4.959 -2.1103 -0.2388  0.8534
 5812TIP3    H241632   0.645   6.125   4.886 -0.1094 -1.2117 -0.2815
 5813TIP3   OH241633   2.796   3.655   6.202 -0.3066 -0.4363 -0.4551
 5813TIP3    H141634   2.861   3.720   6.175 -0.4386  0.6437  1.6105
 5813TIP3    H241635   2.711   3.696   6.181 -0.3763 -0.9624 -1.2533
 5814TIP3   OH241636   2.367   5.095   5.226 -0.1568  0.2226 -0.2204
 5814TIP3    H141637   2.418   5.168   5.259  1.4662 -0.2333 -1.5664
 5814TIP3    H241638   2.396   5.084   5.136 -1.5818 -1.0271 -0.5735
 5815TIP3   OH241639   0.195   2.762   4.581 -0.1405 -0.3589  0.1272
 5815TIP3    H141640   0.216   2.830   4.517 -1.0782 -0.5945 -0.4564
 5815TIP3    H241641   0.134   2.805   4.642 -0.2415 -0.5013  0.1255
 5816TIP3   OH241642   5.014   5.625   4.325 -0.1281 -0.2093 -0.5784
 5816TIP3    H141643   4.944   5.673   4.368 -0.3168 -1.3969  0.4961
 5816TIP3    H241644   4.969   5.566   4.264 -0.0768 -0.8893  0.0274
 5817TIP3   OH241645   0.338   1.386   5.795  0.0957  0.1474  0.2440
 5817TIP3    H141646   0.271   1.389   5.726  0.3459  0.8705  0.0193
 5817TIP3    H241647   0.288   1.386   5.877 -0.2578  3.7095  0.2034
 5818TIP3   OH241648   3.993   7.650   4.883  0.5838  0.2624 -0.2716
 5818TIP3    H141649   4.086   7.635   4.863  0.9935  1.3540  0.7144
 5818TIP3    H241650   3.957   7.684   4.801  0.8509 -0.9080 -0.9009
 5819TIP3   OH241651   3.141   5.865   4.193 -0.1518  0.5809  0.0258
 5819TIP3    H141652   3.141   5.774   4.163  0.8995  0.8163 -0.7324
 5819TIP3    H241653   3.097   5.862   4.278 -0.9208 -0.4921 -0.3854
 5820TIP3   OH241654   2.469   5.635   5.343 -0.2700 -0.9399 -0.0520
 5820TIP3    H141655   2.395   5.684   5.378 -0.1421 -1.2851  0.7138
 5820TIP3    H241656   2.520   5.700   5.294 -0.9738 -0.6642 -0.4339
 5821TIP3   OH241657   1.611   5.464   5.279  0.0944  0.2143 -0.7866
 5821TIP3    H141658   1.522   5.498   5.292 -0.0559 -0.5675  0.4035
 5821TIP3    H241659   1.599   5.369   5.267  0.6530  0.2956 -2.1518
 5822TIP3   OH241660   4.993   6.846   5.472 -0.4587 -0.1842  0.0103
 5822TIP3    H141661   4.968   6.937   5.453 -1.5445 -0.6148 -0.7115
 5822TIP3    H241662   5.065   6.854   5.534  1.6552  1.2883 -2.3928
 5823TIP3   OH241663   6.516   2.221   6.663 -0.4197 -0.0427 -0.1265
 5823TIP3    H141664   6.610   2.205   6.674 -0.0861  2.2964  1.1101
 5823TIP3    H241665   6.482   2.139   6.628  2.0699 -0.9788 -0.6004
 5824TIP3   OH241666   5.160   2.797   4.264  0.1690  0.2424 -0.5167
 5824TIP3    H141667   5.249   2.804   4.301 -0.6351  0.8100  1.4632
 5824TIP3    H241668   5.148   2.879   4.216  0.5635  0.3515 -0.4343
 5825TIP3   OH241669   5.824   7.167   4.982  0.3714  0.4030  0.6294
 5825TIP3    H141670   5.768   7.108   4.931 -0.6178 -0.5330  2.6577
 5825TIP3    H241671   5.896   7.188   4.923 -1.2827  0.3733 -1.5413
 5826TIP3   OH241672   6.135   2.678   4.961 -0.4067  0.1831  0.4830
 5826TIP3    H141673   6.187   2.754   4.936  0.6649 -0.4653  0.6768
 5826TIP3    H241674   6.149   2.614   4.892 -0.1685 -0.3564  1.0184
 5827TIP3   OH241675   1.740   1.619   5.331  0.3886  0.1930 -0.0996
 5827TIP3    H141676   1.790   1.548   5.372 -0.4297 -0.8584 -0.8800
 5827TIP3    H241677   1.677   1.575   5.275 -0.3929  1.5445 -0.3204
 5828TIP3   OH241678   4.257   1.606   4.636  0.8436  0.0925  0.2325
 5828TIP3    H141679   4.234   1.513   4.634  0.4665  0.1185  1.8203
 5828TIP3    H241680   4.178   1.651   4.608  0.4209 -0.0129  1.2094
 5829TIP3   OH241681   6.638   6.199   3.655  0.4968  0.2027  0.6946
 5829TIP3    H141682   6.626   6.158   3.741 -1.3564 -2.0304 -0.5161
 5829TIP3    H241683   6.675   6.129   3.601  1.4510  1.5196 -0.4134
 5830TIP3   OH241684   3.768   1.058   5.607 -0.1588  0.2965  0.2652
 5830TIP3    H141685   3.721   0.974   5.614 -0.9589  0.6168 -0.9774
 5830TIP3    H241686   3.736   1.109   5.681  2.0039 -1.2212  2.4267
 5831TIP3   OH241687   5.447   5.025   6.758 -0.2811  0.2895 -0.7403
 5831TIP3    H141688   5.493   4.942   6.748  0.4450  0.5860 -0.0091
 5831TIP3    H241689   5.354   5.001   6.759 -0.0519 -0.6471  0.5534
 5832TIP3   OH241690   0.954   2.461   5.901  0.4343  0.1258  0.5767
 5832TIP3    H141691   0.937   2.546   5.941 -1.2673  0.0331  0.1352
 5832TIP3    H241692   0.967   2.401   5.974  0.5691  0.5595  0.9084
 5833TIP3   OH241693   5.709   5.822   4.562 -0.2231  0.5399 -0.0317
 5833TIP3    H141694   5.746   5.736   4.581  0.1319  0.4718 -0.9956
 5833TIP3    H241695   5.777   5.884   4.588 -0.4978  0.5350  0.7078
 5834TIP3   OH241696   1.308   0.033   5.637 -0.7855  0.6253 -0.1689
 5834TIP3    H141697   1.242  -0.037   5.642  0.0506 -0.0978  1.2150
 5834TIP3    H241698   1.391  -0.012   5.623 -0.3283  1.3870 -0.0029
 5835TIP3   OH241699   6.158   1.994   4.057  0.2848  0.4023 -0.5285
 5835TIP3    H141700   6.166   1.923   3.993 -2.3383  0.8359 -1.4398
 5835TIP3    H241701   6.115   1.955   4.132 -1.3298  0.9962 -1.1018
 5836TIP3   OH241702   6.431   4.594   6.020 -0.2140  0.0026  0.2853
 5836TIP3    H141703   6.488   4.595   5.943  0.6808  1.0337  0.9412
 5836TIP3    H241704   6.485   4.629   6.091 -2.4903  4.0820  0.3118
 5837TIP3   OH241705   7.365   3.273   5.586 -0.1889 -0.2700  0.3298
 5837TIP3    H141706   7.418   3.352   5.596 -0.7034  0.2121 -0.5680
 5837TIP3    H241707   7.337   3.275   5.494 -0.3356 -1.4182  0.3415
 5838TIP3   OH241708   5.182   5.098   6.171  0.3230  0.3445  0.6168
 5838TIP3    H141709   5.126   5.136   6.238  1.1032  1.2952  0.7577
 5838TIP3    H241710   5.221   5.173   6.126 -1.2463 -0.2210 -1.8715
 5839TIP3   OH241711   3.340   3.864   5.133 -0.3501  0.2823 -0.7010
 5839TIP3    H141712   3.285   3.795   5.169  1.2839 -0.4063  0.6018
 5839TIP3    H241713   3.406   3.818   5.082 -0.3591  1.0216 -1.3945
 5840TIP3   OH241714   2.794   3.952   5.290  0.6357  0.8168 -0.5646
 5840TIP3    H141715   2.734   3.886   5.256 -0.1967  0.8634  0.7356
 5840TIP3    H241716   2.872   3.944   5.236 -0.8322  1.3620 -2.8923
 5841TIP3   OH241717   2.156   0.114   4.628  0.0947  0.0710 -0.1880
 5841TIP3    H141718   2.246   0.141   4.611 -0.7483  3.7078  0.3879
 5841TIP3    H241719   2.154   0.094   4.722 -0.0830  2.0775  0.2734
 5842TIP3   OH241720   4.432   0.683   4.307  0.2882 -0.3527  0.2490
 5842TIP3    H141721   4.447   0.738   4.230 -0.4257  2.7549  2.1520
 5842TIP3    H241722   4.396   0.602   4.271  0.2067  0.8444 -2.7167
 5843TIP3   OH241723   1.055   1.906   4.911 -0.1900  0.2120 -0.1028
 5843TIP3    H141724   0.991   1.977   4.910 -1.1500 -0.5403  2.1295
 5843TIP3    H241725   1.035   1.854   4.833 -1.6616  0.5419  0.0285
 5844TIP3   OH241726   3.937   2.367   4.982 -0.0254  0.1468 -0.0734
 5844TIP3    H141727   3.842   2.363   4.990  0.1739 -1.5207  2.7705
 5844TIP3    H241728   3.962   2.282   4.945  0.4598 -0.2248  1.0791
 5845TIP3   OH241729   6.210   4.388   5.777  0.2125  0.0791 -0.8842
 5845TIP3    H141730   6.289   4.336   5.785  1.5942  1.8032 -2.3997
 5845TIP3    H241731   6.199   4.432   5.862  0.2543 -0.9727 -0.3284
 5846TIP3   OH241732   5.204   3.890   5.411  0.0042  0.0805 -0.1613
 5846TIP3    H141733   5.291   3.905   5.373  0.1204 -0.0932  0.0359
 5846TIP3    H241734   5.213   3.917   5.503 -0.4442  1.0990 -0.4066
 5847TIP3   OH241735   5.034   6.675   4.918 -0.0153  0.1752  0.1911
 5847TIP3    H141736   4.998   6.761   4.940 -0.3248 -0.1283  0.9147
 5847TIP3    H241737   5.069   6.686   4.829  0.0544  1.0724  0.3156
 5848TIP3   OH241738   2.341   5.009   5.542 -0.6064 -0.5206 -0.2690
 5848TIP3    H141739   2.260   5.020   5.493 -1.2568 -1.0028  0.6622
 5848TIP3    H241740   2.407   4.987   5.476 -0.7549  1.8086 -1.3152
 5849TIP3   OH241741   0.090   6.500   6.448 -0.0678 -0.3802  0.1931
 5849TIP3    H141742   0.183   6.482   6.444 -0.0415 -0.3059  0.4285
 5849TIP3    H241743   0.068   6.536   6.362  0.1411 -0.3022  0.1714
 5850TIP3   OH241744   3.989   3.427   4.069  0.2649 -0.3028 -0.0937
 5850TIP3    H141745   3.927   3.499   4.077  1.6806  0.8775  1.0588
 5850TIP3    H241746   4.014   3.427   3.977 -0.0979  0.3988 -0.1980
 5851TIP3   OH241747   4.660   4.476   6.211  0.2611 -0.3313  0.4297
 5851TIP3    H141748   4.642   4.386   6.184 -1.2394  0.2511 -0.6084
 5851TIP3    H241749   4.632   4.479   6.302 -2.2722 -0.2694 -0.2725
 5852TIP3   OH241750   2.639   5.846   4.712 -0.1093  0.8822  1.0358
 5852TIP3    H141751   2.677   5.886   4.790  1.1678  0.9735  0.3989
 5852TIP3    H241752   2.544   5.857   4.723 -0.0301  0.0877  2.9946
 5853TIP3   OH241753   2.715   0.122   5.608  0.4566 -0.2947  0.1822
 5853TIP3    H141754   2.731   0.178   5.684  1.4704 -0.8045  0.3610
 5853TIP3    H241755   2.627   0.146   5.579  0.6280  0.9390  0.6281
 5854TIP3   OH241756   4.549   7.038   6.519  0.3617 -0.1345  0.5826
 5854TIP3    H141757   4.515   6.994   6.596 -1.6938  1.2088  0.5342
 5854TIP3    H241758   4.473   7.082   6.481  1.6299  0.5751 -1.2965
 5855TIP3   OH241759   1.819   4.428   4.262  0.2418  0.4688  0.6699
 5855TIP3    H141760   1.758   4.493   4.228  0.0691 -0.1563 -0.2716
 5855TIP3    H241761   1.807   4.430   4.357 -2.5544 -0.8413  0.4665
 5856TIP3   OH241762   6.700   4.817   5.049 -0.2951  0.2911  0.7751
 5856TIP3    H141763   6.764   4.861   5.104  0.0411  1.4463 -0.4884
 5856TIP3    H241764   6.640   4.886   5.022 -1.7738 -0.6733  1.4889
 5857TIP3   OH241765   0.573   5.543   4.146 -0.4772  0.8310 -0.1216
 5857TIP3    H141766   0.630   5.470   4.121 -0.5729  0.8817 -0.5065
 5857TIP3    H241767   0.515   5.554   4.070 -0.2761  1.4959 -0.1774
 5858TIP3   OH241768   7.164   5.504   5.567  0.3845  0.1981  0.4140
 5858TIP3    H141769   7.128   5.417   5.584 -1.3704  0.4876 -1.4486
 5858TIP3    H241770   7.101   5.564   5.605  1.0794  0.7021  0.7968
 5859TIP3   OH241771   7.523   3.537   5.193  0.2995 -0.3442  0.3815
 5859TIP3    H141772   7.482   3.534   5.106 -0.7822  1.1990  0.7844
 5859TIP3    H241773   7.529   3.446   5.220  0.1939 -0.8181 -1.1112
 5860TIP3   OH241774   4.249   4.580   4.079 -0.3605  0.1555  0.7409
 5860TIP3    H141775   4.262   4.491   4.046 -0.0121  0.2820  0.5307
 5860TIP3    H241776   4.265   4.573   4.173 -1.5631 -0.2487  0.9435
 5861TIP3   OH241777   7.185   6.870   6.610  0.3403  0.5035 -0.4532
 5861TIP3    H141778   7.105   6.885   6.559  0.9199  0.9905 -1.2343
 5861TIP3    H241779   7.181   6.777   6.633  0.3164  0.1448 -1.8324
 5862TIP3   OH241780   0.676   0.736   5.136  0.3754  0.1687 -0.3442
 5862TIP3    H141781   0.657   0.791   5.212  2.2298 -1.5062  1.4981
 5862TIP3    H241782   0.593   0.726   5.091 -0.5984  1.9889  0.9516
 5863TIP3   OH241783   7.546   3.809   3.995 -0.2217  0.6951  0.2957
 5863TIP3    H141784   7.465   3.758   3.998  0.4595 -0.4186  3.1396
 5863TIP3    H241785   7.614   3.744   3.978  0.3362  1.1864  0.6364
 5864TIP3   OH241786   3.073   0.373   4.670  0.0290 -0.0837  0.6439
 5864TIP3    H141787   3.070   0.449   4.728  1.4124  0.2209  0.3614
 5864TIP3    H241788   3.044   0.300   4.725  0.5149  0.3356  1.4853
 5865TIP3   OH241789   6.868   2.478   4.307  0.4928 -0.0364  0.3282
 5865TIP3    H141790   6.843   2.387   4.289  1.4967  0.1780 -2.6073
 5865TIP3    H241791   6.791   2.529   4.282  0.6995  0.0471 -0.1476
 5866TIP3   OH241792   3.403   0.196   4.798  0.5936  0.2497 -0.1779
 5866TIP3    H141793   3.492   0.167   4.818  0.7918  1.6438  1.1982
 5866TIP3    H241794   3.394   0.182   4.704  1.9909 -0.6327 -0.2143
 5867TIP3   OH241795   0.035   2.066   4.909 -0.0083  0.5245  0.0227
 5867TIP3    H141796   0.100   2.120   4.864  2.0733 -1.4740  0.4427
 5867TIP3    H241797   0.086   2.005   4.961 -2.1409 -2.2246 -0.8085
 5868TIP3   OH241798   2.688   3.245   4.573 -0.0861  0.1774  0.1052
 5868TIP3    H141799   2.764   3.302   4.589  0.9732 -0.5847 -1.8658
 5868TIP3    H241800   2.654   3.227   4.660 -0.1554  3.3488  0.8678
 5869TIP3   OH241801   0.218   3.311   5.114  0.0510  0.2004 -0.2992
 5869TIP3    H141802   0.294   3.337   5.166  0.3979  3.4838 -2.1373
 5869TIP3    H241803   0.144   3.320   5.173  0.7754  0.0836  0.6491
 5870TIP3   OH241804   6.509   6.975   6.058 -0.4498  0.0869 -0.1547
 5870TIP3    H141805   6.480   6.913   5.991  0.8999  0.2840 -0.9571
 5870TIP3    H241806   6.439   6.975   6.123 -1.7755 -0.1606 -1.5276
 5871TIP3   OH241807   7.411   4.641   5.839  0.0331 -0.4214  0.5226
 5871TIP3    H141808   7.420   4.704   5.910  1.5518 -2.4853  2.3189
 5871TIP3    H241809   7.431   4.556   5.880 -0.9296 -1.9616 -1.9681
 5872TIP3   OH241810   3.335   4.934   4.660  0.3967 -0.3016 -0.0110
 5872TIP3    H141811   3.251   4.903   4.624  0.3175  1.0565 -1.1081
 5872TIP3    H241812   3.328   5.029   4.656  1.4735 -0.1562  1.1702
 5873TIP3   OH241813   1.270   7.277   5.914 -0.4324  0.5886 -0.3036
 5873TIP3    H141814   1.342   7.317   5.964  0.4674 -0.0624 -1.0546
 5873TIP3    H241815   1.294   7.291   5.822 -1.7723  1.2367 -0.5783
 5874TIP3   OH241816   6.120   2.497   4.282  0.6195 -0.6016  0.5139
 5874TIP3    H141817   6.081   2.423   4.236 -2.4240  2.2381 -2.0348
 5874TIP3    H241818   6.203   2.513   4.237 -0.4335 -0.3573 -1.4792
 5875TIP3   OH241819   1.104   3.804   5.289 -0.4259 -0.0917 -0.2449
 5875TIP3    H141820   1.200   3.800   5.292 -0.3451  0.2411 -1.6730
 5875TIP3    H241821   1.085   3.873   5.225 -1.6435  1.2253  1.4427
 5876TIP3   OH241822   0.941   5.003   4.954  0.1587  0.2343  0.3581
 5876TIP3    H141823   0.936   4.908   4.968  1.2302  0.2270  0.7264
 5876TIP3    H241824   0.951   5.040   5.042  0.2215  0.6549  0.1754
 5877TIP3   OH241825   5.642   7.665   5.754 -0.2696 -0.1072 -0.1426
 5877TIP3    H141826   5.657   7.643   5.846  1.0545  2.4029  0.3374
 5877TIP3    H241827   5.548   7.685   5.749 -0.6921 -1.8448  0.2321
 5878TIP3   OH241828   6.397   5.012   3.753  0.2120 -0.2316 -0.6373
 5878TIP3    H141829   6.421   4.927   3.791 -0.4805 -0.6675 -1.1338
 5878TIP3    H241830   6.399   4.996   3.658  0.1457  0.3332 -0.7350
 5879TIP3   OH241831   4.206   6.567   3.973 -0.1161 -0.2271 -0.2912
 5879TIP3    H141832   4.123   6.559   4.020 -0.0179 -2.1095 -0.3332
 5879TIP3    H241833   4.271   6.577   4.042 -0.3604  1.5390 -0.2680
 5880TIP3   OH241834   2.285   6.362   4.609 -0.6089 -0.0082 -0.3384
 5880TIP3    H141835   2.360   6.410   4.643 -0.3102 -1.6767  1.5973
 5880TIP3    H241836   2.323   6.290   4.559 -0.8908 -0.7741  0.5219
 5881TIP3   OH241837   4.776   1.692   5.126 -0.0542 -0.3743  0.1032
 5881TIP3    H141838   4.728   1.623   5.172 -1.0371 -0.8482 -1.5578
 5881TIP3    H241839   4.711   1.733   5.069  1.0307  0.4142 -0.6132
 5882TIP3   OH241840   6.994   5.315   6.639 -0.3857 -0.6959 -0.1781
 5882TIP3    H141841   6.914   5.367   6.623  1.2478  2.3059  0.6029
 5882TIP3    H241842   7.012   5.272   6.556 -1.3394  0.7852 -1.1928
 5883TIP3   OH241843   0.942   2.333   5.160  0.5103  0.2263 -0.1414
 5883TIP3    H141844   0.892   2.350   5.080 -0.0789 -0.8921 -0.0288
 5883TIP3    H241845   1.028   2.303   5.129  0.4453  0.2468 -0.3428
 5884TIP3   OH241846   0.728   5.733   4.908 -0.2227 -0.2428  0.5089
 5884TIP3    H141847   0.677   5.801   4.952 -0.5953 -0.3907  0.3100
 5884TIP3    H241848   0.736   5.763   4.818 -2.3986 -1.5474 -0.1893
 5885TIP3   OH241849   0.392   3.829   3.814 -0.6564 -0.3790 -0.0009
 5885TIP3    H141850   0.487   3.827   3.811 -0.4215  0.6321  3.3381
 5885TIP3    H241851   0.366   3.737   3.804  0.6406 -0.6870 -0.8219
 5886TIP3   OH241852   3.780   1.826   5.537  0.2523  0.1624  0.1390
 5886TIP3    H141853   3.716   1.767   5.577  0.4890  0.6108  1.2324
 5886TIP3    H241854   3.727   1.898   5.501  0.1456  0.8163  1.5392
 5887TIP3   OH241855   2.006   1.794   5.831  0.1727  0.5864 -0.3751
 5887TIP3    H141856   2.099   1.788   5.809  0.5552  1.1665  0.9929
 5887TIP3    H241857   1.978   1.878   5.794  0.3313  0.6785 -0.2860
 5888TIP3   OH241858   4.582   1.661   5.344 -0.0888  0.0155  0.0213
 5888TIP3    H141859   4.555   1.587   5.288 -0.2048  1.0199 -1.2969
 5888TIP3    H241860   4.500   1.702   5.370 -0.0222 -0.2930  0.7508
 5889TIP3   OH241861   1.103   3.032   5.042 -0.3222  0.2866 -0.3341
 5889TIP3    H141862   1.120   3.094   5.113 -0.2672  1.7147 -1.5294
 5889TIP3    H241863   1.162   2.959   5.060  0.9297  1.3652  0.1886
 5890TIP3   OH241864   7.333   2.855   6.345  0.2504  0.5615 -0.0428
 5890TIP3    H141865   7.414   2.804   6.347  0.2648  0.5744 -0.2377
 5890TIP3    H241866   7.277   2.809   6.283 -1.2147 -1.3816  2.5042
 5891TIP3   OH241867   3.609   5.743   6.115  0.0819 -0.5279  0.0016
 5891TIP3    H141868   3.585   5.779   6.200 -2.3388  0.3720 -0.9632
 5891TIP3    H241869   3.525   5.728   6.071  1.2441 -0.3343 -2.4682
 5892TIP3   OH241870   0.340   0.695   3.927  0.3784 -0.3944 -0.3592
 5892TIP3    H141871   0.372   0.782   3.903  0.8629 -0.1326  1.1347
 5892TIP3    H241872   0.378   0.678   4.014  1.1283 -2.5299 -1.0276
 5893TIP3   OH241873   2.369   0.908   4.965 -0.0710 -0.6855  0.1416
 5893TIP3    H141874   2.443   0.965   4.985 -0.0492 -0.8678  0.5997
 5893TIP3    H241875   2.373   0.894   4.870 -1.1590  1.5880 -0.3222
 5894TIP3   OH241876   0.660   7.291   4.095  0.1259 -0.3877  0.4526
 5894TIP3    H141877   0.717   7.234   4.044  3.0786  1.3537  1.5314
 5894TIP3    H241878   0.635   7.360   4.034 -0.6075 -0.9839  0.0625
 5895TIP3   OH241879   3.560   4.681   5.433 -0.4196  0.1516 -0.3578
 5895TIP3    H141880   3.489   4.663   5.371  0.5589 -1.5350 -1.0497
 5895TIP3    H241881   3.574   4.776   5.427 -1.5456  0.2775 -1.3602
 5896TIP3   OH241882   1.604   2.595   6.015 -0.3975  0.0748 -0.4839
 5896TIP3    H141883   1.557   2.512   6.017 -0.2147 -0.0535 -1.1829
 5896TIP3    H241884   1.680   2.578   5.958 -1.2126  1.1518 -1.9620
 5897TIP3   OH241885   4.854   2.102   4.036  0.5053 -0.2795 -0.2401
 5897TIP3    H141886   4.868   2.057   4.119 -1.7492 -0.5552  0.0616
 5897TIP3    H241887   4.770   2.069   4.005  0.9907  0.2784 -2.3500
 5898TIP3   OH241888   4.421   0.438   5.496  0.4376 -0.3606  0.3018
 5898TIP3    H141889   4.483   0.367   5.476 -0.7265 -0.9865 -1.3256
 5898TIP3    H241890   4.355   0.397   5.552  1.5227  0.3545  2.1983
 5899TIP3   OH241891   6.872   5.872   5.616 -0.2314  0.3250 -0.2830
 5899TIP3    H141892   6.888   5.924   5.537  0.4208  1.1275  0.3576
 5899TIP3    H241893   6.822   5.930   5.673  1.0032  0.4981  0.6731
 5900TIP3   OH241894   7.619   4.417   5.334 -0.2156 -0.6504  0.5661
 5900TIP3    H141895   7.556   4.388   5.268 -0.9801 -0.8922  1.3898
 5900TIP3    H241896   7.566   4.461   5.400  0.6490  0.4205  0.5730
 5901TIP3   OH241897   4.511   6.835   3.780  0.7789  0.3082 -0.4292
 5901TIP3    H141898   4.513   6.930   3.793  1.7044  0.4198 -1.2427
 5901TIP3    H241899   4.418   6.814   3.770  0.5016  1.0097  0.5434
 5902TIP3   OH241900   4.036   2.450   3.745  0.0125  0.4416  0.3482
 5902TIP3    H141901   3.956   2.497   3.722 -0.1792  0.2475  0.6154
 5902TIP3    H241902   4.104   2.491   3.692 -0.5833 -0.6795 -1.3994
 5903TIP3   OH241903   5.369   4.223   5.294  0.0335 -0.7958 -0.0626
 5903TIP3    H141904   5.378   4.263   5.380 -2.1728  1.9845 -0.9819
 5903TIP3    H241905   5.374   4.129   5.311 -0.9973 -0.3878  3.2139
 5904TIP3   OH241906   0.345   7.050   5.864  0.0984 -0.6201 -0.3798
 5904TIP3    H141907   0.328   7.104   5.787  0.2909 -0.2485 -0.1601
 5904TIP3    H241908   0.261   7.006   5.880 -0.2197  0.0201 -0.2378
 5905TIP3   OH241909   0.600   6.767   3.905  0.7840  0.0740  0.7792
 5905TIP3    H141910   0.693   6.788   3.917  0.5826  2.4053 -0.9140
 5905TIP3    H241911   0.555   6.850   3.924 -0.7181 -0.3797 -0.6423
 5906TIP3   OH241912   7.014   1.044   4.644  0.1272  0.2460 -0.2011
 5906TIP3    H141913   6.965   0.967   4.616 -1.4265  1.1668 -0.1247
 5906TIP3    H241914   6.961   1.118   4.615  1.7235  1.3068 -0.5201
 5907TIP3   OH241915   5.473   0.334   4.172 -0.3811 -0.5560  0.4093
 5907TIP3    H141916   5.393   0.282   4.161 -0.1254 -0.6123 -1.5479
 5907TIP3    H241917   5.442   0.421   4.196 -0.9300 -0.9904  1.3360
 5908TIP3   OH241918   0.600   3.248   6.117  0.4826 -0.2531  0.9089
 5908TIP3    H141919   0.514   3.206   6.116  0.0570  0.5699  1.5073
 5908TIP3    H241920   0.592   3.317   6.183  0.6364  1.8516 -1.1340
 5909TIP3   OH241921   1.009   5.020   6.962 -0.2099  0.7040  0.2436
 5909TIP3    H141922   0.932   5.039   6.908 -0.1522  0.8261  0.2051
 5909TIP3    H241923   0.986   5.053   7.049 -1.3438 -1.7493  0.9787
 5910TIP3   OH241924   3.240   6.271   5.256  0.0163 -0.0883 -0.4206
 5910TIP3    H141925   3.209   6.315   5.177 -0.3026  0.0400 -0.2253
 5910TIP3    H241926   3.335   6.283   5.254  0.0155 -0.1280 -0.8066
 5911TIP3   OH241927   7.015   0.713   4.896  0.0239  0.1798  0.3349
 5911TIP3    H141928   7.074   0.785   4.872 -0.6735  0.7807  0.3975
 5911TIP3    H241929   6.934   0.756   4.923 -0.1480 -0.6022  1.1080
 5912TIP3   OH241930   3.987   2.114   4.872 -0.1738  0.4209  0.4796
 5912TIP3    H141931   4.050   2.060   4.825 -1.2185  0.0099 -0.4876
 5912TIP3    H241932   3.941   2.053   4.930  1.7660  1.0650  2.8865
 5913TIP3   OH241933   4.551   6.727   5.094  0.4519 -0.6995 -0.6978
 5913TIP3    H141934   4.642   6.749   5.117  0.7119 -1.8580 -0.5452
 5913TIP3    H241935   4.500   6.754   5.170  0.4597  1.1754 -1.3002
 5914TIP3   OH241936   6.643   7.658   4.698 -0.2868  0.6795  0.1545
 5914TIP3    H141937   6.736   7.652   4.679 -0.1522  2.1717  0.2548
 5914TIP3    H241938   6.606   7.706   4.625 -1.0812 -0.2943 -0.1141
 5915TIP3   OH241939   7.344   3.512   6.656 -0.1874 -0.1902  0.0570
 5915TIP3    H141940   7.363   3.576   6.725 -0.0404  0.6483 -0.7438
 5915TIP3    H241941   7.422   3.457   6.652 -0.3006 -0.4140  0.7288
 5916TIP3   OH241942   3.149   1.598   5.781 -0.2823  0.0369  0.0001
 5916TIP3    H141943   3.179   1.610   5.871 -1.0790 -0.9611  0.4244
 5916TIP3    H241944   3.093   1.520   5.785 -0.6066  0.1839 -1.2942
 5917TIP3   OH241945   7.037   4.067   4.349  0.3269  0.2230 -0.0592
 5917TIP3    H141946   7.082   4.013   4.284 -0.6261  1.1294 -1.5490
 5917TIP3    H241947   7.093   4.065   4.426  0.6574 -2.3121 -0.2795
 5918TIP3   OH241948   2.028   5.854   5.694 -0.0394 -0.1143 -0.3071
 5918TIP3    H141949   2.035   5.949   5.690 -1.2975  0.1191  1.4431
 5918TIP3    H241950   2.109   5.825   5.735 -0.7154  0.5172  1.5965
 5919TIP3   OH241951   3.949   7.652   4.584  0.3405  0.1966 -0.3844
 5919TIP3    H141952   4.043   7.634   4.597  0.5339  2.3892  2.2268
 5919TIP3    H241953   3.947   7.734   4.536 -0.2724  0.1005 -0.5239
 5920TIP3   OH241954   2.803   5.567   5.663 -0.2030 -0.3554  0.0464
 5920TIP3    H141955   2.721   5.544   5.620 -0.0302  0.0207 -0.4895
 5920TIP3    H241956   2.812   5.502   5.733  0.5780 -2.3704 -1.8023
 5921TIP3   OH241957   4.389   5.213   4.573  0.1964  0.0778  0.3022
 5921TIP3    H141958   4.448   5.139   4.585  1.2822  1.0368  1.1431
 5921TIP3    H241959   4.447   5.290   4.575 -1.0765  1.0519  1.0948
 5922TIP3   OH241960   7.070   3.030   4.718 -0.3577 -0.0267  0.3726
 5922TIP3    H141961   6.999   3.079   4.759  0.3239  1.1247  0.2184
 5922TIP3    H241962   7.148   3.085   4.730  0.3060 -0.7604 -0.4092
 5923TIP3   OH241963   3.728   1.933   6.558  0.5066  0.4073 -0.0434
 5923TIP3    H141964   3.737   1.839   6.545  0.3533  0.1371  1.5699
 5923TIP3    H241965   3.769   1.949   6.643 -2.0078  1.2941  1.1092
 5924TIP3   OH241966   4.010   4.146   5.679  0.0295 -0.1925 -0.0415
 5924TIP3    H141967   4.079   4.145   5.614 -0.2948  0.9043 -0.4202
 5924TIP3    H241968   4.040   4.086   5.748  1.8344  1.0598  0.3049
 5925TIP3   OH241969   6.021   6.865   4.343  0.1562  0.1820  0.4819
 5925TIP3    H141970   6.111   6.832   4.344 -0.0706 -1.0089 -3.2266
 5925TIP3    H241971   5.970   6.794   4.303 -2.3898  1.0725  1.8840
 5926TIP3   OH241972   7.248   1.137   6.043 -0.0196 -0.6508 -0.3832
 5926TIP3    H141973   7.163   1.160   6.005  0.0056 -0.5582 -0.3831
 5926TIP3    H241974   7.247   1.175   6.131 -0.1152 -0.9449 -0.2556
 5927TIP3   OH241975   6.201   3.839   5.772 -0.3981  0.3832 -0.3994
 5927TIP3    H141976   6.219   3.871   5.683 -0.3005 -0.7947 -0.8321
 5927TIP3    H241977   6.107   3.820   5.772 -0.1834 -0.8238 -0.7017
 5928TIP3   OH241978   1.369   1.568   3.980  0.4562 -0.5832 -0.0351
 5928TIP3    H141979   1.433   1.581   4.050  1.4954  0.2404 -1.1120
 5928TIP3    H241980   1.287   1.548   4.026  0.8931  0.8419  1.4587
 5929TIP3   OH241981   2.085   2.415   5.355  0.0816 -0.3874 -0.4943
 5929TIP3    H141982   2.034   2.436   5.276  1.2318  0.5084 -1.0267
 5929TIP3    H241983   2.134   2.495   5.373  2.0459 -1.5210 -0.5786
 5930TIP3   OH241984   1.778   7.320   4.793  0.5111 -0.0025  0.0828
 5930TIP3    H141985   1.864   7.286   4.770  0.4566 -0.7767  0.9427
 5930TIP3    H241986   1.716   7.257   4.755  0.2347  1.4001 -1.9203
 5931TIP3   OH241987   3.949   2.855   4.600 -0.5206  0.0988 -0.3751
 5931TIP3    H141988   3.864   2.833   4.563 -0.8211  0.7209 -0.0741
 5931TIP3    H241989   3.932   2.874   4.692  0.2129 -1.3935  0.0947
 5932TIP3   OH241990   5.849   0.117   4.076  0.2532  0.0210  0.6418
 5932TIP3    H141991   5.801   0.054   4.022  1.6397 -0.2777 -0.2747
 5932TIP3    H241992   5.939   0.085   4.077  0.4830  0.6192  2.2587
 5933TIP3   OH241993   0.211   2.732   5.347 -0.2963 -0.2278  0.2686
 5933TIP3    H141994   0.219   2.821   5.382 -0.5308 -0.1613  0.1553
 5933TIP3    H241995   0.288   2.721   5.292 -1.0125  0.4526 -0.9263
 5934TIP3   OH241996   5.304   2.229   4.320  0.6198  0.0196  0.4209
 5934TIP3    H141997   5.305   2.207   4.227 -1.9551  1.0412  0.0830
 5934TIP3    H241998   5.363   2.304   4.327  0.9215 -0.1312 -0.3369
 5935TIP3   OH241999   7.114   6.619   3.904 -0.1745  0.3834  0.1365
 5935TIP3    H142000   7.142   6.678   3.975  0.4037 -0.3041  0.4875
 5935TIP3    H242001   7.043   6.568   3.942 -0.9348  1.0894 -0.2871
 5936TIP3   OH242002   6.617   4.974   5.815  0.5874  0.1105 -0.4453
 5936TIP3    H142003   6.590   4.995   5.726  1.1996 -0.0339 -0.6677
 5936TIP3    H242004   6.682   5.041   5.837  1.2038 -0.4675 -0.4892
 5937TIP3   OH242005   3.306   2.672   4.411 -0.3542 -0.2289 -0.1520
 5937TIP3    H142006   3.301   2.681   4.316 -1.4641  2.4341  0.0681
 5937TIP3    H242007   3.236   2.611   4.433 -0.3567 -0.5429 -0.9998
 5938TIP3   OH242008   0.254   5.469   4.173 -0.4281  0.6655 -0.3509
 5938TIP3    H142009   0.259   5.554   4.217  0.6125  0.3613  0.1657
 5938TIP3    H242010   0.301   5.409   4.231 -0.2045 -0.0379 -1.2300
 5939TIP3   OH242011   1.686   0.243   5.408 -0.1121 -0.1304  0.3272
 5939TIP3    H142012   1.703   0.330   5.444  0.4464  0.7884 -1.9892
 5939TIP3    H242013   1.772   0.201   5.407 -0.5359 -1.2002  2.4432
 5940TIP3   OH242014   3.624   2.362   6.375  0.3406  0.7285 -0.5495
 5940TIP3    H142015   3.541   2.333   6.339  0.6535  0.1456 -0.8229
 5940TIP3    H242016   3.613   2.357   6.470 -0.2178  1.4818 -0.5726
 5941TIP3   OH242017   1.533   3.583   4.533  0.4534 -0.0201  0.1697
 5941TIP3    H142018   1.452   3.632   4.545 -1.0989 -2.2560 -0.5473
 5941TIP3    H242019   1.563   3.606   4.445  0.8289  1.0760  0.5668
 5942TIP3   OH242020   6.077   2.243   4.172  0.9684  0.0564  0.2817
 5942TIP3    H142021   6.123   2.168   4.134  1.1861  0.4107 -0.1672
 5942TIP3    H242022   5.984   2.223   4.160  0.8390 -1.7863  3.3061
 5943TIP3   OH242023   1.063   6.537   4.965 -0.2251  0.2919 -0.3141
 5943TIP3    H142024   1.076   6.608   4.902  1.3954  0.1536 -0.1650
 5943TIP3    H242025   0.999   6.572   5.027  0.1565  1.4344 -0.5339
 5944TIP3   OH242026   2.830   4.193   5.693 -0.2411  0.5451  0.1597
 5944TIP3    H142027   2.870   4.181   5.606  1.2608  1.6831  0.6667
 5944TIP3    H242028   2.864   4.120   5.745  0.8299  1.2309  0.4502
 5945TIP3   OH242029   4.738   0.738   4.520 -0.0002 -0.5881 -0.0190
 5945TIP3    H142030   4.702   0.722   4.608  1.1222 -0.1921  0.5295
 5945TIP3    H242031   4.692   0.815   4.489 -0.8228 -1.0695 -0.0281
 5946TIP3   OH242032   1.009   0.472   6.706  0.2484  0.0610 -0.0439
 5946TIP3    H142033   1.070   0.441   6.639  1.3277  1.4695  0.2444
 5946TIP3    H242034   1.064   0.513   6.772 -0.8725 -0.4349  1.2589
 5947TIP3   OH242035   5.002   2.085   5.776  0.0507  0.1226  0.1865
 5947TIP3    H142036   5.096   2.092   5.760  0.0532  0.2182  0.2390
 5947TIP3    H242037   4.983   1.991   5.772  0.3592 -0.0089  1.3515
 5948TIP3   OH242038   5.350   7.363   5.036 -0.2978  0.2043 -0.1080
 5948TIP3    H142039   5.315   7.394   5.120 -1.6229  0.9931 -0.9161
 5948TIP3    H242040   5.374   7.444   4.990 -0.2236 -0.1874 -0.7547
 5949TIP3   OH242041   6.978   7.544   5.085  0.4314  0.3951  0.1853
 5949TIP3    H142042   7.002   7.630   5.052 -0.5541  0.0201 -1.6504
 5949TIP3    H242043   6.975   7.554   5.180 -0.4449  2.5825 -0.0198
 5950TIP3   OH242044   0.236   6.672   4.461  0.4491 -0.8237  0.2023
 5950TIP3    H142045   0.156   6.675   4.514  1.2289  0.6245  1.4057
 5950TIP3    H242046   0.264   6.581   4.465 -1.2941 -1.4173 -0.5114
 5951TIP3   OH242047   2.490   6.746   4.720  0.2183 -0.4761  0.0838
 5951TIP3    H142048   2.538   6.785   4.793  0.0592 -0.7108  0.3195
 5951TIP3    H242049   2.465   6.820   4.665  1.2000 -0.3953 -0.2599
 5952TIP3   OH242050   2.276   2.894   4.308 -0.2085  0.3355  0.0887
 5952TIP3    H142051   2.360   2.919   4.270  0.2469 -1.6701 -0.3327
 5952TIP3    H242052   2.217   2.889   4.234 -0.4625  0.7736  0.2576
 5953TIP3   OH242053   1.454   7.280   6.473  0.0674  0.2421  0.1226
 5953TIP3    H142054   1.456   7.224   6.550  0.6019 -0.9967 -0.7550
 5953TIP3    H242055   1.376   7.251   6.424  0.5533 -0.0108 -0.5202
 5954TIP3   OH242056   1.014   5.248   4.389 -0.2514  0.0959  0.3396
 5954TIP3    H142057   0.982   5.277   4.474  0.4987  0.2988  0.5606
 5954TIP3    H242058   0.936   5.246   4.333 -0.6436  0.5587  0.8641
 5955TIP3   OH242059   3.205   3.848   5.897  0.3559 -0.1870  0.1003
 5955TIP3    H142060   3.223   3.909   5.969 -0.7208 -0.3995  0.5616
 5955TIP3    H242061   3.216   3.900   5.818 -0.9801  0.7334  0.5021
 5956TIP3   OH242062   5.761   1.111  12.799  0.1631  0.2489  0.0847
 5956TIP3    H142063   5.836   1.052  12.811  0.8670  1.0907 -0.0344
 5956TIP3    H242064   5.689   1.053  12.776  1.4115 -0.4113 -2.5802
 5957TIP3   OH242065   6.467   1.625   6.088  0.1537  0.5308 -0.1160
 5957TIP3    H142066   6.404   1.566   6.046  0.4667  1.1370 -1.4984
 5957TIP3    H242067   6.474   1.593   6.178  0.0650 -1.3355 -0.7316
 5958TIP3   OH242068   4.311   6.581   5.740  0.0138  0.5897 -0.1808
 5958TIP3    H142069   4.250   6.525   5.693  0.4298  0.1235 -0.1802
 5958TIP3    H242070   4.344   6.526   5.812  2.0592  0.0441 -1.4347
 5959TIP3   OH242071   6.062   5.896   6.652 -0.2862  0.0324 -0.6227
 5959TIP3    H142072   6.124   5.836   6.694 -0.4628  0.6822  0.6070
 5959TIP3    H242073   6.117   5.959   6.606  0.1104  1.5624  1.7556
 5960TIP3   OH242074   6.907   3.282   4.189  0.1087 -0.2775  0.3387
 5960TIP3    H142075   6.914   3.269   4.284 -1.9663 -0.6253  0.4942
 5960TIP3    H242076   6.922   3.195   4.152 -2.4265 -0.9176  0.6285
 5961TIP3   OH242077   3.577   3.356   5.157 -0.2548 -0.2797  0.1253
 5961TIP3    H142078   3.508   3.415   5.126 -1.0270 -2.0508 -1.8088
 5961TIP3    H242079   3.531   3.276   5.180  0.9775 -0.8868  0.5351
 5962TIP3   OH242080   3.701   7.366   4.797  0.1792 -0.0918  0.3519
 5962TIP3    H142081   3.689   7.454   4.761  0.7040  0.8538  2.3563
 5962TIP3    H242082   3.637   7.312   4.751 -1.8244  1.8357  0.7433
 5963TIP3   OH242083   5.808   0.882   4.645  0.7943  0.0229 -0.0984
 5963TIP3    H142084   5.869   0.945   4.683 -0.8637  2.7773 -1.6460
 5963TIP3    H242085   5.864   0.819   4.599  2.6126  3.2708 -2.7742
 5964TIP3   OH242086   0.766   6.977   6.084  0.2504 -0.0469 -0.2022
 5964TIP3    H142087   0.726   6.921   6.151 -0.1403 -0.4301 -0.7470
 5964TIP3    H242088   0.800   7.052   6.133 -0.5124 -0.0560  0.3643
 5965TIP3   OH242089   4.031   6.383   5.298 -0.1984  0.2798  0.0514
 5965TIP3    H142090   3.982   6.462   5.320 -2.2272 -1.2764  1.4169
 5965TIP3    H242091   4.065   6.352   5.382 -0.6193 -1.0583 -0.2629
 5966TIP3   OH242092   3.762   5.590   4.408 -0.2561 -0.3816 -0.1690
 5966TIP3    H142093   3.802   5.605   4.322 -1.9635  1.0889 -0.7753
 5966TIP3    H242094   3.761   5.495   4.418  0.9987 -0.5378 -1.2612
 5967TIP3   OH242095   4.979   0.452   4.159  0.3206 -0.5258  0.2086
 5967TIP3    H142096   4.894   0.472   4.200 -0.1119  0.0323 -0.9074
 5967TIP3    H242097   4.956   0.413   4.074  1.1882 -2.0875  0.6521
 5968TIP3   OH242098   4.363   4.036   5.911  0.7764 -0.2596  0.3367
 5968TIP3    H142099   4.386   4.122   5.877  0.6724 -0.5640 -0.5206
 5968TIP3    H242100   4.267   4.031   5.903  0.8842 -0.8935 -0.7025
 5969TIP3   OH242101   4.231   5.890   4.526 -0.4554  0.0534  0.4540
 5969TIP3    H142102   4.178   5.811   4.538 -0.4994 -0.2948 -1.6746
 5969TIP3    H242103   4.273   5.878   4.441  0.3529  1.8722  0.5542
 5970TIP3   OH242104   6.563   0.792   4.394 -0.0914 -0.2835 -0.2995
 5970TIP3    H142105   6.619   0.837   4.331 -0.4660  1.4792  0.5901
 5970TIP3    H242106   6.623   0.734   4.441  0.9033  1.1852  0.2753
 5971TIP3   OH242107   6.156   0.808   4.947  0.0554 -0.3975  0.4666
 5971TIP3    H142108   6.131   0.728   4.993  0.5758  0.0290  1.5451
 5971TIP3    H242109   6.091   0.818   4.878  0.0291 -1.7849  0.2627
 5972TIP3   OH242110   7.524   3.312   6.592 -0.3708  0.4759  0.7723
 5972TIP3    H142111   7.468   3.246   6.550  0.0454 -0.7503  2.0602
 5972TIP3    H242112   7.606   3.307   6.543  0.0729 -0.8637  1.5890
 5973TIP3   OH242113   7.454   2.486   6.029 -0.7460 -0.0357  0.4183
 5973TIP3    H142114   7.413   2.489   5.942 -0.8082 -0.1003  0.4446
 5973TIP3    H242115   7.478   2.576   6.047  0.1051 -0.1569 -0.0640
 5974TIP3   OH242116   4.614   1.725   4.193 -0.3373  0.2024 -0.0726
 5974TIP3    H142117   4.629   1.812   4.231 -0.5711 -0.2520  1.0874
 5974TIP3    H242118   4.700   1.683   4.197 -0.1691  0.4597 -0.8619
 5975TIP3   OH242119   7.129   1.611   4.934 -0.0598 -0.0980 -0.1041
 5975TIP3    H142120   7.205   1.643   4.984  0.3208  1.4222 -1.5823
 5975TIP3    H242121   7.162   1.533   4.889  1.9801  2.4852 -3.6727
 5976TIP3   OH242122   3.088   3.219   6.162 -0.0142  0.0958  0.1981
 5976TIP3    H142123   3.030   3.222   6.238  0.1656 -0.9495  0.3999
 5976TIP3    H242124   3.165   3.171   6.193  0.1615 -0.1339 -0.5746
 5977TIP3   OH242125   0.038   6.197   4.426 -0.1097 -0.2832 -0.5914
 5977TIP3    H142126   0.013   6.153   4.508  0.0925  1.9527  0.7685
 5977TIP3    H242127   0.123   6.236   4.445  0.3307 -0.3893 -2.1903
 5978TIP3   OH242128   1.185   3.108   4.280 -0.0593  0.4294  0.3025
 5978TIP3    H142129   1.109   3.123   4.337  0.2733  0.8698  0.6344
 5978TIP3    H242130   1.227   3.193   4.273  0.6473  0.1015  0.4730
 5979TIP3   OH242131   1.886   5.521   3.891 -0.2495 -0.2387  0.0727
 5979TIP3    H142132   1.935   5.455   3.941 -0.2797 -0.1256  0.2518
 5979TIP3    H242133   1.829   5.470   3.833  0.9119 -0.3889 -0.9771
 5980TIP3   OH242134   0.932   6.243   5.550  0.6729 -0.6248 -0.4822
 5980TIP3    H142135   0.903   6.299   5.478 -0.0322 -0.6690 -0.2478
 5980TIP3    H242136   1.023   6.222   5.530  1.2068  1.2505 -0.1713
 5981TIP3   OH242137   0.168   6.793   5.692 -0.4277 -0.9205  0.0824
 5981TIP3    H142138   0.086   6.805   5.739 -0.2749  0.1742  0.0863
 5981TIP3    H242139   0.144   6.745   5.613 -1.0611 -0.6231  0.0933
 5982TIP3   OH242140   0.730   5.583   6.376  0.1684  0.2483  0.4660
 5982TIP3    H142141   0.808   5.556   6.327 -0.4519  0.1849 -0.5261
 5982TIP3    H242142   0.737   5.537   6.460 -0.0997 -1.8536 -0.5890
 5983TIP3   OH242143   5.743   3.870   3.632 -0.2994  0.1567 -0.2395
 5983TIP3    H142144   5.660   3.905   3.600 -0.2154 -0.0937 -0.7530
 5983TIP3    H242145   5.799   3.947   3.640 -0.2243  0.1955 -1.0227
 5984TIP3   OH242146   5.224   5.432   4.676 -0.2531 -0.0279  0.2257
 5984TIP3    H142147   5.273   5.350   4.683  1.4325  1.0871  3.1075
 5984TIP3    H242148   5.273   5.484   4.613  0.0892 -0.3126  0.2563
 5985TIP3   OH242149   1.885   5.593   6.611 -0.0210  0.2193  0.2373
 5985TIP3    H142150   1.961   5.558   6.657 -0.1033  0.6462  0.6988
 5985TIP3    H242151   1.825   5.518   6.605 -0.2471  0.2981  1.3245
 5986TIP3   OH242152   4.978   7.069   5.102 -0.2942  0.7043 -0.0097
 5986TIP3    H142153   5.003   7.162   5.108  1.5034  0.2281  0.6571
 5986TIP3    H242154   5.046   7.024   5.152 -0.6870 -1.0582 -1.0118
 5987TIP3   OH242155   3.003   3.416   4.650 -0.0816 -0.2479 -0.3164
 5987TIP3    H142156   3.031   3.342   4.596 -1.5647  0.2162 -1.7864
 5987TIP3    H242157   3.067   3.485   4.632 -0.6672 -0.0405 -1.6318
 5988TIP3   OH242158   2.590   0.926   6.727  0.0797  0.5846 -0.4194
 5988TIP3    H142159   2.535   0.994   6.766 -0.2320  0.1272 -0.0438
 5988TIP3    H242160   2.679   0.947   6.755  0.3820  2.2608 -2.3324
 5989TIP3   OH242161   7.495   1.217   5.459 -0.2469  0.5367  0.0982
 5989TIP3    H142162   7.411   1.171   5.464  0.4282 -0.9786 -1.5350
 5989TIP3    H242163   7.525   1.221   5.550 -2.0010  1.0266  0.7040
 5990TIP3   OH242164   3.437   0.419   5.924  0.7908 -0.1947 -0.0167
 5990TIP3    H142165   3.366   0.379   5.974  0.6437  0.4880  0.3291
 5990TIP3    H242166   3.515   0.368   5.947  0.9630  0.8148  1.8141
 5991TIP3   OH242167   6.596   0.086   4.982 -0.3398 -0.1403  0.0227
 5991TIP3    H142168   6.686   0.116   4.975 -0.7300  0.6639 -3.3560
 5991TIP3    H242169   6.547   0.141   4.920 -2.6976 -2.0955 -0.0299
 5992TIP3   OH242170   6.078   6.294   4.517  0.5898  0.5808 -0.3973
 5992TIP3    H142171   6.099   6.205   4.491 -0.3404 -0.2698  1.5614
 5992TIP3    H242172   5.994   6.313   4.474  0.6830  0.4273 -0.6442
 5993TIP3   OH242173   7.556   3.204   5.229  0.2292  0.0621 -0.0928
 5993TIP3    H142174   7.617   3.259   5.277 -0.3332 -2.1359  3.5032
 5993TIP3    H242175   7.473   3.212   5.277 -0.5055 -2.0504 -0.8847
 5994TIP3   OH242176   0.542   4.004   5.457  0.0342 -0.1092  0.1874
 5994TIP3    H142177   0.527   3.974   5.367 -0.5347  1.8066 -0.3993
 5994TIP3    H242178   0.631   3.973   5.478  0.2642 -0.3947 -1.1062
 5995TIP3   OH242179   5.816   1.366   4.835  0.0538  0.0154 -0.1975
 5995TIP3    H142180   5.839   1.359   4.742  0.1955 -1.3401 -0.0892
 5995TIP3    H242181   5.825   1.276   4.868  1.1631  0.6851  1.4107
 5996TIP3   OH242182   6.814   7.290   5.665  0.0179  0.6269 -0.9381
 5996TIP3    H142183   6.845   7.213   5.714  0.4834 -0.0843 -2.2940
 5996TIP3    H242184   6.719   7.290   5.678  0.2434  1.3298  1.1511
 5997TIP3   OH242185   2.204   3.411   4.299 -0.1069  0.1826 -0.3363
 5997TIP3    H142186   2.113   3.440   4.297 -0.5166 -1.0212 -0.0119
 5997TIP3    H242187   2.234   3.434   4.387  0.5604  2.3933 -1.0725
 5998TIP3   OH242188   3.087   3.203   3.586  0.1539  0.2145 -0.5726
 5998TIP3    H142189   3.089   3.205   3.682 -0.8679 -0.7421 -0.5195
 5998TIP3    H242190   3.156   3.141   3.562 -1.0697 -1.3105 -0.3371
 5999TIP3   OH242191   3.730   5.578   5.445 -0.3621 -0.2296  0.5258
 5999TIP3    H142192   3.667   5.635   5.488  0.4903  0.6346  0.6451
 5999TIP3    H242193   3.730   5.606   5.353  0.1964  0.0942  0.6231
 6000TIP3   OH242194   1.387   3.866   5.328 -0.1302  0.7298  0.6656
 6000TIP3    H142195   1.391   3.781   5.283  0.2218  1.1253 -0.0661
 6000TIP3    H242196   1.397   3.845   5.421 -0.4624 -0.0674  0.5286
 6001TIP3   OH242197   5.867   0.887   4.948  0.1147 -0.1320  0.2999
 6001TIP3    H142198   5.872   0.964   4.892 -2.2606 -1.0589 -1.3618
 6001TIP3    H242199   5.796   0.907   5.010 -1.2407 -1.2718 -0.8009
 6002TIP3   OH242200   2.842   4.600   5.500 -0.0298 -0.1304 -0.4592
 6002TIP3    H142201   2.784   4.540   5.453 -0.1985 -1.1559  1.0038
 6002TIP3    H242202   2.882   4.547   5.569 -0.7173  1.5736  1.3429
 6003TIP3   OH242203   0.993   4.457   6.397 -0.3200  0.3411  0.4064
 6003TIP3    H142204   0.941   4.459   6.477  1.8013  1.2396  1.8673
 6003TIP3    H242205   0.937   4.496   6.330 -1.2678  1.9928  2.0783
 6004TIP3   OH242206   6.114   5.132   4.179  0.0396 -0.7182  0.1189
 6004TIP3    H142207   6.117   5.224   4.204 -1.8748 -0.7597  0.6314
 6004TIP3    H242208   6.104   5.132   4.084 -1.3038 -0.3370  0.2431
 6005TIP3   OH242209   1.613   0.512   5.219 -0.0483  0.1247  0.2728
 6005TIP3    H142210   1.634   0.588   5.273  0.2011 -0.3406  0.8542
 6005TIP3    H242211   1.528   0.531   5.181  0.0960  0.7667  0.2715
 6006TIP3   OH242212   1.117   6.200   3.452  0.0302 -0.7692 -0.7081
 6006TIP3    H142213   1.102   6.111   3.421 -0.6147 -0.5755 -0.9762
 6006TIP3    H242214   1.031   6.242   3.446  0.0663 -0.4762  0.5292
 6007TIP3   OH242215   1.038   2.083   4.135 -0.1289  0.4043  0.3914
 6007TIP3    H142216   1.118   2.061   4.087 -0.0970 -0.8616  0.9891
 6007TIP3    H242217   1.046   2.038   4.219 -1.2752  0.6090  0.6368
 6008TIP3   OH242218   2.287   3.759   4.711  0.0443 -0.0655 -0.3423
 6008TIP3    H142219   2.250   3.706   4.782  1.3714 -0.4597  0.0983
 6008TIP3    H242220   2.378   3.774   4.738 -0.3989  2.8459 -0.2456
 6009TIP3   OH242221   1.751   1.311   6.076  0.0611  0.5937 -0.0637
 6009TIP3    H142222   1.726   1.219   6.069 -0.6471  0.7316  0.4268
 6009TIP3    H242223   1.668   1.359   6.070 -0.5034  0.9016  5.3459
 6010TIP3   OH242224   1.814   6.769   4.131  0.9986  0.7348 -0.7464
 6010TIP3    H142225   1.779   6.683   4.111  1.4576  0.2097  0.5449
 6010TIP3    H242226   1.839   6.763   4.224 -0.4842  2.7682 -0.1394
 6011TIP3   OH242227   3.144   3.485   3.556  0.3119  0.2801  0.3011
 6011TIP3    H142228   3.111   3.396   3.566  0.7641  0.2442  1.6075
 6011TIP3    H242229   3.074   3.541   3.589  0.2969  0.3753  0.1097
 6012TIP3   OH242230   0.502   2.603   4.319  0.3459 -0.1125 -0.0431
 6012TIP3    H142231   0.495   2.649   4.402  0.8510  2.4476 -1.3425
 6012TIP3    H242232   0.424   2.547   4.316 -0.5369  0.9670  1.4185
 6013TIP3   OH242233   0.273   1.519   5.490  0.1094 -0.5314 -0.3396
 6013TIP3    H142234   0.264   1.547   5.399  0.4368 -1.5114 -0.6821
 6013TIP3    H242235   0.360   1.481   5.495  0.8969  1.3006  0.8945
 6014TIP3   OH242236   1.080   3.196   5.263 -0.0002  0.0464  0.9417
 6014TIP3    H142237   1.158   3.250   5.252  0.4043 -0.7391 -0.2685
 6014TIP3    H242238   1.057   3.205   5.355  1.8214 -0.1063  1.4489
 6015TIP3   OH242239   1.111   7.374   5.151  0.1858 -0.0245 -0.3419
 6015TIP3    H142240   1.183   7.379   5.214  0.2618  0.6575 -0.4790
 6015TIP3    H242241   1.149   7.402   5.068 -0.0905 -0.2361 -0.5415
 6016TIP3   OH242242   6.373   1.942   5.796  0.0668  0.6185 -0.0008
 6016TIP3    H142243   6.366   1.889   5.876 -0.0111 -1.8968 -1.5385
 6016TIP3    H242244   6.465   1.968   5.792  1.0417 -2.4517 -0.8435
 6017TIP3   OH242245   1.360   0.597   6.583  0.0017 -0.2047 -0.5621
 6017TIP3    H142246   1.436   0.545   6.559 -0.3957 -1.0010 -0.1175
 6017TIP3    H242247   1.386   0.687   6.563  0.6267 -0.5796 -1.5084
 6018TIP3   OH242248   3.017   5.856   5.920 -0.4405 -0.4769  0.8820
 6018TIP3    H142249   2.932   5.856   5.965 -0.6702  0.2917  0.4565
 6018TIP3    H242250   3.077   5.894   5.984 -1.0878  2.2317  0.0018
 6019TIP3   OH242251   4.005   6.785   4.372 -0.2118  0.1455  0.2346
 6019TIP3    H142252   3.973   6.843   4.441  2.3412  1.4628  0.4297
 6019TIP3    H242253   4.079   6.740   4.412 -0.9943 -1.9191 -0.5210
 6020TIP3   OH242254   0.042   5.578   4.891  0.3683  0.5407  0.2701
 6020TIP3    H142255   0.137   5.566   4.894  0.3732  0.1837 -0.9726
 6020TIP3    H242256   0.007   5.504   4.941  0.7204  0.2925  0.1517
 6021TIP3   OH242257   4.667   0.723   5.131 -0.3333  0.2091 -0.1100
 6021TIP3    H142258   4.585   0.770   5.121 -1.0487 -0.6675  1.2883
 6021TIP3    H242259   4.676   0.672   5.051 -2.8155 -2.1353  0.9829
 6022TIP3   OH242260   3.225   7.471   4.045 -0.1071 -0.0133  0.4056
 6022TIP3    H142261   3.172   7.489   3.967 -0.6498  0.1957  0.8160
 6022TIP3    H242262   3.213   7.549   4.100  1.2633  0.3917  0.1630
 6023TIP3   OH242263   0.652   6.984   6.517  0.3428  0.6518 -0.2564
 6023TIP3    H142264   0.620   7.016   6.601 -2.9903  0.3851 -1.2583
 6023TIP3    H242265   0.633   7.055   6.456  1.2485  0.2313 -1.0562
 6024TIP3   OH242266   6.081   2.009   5.208  0.2255  0.4034 -0.3272
 6024TIP3    H142267   6.111   2.098   5.228  2.4096  0.3918 -2.8832
 6024TIP3    H242268   6.094   1.960   5.289  3.1595  1.4908 -0.0075
 6025TIP3   OH242269   4.967   0.058   4.300 -0.2702  0.0430  0.4577
 6025TIP3    H142270   4.989  -0.006   4.368 -1.9530 -1.0959 -0.0061
 6025TIP3    H242271   4.924   0.129   4.347  1.2883  0.7286  0.9297
 6026TIP3   OH242272   3.235   3.433   6.355  0.1397 -0.2399 -0.0210
 6026TIP3    H142273   3.176   3.506   6.337  0.0977 -0.0742  0.7836
 6026TIP3    H242274   3.177   3.359   6.371  0.1798 -0.4196 -0.6874
 6027TIP3   OH242275   4.619   0.344   5.063 -0.4343 -0.3599  0.1531
 6027TIP3    H142276   4.541   0.314   5.017 -0.5079 -2.5941  1.5628
 6027TIP3    H242277   4.691   0.301   5.016 -0.1788  0.4048 -0.1642
 6028TIP3   OH242278   5.062   0.755   4.798 -0.5978 -0.8919  0.8138
 6028TIP3    H142279   4.985   0.720   4.753 -1.2771 -0.1727  1.3879
 6028TIP3    H242280   5.051   0.850   4.794  1.7193 -0.6188 -1.6066
 6029TIP3   OH242281   3.693   7.586   4.555 -0.5101  0.6402  0.0739
 6029TIP3    H142282   3.781   7.620   4.575  0.8800 -2.5278 -0.0698
 6029TIP3    H242283   3.638   7.664   4.553  2.7699  3.2422 -2.7659
 6030TIP3   OH242284   0.552   4.467   3.850  0.2185  0.2315  0.1900
 6030TIP3    H142285   0.523   4.552   3.882 -0.3584  0.4798 -0.9557
 6030TIP3    H242286   0.528   4.406   3.919 -0.6175  0.8083  0.4224
 6031TIP3   OH242287   2.180   1.489   4.085 -0.2536  0.0827  0.3154
 6031TIP3    H142288   2.271   1.462   4.072 -0.0606 -0.0779  1.7661
 6031TIP3    H242289   2.175   1.508   4.179 -0.9140  3.1014 -0.2448
 6032TIP3   OH242290   4.069   7.197   3.868  0.4868  0.4944 -0.4441
 6032TIP3    H142291   4.097   7.168   3.782  0.9422 -1.1748  0.2319
 6032TIP3    H242292   4.123   7.148   3.930 -1.9764 -0.8082  0.8528
 6033TIP3   OH242293   3.610   5.109   4.395  0.1587 -0.4576 -0.7291
 6033TIP3    H142294   3.627   5.077   4.484  1.7368 -1.3735 -1.3279
 6033TIP3    H242295   3.549   5.047   4.358 -0.3725 -0.1686 -0.3484
 6034TIP3   OH242296   3.741   3.367   3.550  0.1791 -0.0653 -0.0286
 6034TIP3    H142297   3.660   3.414   3.573 -0.3194 -0.8615 -0.1292
 6034TIP3    H242298   3.810   3.416   3.594 -0.1383  1.7052 -1.3993
 6035TIP3   OH242299   7.196   2.686   6.162  0.6535  0.1077 -0.4436
 6035TIP3    H142300   7.231   2.634   6.089 -0.5915  0.9413 -1.6772
 6035TIP3    H242301   7.146   2.624   6.214 -0.0389 -0.1378 -1.3766
 6036TIP3   OH242302   0.547   7.185   6.378 -0.4182  0.1872 -0.1846
 6036TIP3    H142303   0.467   7.229   6.404 -0.8631 -0.2461 -0.8052
 6036TIP3    H242304   0.528   7.146   6.293  0.6400  0.5866 -0.6294
 6037TIP3   OH242305   0.649   5.879   7.032  0.2493  0.3524  0.3553
 6037TIP3    H142306   0.733   5.895   6.988  0.6199 -1.4091  0.3443
 6037TIP3    H242307   0.645   5.784   7.041 -1.4220  0.4607  1.0298
 6038TIP3   OH242308   3.295   6.397   4.751 -0.2588  0.0419 -0.7409
 6038TIP3    H142309   3.340   6.332   4.804  0.5144  1.1234 -0.0338
 6038TIP3    H242310   3.295   6.360   4.662 -2.5275 -2.2834  0.1096
 6039TIP3   OH242311   4.110   1.847   6.408  0.1055  0.5490 -0.0572
 6039TIP3    H142312   4.064   1.928   6.388  0.3271  1.1944  1.8856
 6039TIP3    H242313   4.163   1.830   6.329 -1.4523  1.1730 -1.2811
 6040TIP3   OH242314   1.436   4.624   6.113  0.1244 -0.7279 -0.5822
 6040TIP3    H142315   1.391   4.589   6.190 -0.4574  0.9350 -0.1320
 6040TIP3    H242316   1.436   4.552   6.051 -0.6490 -1.6627  0.4582
 6041TIP3   OH242317   1.109   6.633   5.695  0.9642  0.1604  0.0681
 6041TIP3    H142318   1.049   6.565   5.727 -0.2205  1.3927  0.5732
 6041TIP3    H242319   1.151   6.594   5.619  0.0366 -1.0049  0.1184
 6042TIP3   OH242320   5.574   6.386   6.102  0.1435  0.7132 -0.0365
 6042TIP3    H142321   5.590   6.315   6.040 -2.5840  1.3952 -1.7157
 6042TIP3    H242322   5.578   6.466   6.049 -0.9011  1.4335  0.9219
 6043TIP3   OH242323   4.223   1.729   6.634 -0.5362  0.2255  0.3155
 6043TIP3    H142324   4.196   1.790   6.565 -1.2848 -0.3237  0.1032
 6043TIP3    H242325   4.151   1.666   6.639  1.0559 -1.8007 -0.8344
 6044TIP3   OH242326   2.140   2.900   4.074 -0.5874 -0.3237 -0.0219
 6044TIP3    H142327   2.146   2.956   3.996 -2.5590 -0.6183 -0.4301
 6044TIP3    H242328   2.151   2.812   4.040  0.4180 -0.3460  0.3280
 6045TIP3   OH242329   0.083   3.904   5.198 -0.2913  0.3096 -0.1506
 6045TIP3    H142330   0.102   3.970   5.264  0.8293 -0.0836 -0.0522
 6045TIP3    H242331   0.147   3.919   5.129 -0.4483 -0.2623 -0.4319
 6046TIP3   OH242332   1.946   0.111   5.108  0.5101 -0.5183  0.2184
 6046TIP3    H142333   1.865   0.066   5.083  0.4799  0.0035 -0.6494
 6046TIP3    H242334   1.925   0.204   5.100  1.2745 -0.3810 -0.2710
 6047TIP3   OH242335   0.859   3.290   3.850 -0.2108 -0.0782 -0.0184
 6047TIP3    H142336   0.783   3.273   3.906 -1.2859 -0.2327 -1.4813
 6047TIP3    H242337   0.934   3.270   3.906 -1.2551 -0.9113  1.1523
 6048TIP3   OH242338   7.672   5.032   4.926  0.1018 -0.8680  0.7011
 6048TIP3    H142339   7.705   5.058   5.012 -0.6944  0.4864  0.6168
 6048TIP3    H242340   7.745   4.984   4.887 -0.1030 -3.0010  2.7515
 6049TIP3   OH242341   3.265   2.400   5.139  0.6603  0.8224  0.2793
 6049TIP3    H142342   3.330   2.342   5.099  0.4992  1.3799 -0.8111
 6049TIP3    H242343   3.208   2.426   5.066 -0.7328  0.4291  1.1802
 6050TIP3   OH242344   2.954   3.483   5.174  0.5290  0.0729 -0.1857
 6050TIP3    H142345   2.982   3.407   5.122  1.2076  1.1965 -1.5248
 6050TIP3    H242346   2.864   3.499   5.147  0.9026  0.6960 -1.0885
 6051TIP3   OH242347   4.696   4.708   5.901  0.1252  0.1873  0.1737
 6051TIP3    H142348   4.711   4.799   5.875  0.2876 -0.4176 -2.0122
 6051TIP3    H242349   4.661   4.666   5.823 -2.0131 -1.1687  1.7477
 6052TIP3   OH242350   2.498   0.094   4.368  0.0068 -0.3000 -0.2523
 6052TIP3    H142351   2.548   0.049   4.435 -1.7186  1.0861  2.1352
 6052TIP3    H242352   2.556   0.164   4.337  0.5547 -0.4739  0.3607
 6053TIP3   OH242353   7.349   5.519   4.413  0.4572  0.3040 -0.4617
 6053TIP3    H142354   7.280   5.545   4.352  0.6000 -0.0587 -0.7800
 6053TIP3    H242355   7.301   5.492   4.492  0.1981 -0.4553 -0.8699
 6054TIP3   OH242356   1.310   0.981   4.855  0.7681  0.2515 -0.0945
 6054TIP3    H142357   1.245   0.915   4.828 -0.0995  1.5797 -1.3853
 6054TIP3    H242358   1.368   0.989   4.779  2.1248 -0.4888  0.8297
 6055TIP3   OH242359   6.353   1.301   5.814  0.3372  0.2867 -0.2322
 6055TIP3    H142360   6.279   1.251   5.780  0.1834 -0.8807  1.6997
 6055TIP3    H242361   6.430   1.253   5.784  0.4968  2.0646 -3.1415
 6056TIP3   OH242362   6.023   0.253   4.741  1.1367  0.5474  0.2434
 6056TIP3    H142363   5.952   0.195   4.713  2.3808 -0.5071 -0.8615
 6056TIP3    H242364   5.979   0.332   4.772 -0.5463 -0.4210  0.4206
 6057TIP3   OH242365   2.372   2.380   6.238  0.3138 -0.6199 -0.1017
 6057TIP3    H142366   2.277   2.378   6.240  0.2766 -1.0743 -1.1748
 6057TIP3    H242367   2.394   2.346   6.151  1.4200  0.7752 -0.4011
 6058TIP3   OH242368   2.985   5.363   4.311 -0.3289 -0.0124  0.0482
 6058TIP3    H142369   2.979   5.410   4.394  1.3616 -1.9020  1.3178
 6058TIP3    H242370   2.932   5.284   4.324 -0.1155 -0.2963 -0.7211
 6059TIP3   OH242371   0.547   2.728   4.097 -0.4103 -0.7215 -0.2034
 6059TIP3    H142372   0.601   2.670   4.042  1.6761 -0.7455  1.7079
 6059TIP3    H242373   0.540   2.681   4.180 -1.8199  0.1844  0.2140
 6060TIP3   OH242374   7.291   6.260   5.201  1.0709  0.2844 -0.4766
 6060TIP3    H142375   7.216   6.201   5.205  1.1297  0.2260 -0.1969
 6060TIP3    H242376   7.352   6.219   5.140  1.8142 -0.7820  0.9032
 6061TIP3   OH242377   2.201   0.023   6.079 -0.1811 -0.2874  0.1092
 6061TIP3    H142378   2.214  -0.007   6.169 -0.9423 -1.1909 -0.0721
 6061TIP3    H242379   2.116  -0.011   6.054  0.4554 -0.9023 -1.3041
 6062TIP3   OH242380   6.796   4.047   2.102 -0.1941 -0.4506  0.2120
 6062TIP3    H142381   6.760   3.985   2.038 -0.3173 -0.8738  0.6844
 6062TIP3    H242382   6.804   3.996   2.183 -0.4051  0.1846  0.6403
 6063TIP3   OH242383   3.891   2.544   4.505  0.3363  0.1972 -0.5746
 6063TIP3    H142384   3.873   2.637   4.494 -1.4413 -0.0284  0.0814
 6063TIP3    H242385   3.840   2.519   4.582  1.0468 -1.2575 -0.5455
 6064TIP3   OH242386   5.023   2.341   4.341 -0.7897  0.5620 -0.1627
 6064TIP3    H142387   5.064   2.408   4.287 -0.4498 -1.0632 -2.0284
 6064TIP3    H242388   5.096   2.301   4.389 -0.7976  0.5914 -0.1263
 6065TIP3   OH242389   1.911   4.114   5.536  0.8337  0.1224  0.4555
 6065TIP3    H142390   1.860   4.164   5.473 -1.3963 -1.3052  1.0087
 6065TIP3    H242391   1.976   4.067   5.484  0.1182  0.2622 -0.5746
 6066TIP3   OH242392   6.141   6.534   4.114  0.0714 -0.1709 -0.2473
 6066TIP3    H142393   6.204   6.550   4.184  0.4146 -0.1577 -0.5585
 6066TIP3    H242394   6.126   6.440   4.116 -0.8885 -0.0140  0.6730
 6067TIP3   OH242395   6.366   7.043   4.710  0.5482  0.8019  0.0096
 6067TIP3    H142396   6.385   7.026   4.617  0.2111  2.6257 -0.4428
 6067TIP3    H242397   6.446   7.019   4.756  0.4864 -0.7759 -0.6558
 6068TIP3   OH242398   3.448   5.885   4.191  0.0919 -0.0293  0.1775
 6068TIP3    H142399   3.484   5.841   4.114 -0.8062 -0.3012 -0.0986
 6068TIP3    H242400   3.358   5.854   4.196 -0.7121  2.0627 -0.2401
 6069TIP3   OH242401   4.574   0.689   6.281  0.3714 -0.4343  0.3460
 6069TIP3    H142402   4.616   0.672   6.366 -1.9528  1.6829  2.0570
 6069TIP3    H242403   4.637   0.744   6.234  1.2647 -0.7619  1.1132
 6070TIP3   OH242404   0.741   2.385   5.356  0.0405 -0.1030  0.0157
 6070TIP3    H142405   0.693   2.450   5.306  0.0476 -0.7495 -0.8639
 6070TIP3    H242406   0.796   2.340   5.291  1.9698  0.7082  0.9942
 6071TIP3   OH242407   5.387   4.245   5.581  0.5220  0.0416  0.0681
 6071TIP3    H142408   5.296   4.260   5.608  0.8481  1.6036  0.3984
 6071TIP3    H242409   5.434   4.228   5.662  0.5592 -0.6053 -0.0861
 6072TIP3   OH242410   5.186   4.025   4.772  0.2009  0.1716  0.2124
 6072TIP3    H142411   5.193   3.931   4.791  0.9595  0.5182  1.9135
 6072TIP3    H242412   5.095   4.038   4.746  0.2924 -1.1503 -0.8918
 6073TIP3   OH242413   0.996   5.909   4.035  0.4683  0.4153 -0.1846
 6073TIP3    H142414   0.950   5.990   4.011 -0.3883  0.2857  0.9394
 6073TIP3    H242415   1.016   5.867   3.951 -3.4296 -0.5938 -0.8405
 6074TIP3   OH242416   1.929   4.065   4.485 -0.0265 -0.3980  0.3941
 6074TIP3    H142417   1.928   4.095   4.576 -2.0795 -1.5777  0.8172
 6074TIP3    H242418   1.986   3.988   4.485  0.8062  0.2124  0.4523
 6075TIP3   OH242419   1.087   0.404   5.259  0.2788 -0.4801  0.3849
 6075TIP3    H142420   1.081   0.333   5.195  0.3079 -0.9387  0.8877
 6075TIP3    H242421   0.999   0.441   5.262  0.0281 -1.0777  0.7732
 6076TIP3   OH242422   1.174   1.217   5.368  0.1964  0.1177  0.3443
 6076TIP3    H142423   1.188   1.226   5.274  2.8782 -0.8757  0.5590
 6076TIP3    H242424   1.122   1.294   5.392  0.3959  0.9743 -1.7587
 6077TIP3   OH242425   2.412   1.358   4.039 -0.3360  0.4893  0.5198
 6077TIP3    H142426   2.407   1.287   3.975 -2.3729  1.4412 -0.4344
 6077TIP3    H242427   2.481   1.329   4.100 -0.3199 -1.7697 -0.4548
 6078TIP3   OH242428   6.806   0.380   5.624  0.1303 -0.8458 -0.4432
 6078TIP3    H142429   6.729   0.370   5.681  0.0753  0.7136 -0.2194
 6078TIP3    H242430   6.881   0.372   5.683  0.0775  0.4452 -0.1755
 6079TIP3   OH242431   4.626   3.752   5.059  0.9259  0.0619 -0.3362
 6079TIP3    H142432   4.626   3.751   5.155 -1.8595  0.9293 -0.2206
 6079TIP3    H242433   4.642   3.661   5.034 -0.1233 -0.5316  1.0331
 6080TIP3   OH242434   2.347   5.892   4.109 -0.2035  0.3606  0.4768
 6080TIP3    H142435   2.265   5.855   4.077 -1.4231  1.9587  1.6003
 6080TIP3    H242436   2.415   5.846   4.060 -1.7557 -1.0572 -0.4324
 6081TIP3   OH242437   7.540   5.026   5.432  0.3766  0.5538 -0.7393
 6081TIP3    H142438   7.529   4.931   5.433  0.0130  0.6024  0.4433
 6081TIP3    H242439   7.635   5.039   5.443  0.4180  0.3347 -0.8399
 6082TIP3   OH242440   0.729   5.279   4.195 -1.2590  0.0021 -0.0251
 6082TIP3    H142441   0.692   5.295   4.108  1.4271 -1.6662 -1.5918
 6082TIP3    H242442   0.726   5.184   4.206  0.5921 -0.0226  0.6424
 6083TIP3   OH242443   1.439   6.171   5.457  0.0699  0.5185  0.4743
 6083TIP3    H142444   1.421   6.081   5.484 -0.6102  0.3398 -0.4988
 6083TIP3    H242445   1.531   6.185   5.479  0.5938 -0.9309 -0.6636
 6084TIP3   OH242446   1.462   2.144   5.800 -0.8405 -0.3435  0.2007
 6084TIP3    H142447   1.477   2.052   5.821 -0.5178 -0.2786  0.2605
 6084TIP3    H242448   1.494   2.153   5.710  2.9412  0.5896  1.4472
 6085TIP3   OH242449   4.532   0.633   4.688  0.6802  0.0973  0.0533
 6085TIP3    H142450   4.467   0.689   4.646  0.3608  1.5996  2.3358
 6085TIP3    H242451   4.496   0.545   4.681  0.0065  0.4707 -1.5515
 6086TIP3   OH242452   1.397   3.369   6.406  0.0284 -0.5960  0.2955
 6086TIP3    H142453   1.470   3.359   6.345 -0.7997 -2.2858 -0.4889
 6086TIP3    H242454   1.384   3.463   6.412  0.4416 -0.3555 -1.7858
 6087TIP3   OH242455   2.111   7.424   4.261 -0.3762  0.1292  0.2170
 6087TIP3    H142456   2.183   7.485   4.274  0.8968 -0.9750 -1.2827
 6087TIP3    H242457   2.037   7.478   4.233  0.2453  1.1189  0.4692
 6088TIP3   OH242458   4.073   0.868   3.658  0.6096 -0.1023 -0.1011
 6088TIP3    H142459   4.097   0.810   3.586 -1.1175  0.8948 -1.5832
 6088TIP3    H242460   4.086   0.816   3.737  0.4782 -2.0099 -1.2837
 6089TIP3   OH242461   7.320   7.099   5.295 -0.0448 -0.0612 -0.3863
 6089TIP3    H142462   7.273   7.125   5.374  1.0087  1.9569 -0.3529
 6089TIP3    H242463   7.284   7.155   5.226 -0.0710 -0.9179 -1.0936
 6090TIP3   OH242464   3.143   3.686   5.531 -0.0620 -0.7504  0.0116
 6090TIP3    H142465   3.230   3.727   5.524  0.2894 -1.6776 -1.5121
 6090TIP3    H242466   3.135   3.662   5.623  1.2230 -0.4687  0.2122
 6091TIP3   OH242467   5.184   4.860   6.008  0.1186 -0.0597 -0.0485
 6091TIP3    H142468   5.144   4.817   6.084 -0.5776 -1.8805 -1.3754
 6091TIP3    H242469   5.216   4.944   6.042  0.1995 -0.9781  2.3254
 6092TIP3   OH242470   1.165   5.991   5.704 -0.0279 -0.3075 -0.1297
 6092TIP3    H142471   1.163   5.993   5.799 -0.4026  0.5500 -0.1509
 6092TIP3    H242472   1.194   6.078   5.678  1.2574 -0.9067 -0.7831
 6093TIP3   OH242473   0.353   3.638   5.136  0.4959  0.5049 -0.1444
 6093TIP3    H142474   0.261   3.629   5.162 -0.0842  0.8654 -1.9140
 6093TIP3    H242475   0.373   3.557   5.090  1.1243  0.3814  0.3336
 6094TIP3   OH242476   2.366   3.499   5.236 -0.0553  0.2608  0.4463
 6094TIP3    H142477   2.385   3.441   5.310 -2.0384  1.2413  1.7985
 6094TIP3    H242478   2.273   3.485   5.218  0.2086  0.6395 -1.3760
 6095TIP3   OH242479   6.199   2.240   6.545 -0.4455 -0.4132 -0.4364
 6095TIP3    H142480   6.115   2.212   6.582 -1.2927  1.9947 -0.3685
 6095TIP3    H242481   6.186   2.234   6.450 -0.6041 -0.2679 -0.4235
 6096TIP3   OH242482   0.217   7.390   4.996 -0.3952  0.1742  0.1333
 6096TIP3    H142483   0.158   7.315   4.993 -0.3173  0.1019  0.3285
 6096TIP3    H242484   0.197   7.441   4.918 -0.1267 -0.2963 -0.2436
 6097TIP3   OH242485   4.810   0.198   5.889 -0.2884  0.5502  0.3404
 6097TIP3    H142486   4.795   0.119   5.837 -0.0461  0.7185  0.0094
 6097TIP3    H242487   4.779   0.176   5.976  0.0634 -0.0204  0.3280
 6098TIP3   OH242488   5.606   3.783   6.318 -0.2309 -0.4560  0.0068
 6098TIP3    H142489   5.513   3.767   6.335  0.1356 -0.5947  2.2242
 6098TIP3    H242490   5.621   3.872   6.350  0.3472 -0.3025 -0.6546
 6099TIP3   OH242491   2.501   2.776   4.910  0.3301 -0.1232  0.1773
 6099TIP3    H142492   2.577   2.829   4.889 -0.5883  0.6155 -1.4845
 6099TIP3    H242493   2.426   2.830   4.884 -0.9070 -0.0205  3.4606
 6100TIP3   OH242494   3.559   1.027   4.129  0.7008  0.0136 -0.3348
 6100TIP3    H142495   3.593   0.964   4.193  0.8908 -1.3996 -1.7845
 6100TIP3    H242496   3.466   1.007   4.123  1.3058 -2.6949 -3.4140
 6101TIP3   OH242497   0.306   4.101   3.819  0.1019 -0.2015  0.1291
 6101TIP3    H142498   0.324   4.013   3.786  0.7277 -1.5321  3.5834
 6101TIP3    H242499   0.223   4.093   3.864  0.5649  0.7264  1.1923
 6102TIP3   OH242500   1.365   1.197   6.724 -0.0891 -0.0515 -0.2504
 6102TIP3    H142501   1.367   1.289   6.698 -0.4585  0.3717  1.1091
 6102TIP3    H242502   1.441   1.158   6.680 -0.2275  0.7736 -1.2540
 6103TIP3   OH242503   4.744   3.437   5.481 -0.3317 -0.1433 -0.7465
 6103TIP3    H142504   4.719   3.347   5.502  1.5641 -0.5505  0.0381
 6103TIP3    H242505   4.746   3.482   5.566  1.6104 -0.1974 -0.7196
 6104TIP3   OH242506   7.452   3.718   6.117  0.0678 -0.3065 -1.0983
 6104TIP3    H142507   7.487   3.761   6.195 -0.5603  1.2676 -1.6363
 6104TIP3    H242508   7.512   3.744   6.047 -0.5869  0.1037 -1.5202
 6105TIP3   OH242509   1.029   2.431   4.535 -0.1392  0.2146 -0.7673
 6105TIP3    H142510   0.960   2.382   4.490 -0.6949  0.0896  0.1958
 6105TIP3    H242511   1.109   2.409   4.487 -0.9023  1.2282 -2.5928
 6106TIP3   OH242512   6.919   0.670   5.505  0.0080  0.2660  0.1898
 6106TIP3    H142513   7.002   0.680   5.551 -0.2789 -0.6455  0.9210
 6106TIP3    H242514   6.912   0.750   5.451  0.1236  1.6122  2.0716
 6107TIP3   OH242515   5.611   0.345   5.279  0.1734  0.0473 -0.0275
 6107TIP3    H142516   5.597   0.340   5.184  0.9592 -1.6270 -0.0831
 6107TIP3    H242517   5.705   0.332   5.290  0.0421 -0.0949  1.0051
 6108TIP3   OH242518   2.630   4.234   5.283 -0.4971  0.8687 -0.1903
 6108TIP3    H142519   2.639   4.285   5.363 -1.2220 -1.7654  1.7076
 6108TIP3    H242520   2.719   4.209   5.259 -0.3756  0.5789  0.5587
 6109TIP3   OH242521   6.230   3.064   3.881  0.3881 -0.1994 -0.3970
 6109TIP3    H142522   6.215   3.113   3.962 -0.9377  1.4743 -1.5839
 6109TIP3    H242523   6.176   2.986   3.891  0.9502 -0.4803  0.6861
 6110TIP3   OH242524   6.365   0.121   4.233  0.1026 -0.4177 -0.1332
 6110TIP3    H142525   6.396   0.204   4.196  0.8657 -0.5185  0.2645
 6110TIP3    H242526   6.385   0.057   4.165  0.1252 -0.3752 -0.1674
 6111TIP3   OH242527   5.386   6.386   6.559  0.0417 -0.6923 -0.5903
 6111TIP3    H142528   5.438   6.353   6.632  0.9189  0.8732 -0.4579
 6111TIP3    H242529   5.431   6.353   6.481  1.4169  0.7459 -0.4844
 6112TIP3   OH242530   4.638   0.055   5.020  0.3113  0.4105  0.3986
 6112TIP3    H142531   4.615  -0.016   4.961 -0.0767  0.0037  1.0192
 6112TIP3    H242532   4.555   0.077   5.064  0.4905  1.0321  0.4418
 6113TIP3   OH242533   6.815   5.188   5.203  0.6531  0.1806 -0.3204
 6113TIP3    H142534   6.829   5.095   5.187 -0.9965  0.0644 -1.2302
 6113TIP3    H242535   6.828   5.198   5.298  3.8391 -0.3596 -0.5618
 6114TIP3   OH242536   5.742   2.546   4.918 -0.7273  0.0417 -0.0531
 6114TIP3    H142537   5.749   2.589   4.833  0.7601 -0.5463 -0.2619
 6114TIP3    H242538   5.693   2.466   4.901 -0.1701 -0.2285 -0.4403
 6115TIP3   OH242539   7.110   5.231   4.156 -0.0730  0.0289  0.3003
 6115TIP3    H142540   7.023   5.237   4.118  0.9730 -2.8826 -3.1162
 6115TIP3    H242541   7.161   5.299   4.110 -0.0212  0.1450  0.5294
 6116TIP3   OH242542   4.103   3.517   5.673 -0.1881  0.4772  0.0500
 6116TIP3    H142543   4.142   3.478   5.595 -0.4664 -1.4305  0.8048
 6116TIP3    H242544   4.159   3.592   5.694  0.1649  0.7223 -1.6785
 6117TIP3   OH242545   0.407   1.866   4.610  0.6151  0.6779 -0.0704
 6117TIP3    H142546   0.370   1.830   4.529  1.5925 -1.8240  0.4992
 6117TIP3    H242547   0.372   1.955   4.614 -3.3705 -0.6301 -0.8081
 6118TIP3   OH242548   2.702   6.155   4.067  0.1255 -0.8495  0.0035
 6118TIP3    H142549   2.776   6.116   4.113 -0.2128 -0.1947  1.1220
 6118TIP3    H242550   2.716   6.249   4.074 -1.0204 -0.7126  0.5707
 6119TIP3   OH242551   3.322   3.362   4.324  0.7231 -0.7655  0.8571
 6119TIP3    H142552   3.395   3.381   4.264 -0.6516  0.6165 -0.4776
 6119TIP3    H242553   3.276   3.289   4.283 -0.1705  0.1271  0.2108
 6120TIP3   OH242554   0.722   0.317   5.181  0.2059  0.0767  0.4537
 6120TIP3    H142555   0.728   0.401   5.226 -0.0188  0.3958 -0.1040
 6120TIP3    H242556   0.776   0.328   5.102  0.3990 -0.3938  0.5160
 6121TIP3   OH242557   1.000   4.729   5.048 -0.4500 -0.8812  0.0869
 6121TIP3    H142558   1.020   4.642   5.084 -0.8136 -0.9640  0.0935
 6121TIP3    H242559   1.083   4.776   5.050 -0.0641 -1.5058 -0.6751
 6122TIP3   OH242560   0.081   1.740   4.855  0.1263  0.2065 -0.0007
 6122TIP3    H142561   0.080   1.644   4.860 -0.7241  0.1387 -1.1535
 6122TIP3    H242562   0.167   1.764   4.891 -1.0553 -0.7106  3.8963
 6123TIP3   OH242563   3.711   3.098   6.287  0.1763  0.4315 -0.1439
 6123TIP3    H142564   3.672   3.184   6.274  0.2978  0.5286  0.1358
 6123TIP3    H242565   3.794   3.103   6.240  1.7215  1.5712  2.4747
 6124TIP3   OH242566   6.376   0.030   5.118  1.0413 -0.1208 -0.3888
 6124TIP3    H142567   6.459   0.051   5.076  0.3889  1.5553 -0.9415
 6124TIP3    H242568   6.348   0.112   5.159  0.8068 -1.2741  1.8957
 6125TIP3   OH242569   5.028   1.675   5.000 -0.0746  0.0707  0.2679
 6125TIP3    H142570   4.954   1.679   5.060  0.5536  1.0854  0.9979
 6125TIP3    H242571   5.043   1.765   4.973  0.8194 -0.1395  0.0259
 6126TIP3   OH242572   4.419   2.183   5.028 -0.4519  0.0956  0.2506
 6126TIP3    H142573   4.368   2.210   5.104 -1.3590 -1.2800  0.1542
 6126TIP3    H242574   4.368   2.113   4.988 -0.0823  0.9083 -1.7483
 6127TIP3   OH242575   4.496   5.262   4.214 -0.3276 -0.4883 -0.3548
 6127TIP3    H142576   4.573   5.278   4.158 -0.5085  2.1267  0.0052
 6127TIP3    H242577   4.533   5.239   4.299  0.1141  0.6586 -0.2096
 6128TIP3   OH242578   0.845   0.412   4.260 -0.2282 -0.3095 -0.4695
 6128TIP3    H142579   0.844   0.393   4.166  0.6186 -1.8485 -0.1974
 6128TIP3    H242580   0.922   0.366   4.294 -1.0907 -0.6401  1.1556
 6129TIP3   OH242581   0.903   1.092   4.374  0.3744  0.7165  0.4665
 6129TIP3    H142582   0.839   1.022   4.359  0.8504  0.6775 -1.6979
 6129TIP3    H242583   0.974   1.049   4.422  0.2401 -0.0668 -0.0106
 6130TIP3   OH242584   7.124   2.078   5.520  0.2243  0.2824  0.4148
 6130TIP3    H142585   7.101   2.106   5.432  0.8753  0.5518  0.3243
 6130TIP3    H242586   7.078   2.140   5.577 -0.5514 -0.1618  0.2849
 6131TIP3   OH242587   2.981   7.146   5.362  0.5013  0.0941  0.3657
 6131TIP3    H142588   2.936   7.204   5.301 -0.2079 -0.8987 -0.0864
 6131TIP3    H242589   3.074   7.167   5.352  0.2900  0.8389 -0.0948
 6132TIP3   OH242590   4.757   7.603   5.273 -0.2662 -0.0163 -0.1364
 6132TIP3    H142591   4.821   7.653   5.324 -0.2098 -0.5873  0.3601
 6132TIP3    H242592   4.708   7.669   5.226 -0.4416  0.5449  0.8018
 6133TIP3   OH242593   3.186   2.881   4.970 -0.0461 -0.3701  0.6156
 6133TIP3    H142594   3.250   2.811   4.955 -1.0048 -0.8503 -1.5189
 6133TIP3    H242595   3.176   2.884   5.065  1.5787 -1.6848  0.8766
 6134TIP3   OH242596   7.254   7.365   4.742  0.0398  1.0028 -0.7221
 6134TIP3    H142597   7.252   7.276   4.775 -0.9350  0.6513 -1.6865
 6134TIP3    H242598   7.180   7.409   4.785  2.5734  2.4808  2.6234
 6135TIP3   OH242599   2.444   1.339   5.815  0.2466  0.3506  0.5095
 6135TIP3    H142600   2.496   1.379   5.885  1.0517 -0.0635  0.1605
 6135TIP3    H242601   2.458   1.396   5.739  0.6338 -0.0602  0.2690
 6136TIP3   OH242602   4.182   6.399   4.320  0.1025  0.2840  0.4762
 6136TIP3    H142603   4.182   6.494   4.311  0.2720  0.2335 -0.0674
 6136TIP3    H242604   4.215   6.367   4.236 -0.8255 -0.2817  0.3177
 6137TIP3   OH242605   1.204   7.305   6.213 -0.7229 -0.2840 -0.3719
 6137TIP3    H142606   1.290   7.327   6.176 -0.4543 -0.9117 -0.1359
 6137TIP3    H242607   1.215   7.217   6.248 -1.1276  0.0823  0.7169
 6138TIP3   OH242608   4.055   5.971   3.948 -0.5530  0.2863 -0.3692
 6138TIP3    H142609   3.959   5.973   3.946 -0.5864  2.2431  0.6999
 6138TIP3    H242610   4.076   5.906   4.016 -1.0229 -1.4991 -1.8462
 6139TIP3   OH242611   1.713   2.334   4.079  0.0764 -0.2319 -0.3820
 6139TIP3    H142612   1.784   2.393   4.054  0.0683 -0.2456 -0.4387
 6139TIP3    H242613   1.642   2.392   4.106 -0.0406 -0.2088 -0.7352
 6140TIP3   OH242614   2.648   2.043   3.685  0.0592  0.1478  0.1980
 6140TIP3    H142615   2.678   1.965   3.639  0.9012  0.0931  0.8201
 6140TIP3    H242616   2.558   2.022   3.712  0.8580 -1.3470  1.9319
 6141TIP3   OH242617   7.423   3.109   6.430 -0.3539 -0.1850  0.2606
 6141TIP3    H142618   7.352   3.045   6.423 -0.9501  0.4303  0.5344
 6141TIP3    H242619   7.503   3.056   6.430 -0.7651 -0.8475 -0.8157
 6142TIP3   OH242620   2.211   1.944   5.688  0.5171 -0.3705  0.3039
 6142TIP3    H142621   2.177   2.033   5.679  0.4550 -0.4443 -0.2256
 6142TIP3    H242622   2.262   1.929   5.608 -1.0778 -1.5023 -0.5528
 6143TIP3   OH242623   3.109   3.780   3.848 -0.8311 -0.2694 -0.9806
 6143TIP3    H142624   3.070   3.866   3.832 -1.7934  0.0776  2.3312
 6143TIP3    H242625   3.195   3.799   3.886 -1.7752 -0.5773  1.5069
 6144TIP3   OH242626   6.459   6.521   4.117 -0.4180 -0.0175  0.3079
 6144TIP3    H142627   6.546   6.544   4.084  0.7043 -2.5228  1.2159
 6144TIP3    H242628   6.399   6.546   4.047  1.1645  0.7837 -0.8092
 6145TIP3   OH242629   1.218   4.895   5.077 -0.2845  0.2330 -0.1921
 6145TIP3    H142630   1.182   4.973   5.120 -0.6863  0.1100 -0.2958
 6145TIP3    H242631   1.313   4.907   5.079 -0.3284  0.5190  0.1780
 6146TIP3   OH242632   6.304   4.990   4.315  0.0241 -0.5601 -0.0905
 6146TIP3    H142633   6.362   4.933   4.263  0.7381 -0.3553  0.4602
 6146TIP3    H242634   6.275   5.057   4.253  2.8967  1.2070  0.2683
 6147TIP3   OH242635   7.172   6.264   4.896 -0.1413 -0.2316  0.0848
 6147TIP3    H142636   7.199   6.337   4.951 -0.4034  0.0639 -0.1770
 6147TIP3    H242637   7.081   6.283   4.874 -0.4559 -1.0217  0.6450
 6148TIP3   OH242638   0.253   6.368   4.487  0.0574  0.1454 -0.2538
 6148TIP3    H142639   0.303   6.409   4.557 -0.9121  1.7324 -0.4391
 6148TIP3    H242640   0.320   6.331   4.429  0.9410  0.5075  0.5040
 6149TIP3   OH242641   5.056   5.785   7.037 -0.6062 -0.1871  0.1177
 6149TIP3    H142642   5.138   5.739   7.054 -1.2613 -0.6662  2.2936
 6149TIP3    H242643   5.080   5.858   6.980  1.0975 -0.9951 -0.2621
 6150TIP3   OH242644   0.982   7.399   4.479  0.2815  0.7478  0.0034
 6150TIP3    H142645   0.923   7.333   4.443 -0.6789  0.4717  1.9198
 6150TIP3    H242646   1.049   7.348   4.526  1.4264  1.0930 -1.2047
 6151TIP3   OH242647   5.355   4.532   5.040  0.2296  0.2323  0.0324
 6151TIP3    H142648   5.295   4.465   5.069  1.0261 -0.1057  0.9497
 6151TIP3    H242649   5.299   4.606   5.017 -0.5509 -0.1726  0.5807
 6152TIP3   OH242650   0.005   0.085   4.505  0.3371 -0.5100  0.2551
 6152TIP3    H142651  -0.041   0.135   4.573 -0.2451  0.7305 -0.9933
 6152TIP3    H242652  -0.057   0.015   4.481 -0.7275  0.8138 -1.0187
 6153TIP3   OH242653   7.000   4.331   5.638 -0.1068 -0.9005  0.8266
 6153TIP3    H142654   7.085   4.370   5.662 -0.6271 -0.7948  2.6770
 6153TIP3    H242655   7.008   4.311   5.545  1.6728 -0.1765  0.7842
 6154TIP3   OH242656   4.782   0.022   4.598  0.1595 -0.1747 -0.6408
 6154TIP3    H142657   4.874   0.003   4.583  0.2234 -0.2674 -0.1222
 6154TIP3    H242658   4.737  -0.060   4.577  0.2977 -0.4618  0.1581
 6155TIP3   OH242659   0.739   2.416   6.092 -0.1176 -0.0902 -0.3591
 6155TIP3    H142660   0.769   2.505   6.080 -0.5283 -0.0289 -1.0043
 6155TIP3    H242661   0.744   2.401   6.187  1.5510  0.0333 -0.4093
 6156TIP3   OH242662   2.405   4.991   5.809 -0.1537  0.7284  0.5315
 6156TIP3    H142663   2.351   4.913   5.825 -2.0472  2.3624  2.6085
 6156TIP3    H242664   2.395   5.007   5.715 -1.4284 -0.3605  0.4466
 6157TIP3   OH242665   4.793   6.815   5.131 -0.4920  0.1699  0.4740
 6157TIP3    H142666   4.853   6.796   5.202  1.2448 -0.8083 -1.1609
 6157TIP3    H242667   4.812   6.906   5.107 -0.4517  0.2157  0.6792
 6158TIP3   OH242668   6.985   7.048   5.233 -0.3660  0.1152 -0.0160
 6158TIP3    H142669   7.039   7.056   5.311  0.4372 -2.1491 -0.2670
 6158TIP3    H242670   7.003   7.127   5.183 -1.3451  1.9278  2.2852
 6159TIP3   OH242671   0.480   3.599   6.061  0.6416  0.1646 -0.1589
 6159TIP3    H142672   0.564   3.590   6.015  1.1926 -0.9876  1.0025
 6159TIP3    H242673   0.487   3.682   6.107  0.7715  0.5124 -0.7956
 6160TIP3   OH242674   6.162   4.176   5.591  0.0139 -0.3761 -0.1631
 6160TIP3    H142675   6.121   4.245   5.643 -0.7520 -2.0000  1.5277
 6160TIP3    H242676   6.092   4.112   5.577  0.9422 -1.2873 -0.7898
 6161TIP3   OH242677   3.603   7.680   5.923  0.4078  0.0058  0.4424
 6161TIP3    H142678   3.521   7.648   5.961  0.3297 -0.4014 -0.0569
 6161TIP3    H242679   3.618   7.764   5.965 -1.6230  1.3490 -1.3102
 6162TIP3   OH242680   0.674   6.378   3.604  0.3206 -0.9153 -0.7673
 6162TIP3    H142681   0.737   6.411   3.668 -0.2670 -0.9998 -0.1395
 6162TIP3    H242682   0.594   6.429   3.619 -0.0512 -1.4366 -0.9407
 6163TIP3   OH242683   6.328   2.041   4.374 -0.1711 -0.4188  0.2965
 6163TIP3    H142684   6.283   2.059   4.457  0.1659  0.2621  0.3319
 6163TIP3    H242685   6.258   2.040   4.309 -0.3661 -0.4008  0.5051
 6164TIP3   OH242686   3.222   6.451   5.485 -0.2336  0.0279  0.2586
 6164TIP3    H142687   3.144   6.427   5.435 -0.5859 -0.2302  0.9112
 6164TIP3    H242688   3.268   6.368   5.498  0.3591  0.2341 -0.4532
 6165TIP3   OH242689   3.701   6.604   6.242  0.6485  0.0695  0.4010
 6165TIP3    H142690   3.734   6.530   6.191  1.8323  1.5742 -1.1618
 6165TIP3    H242691   3.608   6.585   6.255  0.7954 -1.3983 -0.4509
 6166TIP3   OH242692   2.012   4.693   4.373  0.4637  0.5468  0.2743
 6166TIP3    H142693   2.101   4.726   4.388  1.9169 -3.1461  0.9580
 6166TIP3    H242694   2.017   4.648   4.289 -0.5185 -0.4065  0.7089
 6167TIP3   OH242695   2.056   2.154   3.817 -0.9955  0.4631  0.0332
 6167TIP3    H142696   2.057   2.144   3.912 -0.5854 -0.3875 -0.0461
 6167TIP3    H242697   1.976   2.109   3.789 -1.1059  0.6954 -0.0224
 6168TIP3   OH242698   6.643   4.136   6.043 -0.0545 -0.0669 -0.6107
 6168TIP3    H142699   6.682   4.209   5.996  0.2384  0.3868  0.3083
 6168TIP3    H242700   6.718   4.090   6.081 -0.2984 -0.3233 -0.4366
 6169TIP3   OH242701   0.530   2.270  10.884  0.1219 -0.5936  0.4131
 6169TIP3    H142702   0.512   2.331  10.812  0.8727 -0.2289  0.5279
 6169TIP3    H242703   0.610   2.304  10.925 -1.2207  0.2082  2.5224
 6170TIP3   OH242704   6.484   3.458   4.691 -0.2545 -0.3598  0.0440
 6170TIP3    H142705   6.472   3.364   4.709  1.1262 -0.1845  2.2542
 6170TIP3    H242706   6.396   3.491   4.677 -0.6888 -2.1793 -2.0957
 6171TIP3   OH242707   5.635   3.586   4.770  0.7879 -0.1476 -0.4184
 6171TIP3    H142708   5.694   3.529   4.721 -0.1747 -0.6252 -1.0538
 6171TIP3    H242709   5.602   3.648   4.705  0.7531  0.2627 -0.0176
 6172TIP3   OH242710   0.886   7.328   4.949 -0.6700 -0.0850 -0.4264
 6172TIP3    H142711   0.888   7.241   4.909 -0.4789  0.3183 -1.3035
 6172TIP3    H242712   0.934   7.384   4.888  0.7180  0.2947  0.9589
 6173TIP3   OH242713   5.599   4.303   4.704 -0.1466  0.2050  0.3634
 6173TIP3    H142714   5.544   4.246   4.756  0.5751 -0.1627  0.7295
 6173TIP3    H242715   5.672   4.326   4.761  0.1186  0.6335 -0.1318
 6174TIP3   OH242716   2.782   5.502   5.361 -0.5705  0.4608  0.1735
 6174TIP3    H142717   2.806   5.529   5.272  1.3192  0.3173  0.6002
 6174TIP3    H242718   2.822   5.416   5.373 -1.1938  0.2683  1.0058
 6175TIP3   OH242719   1.196   0.048   5.360  0.1137  0.0276 -0.3134
 6175TIP3    H142720   1.286   0.044   5.392  0.6785 -1.6469 -1.9098
 6175TIP3    H242721   1.159  -0.038   5.382 -1.3598  0.9251  0.9243
 6176TIP3   OH242722   3.229   1.223   6.181 -0.1579  0.3948 -0.4491
 6176TIP3    H142723   3.250   1.306   6.222  0.2192  1.4289 -2.5676
 6176TIP3    H242724   3.238   1.158   6.251 -0.4364  2.1060  1.2524
 6177TIP3   OH242725   0.651   3.849   5.813 -0.1951  0.3326 -0.9929
 6177TIP3    H142726   0.594   3.787   5.768 -1.9075 -0.6702  2.2233
 6177TIP3    H242727   0.715   3.794   5.860 -1.1939  0.9108  1.2017
 6178TIP3   OH242728   1.922   2.898   5.493  0.2175  0.4475 -0.5858
 6178TIP3    H142729   1.962   2.969   5.443  1.3735  1.1461  1.2249
 6178TIP3    H242730   1.995   2.855   5.537 -0.8730  1.1664  2.1114
 6179TIP3   OH242731   2.491   4.034   4.939  1.0640 -0.0949  0.1079
 6179TIP3    H142732   2.559   4.074   4.994  1.1135 -0.7022  0.4916
 6179TIP3    H242733   2.497   3.941   4.957  0.5418 -0.2187 -0.3337
 6180TIP3   OH242734   6.224   7.509   5.034 -0.4014  0.7134  0.2466
 6180TIP3    H142735   6.142   7.521   5.083  0.7325 -1.2138  2.8609
 6180TIP3    H242736   6.279   7.582   5.062 -0.4179  0.6775  0.3758
 6181TIP3   OH242737   4.915   1.311   5.856 -0.3322 -0.1766 -0.0586
 6181TIP3    H142738   4.962   1.394   5.868  0.3640 -0.4954 -0.4827
 6181TIP3    H242739   4.856   1.306   5.931 -0.5523  0.8099 -0.1553
 6182TIP3   OH242740   6.143   6.796   3.742  0.4259  0.1831 -0.6877
 6182TIP3    H142741   6.165   6.758   3.657 -0.8396  0.7542 -1.3019
 6182TIP3    H242742   6.189   6.880   3.744  0.5440  0.1199 -0.7547
 6183TIP3   OH242743   3.138   0.819   5.191 -0.2119  0.9896 -0.0063
 6183TIP3    H142744   3.094   0.856   5.268  1.9199  2.9006  0.3870
 6183TIP3    H242745   3.215   0.774   5.227 -0.0984  0.4430 -0.9075
 6184TIP3   OH242746   0.200   0.401   3.884  0.3278 -0.5039 -0.3216
 6184TIP3    H142747   0.251   0.480   3.901  0.8094 -1.1863  1.6565
 6184TIP3    H242748   0.132   0.430   3.823 -0.1790  1.7401  1.1658
 6185TIP3   OH242749   4.162   7.441   5.771 -0.2887 -0.7658  0.6451
 6185TIP3    H142750   4.228   7.446   5.840  0.9991 -3.1377 -0.2847
 6185TIP3    H242751   4.183   7.361   5.724 -2.0065 -0.0037 -1.6128
 6186TIP3   OH242752   0.134   3.292   5.983 -0.3779  0.4156 -0.7316
 6186TIP3    H142753   0.163   3.374   6.023  3.3558 -0.8723 -0.4856
 6186TIP3    H242754   0.118   3.315   5.891  0.1742  1.5150 -0.5695
 6187TIP3   OH242755   3.277   1.247   4.800  0.1516  0.8036 -0.1185
 6187TIP3    H142756   3.341   1.178   4.822  0.9329  1.5401 -0.0180
 6187TIP3    H242757   3.283   1.256   4.705 -0.1543  0.5429 -0.1637
 6188TIP3   OH242758   5.163   2.490   5.678 -0.0610  0.2509 -0.0900
 6188TIP3    H142759   5.092   2.431   5.703  0.3373  0.0312  0.5690
 6188TIP3    H242760   5.166   2.555   5.748  0.9119 -0.2242  0.3397
 6189TIP3   OH242761   2.147   6.076   4.176  0.1654  0.5150 -0.1158
 6189TIP3    H142762   2.221   6.033   4.133  0.3306  0.7746 -0.0960
 6189TIP3    H242763   2.071   6.023   4.152  0.4265 -0.0490  0.2735
 6190TIP3   OH242764   3.316   4.880   5.367  0.4797 -0.1362 -0.3173
 6190TIP3    H142765   3.295   4.803   5.314 -1.0152  1.0986 -1.5984
 6190TIP3    H242766   3.403   4.906   5.337  1.1604 -1.5151  0.3910
 6191TIP3   OH242767   1.158   3.535   5.550  0.6391  0.3423 -0.1163
 6191TIP3    H142768   1.082   3.560   5.603 -0.9268  0.4264 -2.2432
 6191TIP3    H242769   1.226   3.516   5.614 -0.9634  0.8702  1.8921
 6192TIP3   OH242770   7.657   1.011   4.466 -0.0628  0.0516  0.3691
 6192TIP3    H142771   7.660   1.101   4.436 -0.0168  0.5153  1.6861
 6192TIP3    H242772   7.598   1.013   4.542  3.1538 -0.1106  3.1275
 6193TIP3   OH242773   5.861   0.407   5.832 -0.1209 -0.0411 -0.1133
 6193TIP3    H142774   5.859   0.464   5.909  1.3788  0.6973 -0.5802
 6193TIP3    H242775   5.942   0.357   5.842 -0.8945 -1.3752 -0.2417
 6194TIP3   OH242776   2.337   0.712   5.224 -0.0296 -0.1234  0.5272
 6194TIP3    H142777   2.350   0.655   5.148 -0.3797  1.1806 -0.5398
 6194TIP3    H242778   2.349   0.801   5.190 -0.9737  0.5297  1.8302
 6195TIP3   OH242779   5.937   0.545   4.062 -0.3980  0.7734 -0.1476
 6195TIP3    H142780   5.862   0.488   4.080 -0.8439  1.8692  1.7511
 6195TIP3    H242781   6.012   0.500   4.100 -0.3091  0.3234 -0.8359
 6196TIP3   OH242782   0.774   0.878   4.565 -0.3557 -0.2916  0.0631
 6196TIP3    H142783   0.688   0.863   4.604  0.7250 -3.5109  1.5737
 6196TIP3    H242784   0.771   0.829   4.483 -0.3273  0.5802 -0.4646
 6197TIP3   OH242785   6.565   0.607   6.237 -0.0815 -0.0859 -0.4899
 6197TIP3    H142786   6.500   0.623   6.168 -2.8205 -2.1403  1.3785
 6197TIP3    H242787   6.570   0.690   6.284 -1.2054  0.1898 -0.8279
 6198TIP3   OH242788   1.931   6.344   4.541  0.3517  0.1054 -0.1217
 6198TIP3    H142789   1.967   6.433   4.544 -0.5317  0.5483 -1.6990
 6198TIP3    H242790   1.995   6.294   4.490  1.0963 -0.3173  1.1826
 6199TIP3   OH242791   5.048   6.745   5.940  0.1556  0.2919 -0.2168
 6199TIP3    H142792   5.027   6.654   5.963 -1.4986  0.8998  0.8674
 6199TIP3    H242793   5.023   6.753   5.848  0.5352 -0.4092 -0.3886
 6200TIP3   OH242794   0.783   5.865   6.706 -0.2631 -0.2100 -0.8349
 6200TIP3    H142795   0.856   5.847   6.648 -1.1580 -0.4292 -1.9205
 6200TIP3    H242796   0.763   5.958   6.691  0.4359  0.1394  0.2389
 6201TIP3   OH242797   0.350   4.275   5.004 -0.2772 -0.7013 -0.0883
 6201TIP3    H142798   0.364   4.367   5.026  0.1897 -1.4113  3.0571
 6201TIP3    H242799   0.438   4.238   4.998 -0.4740 -1.3006  0.5398
 6202TIP3   OH242800   5.987   1.635   4.842 -0.0250 -0.1383  0.6815
 6202TIP3    H142801   5.922   1.566   4.854  1.5640 -1.9408 -0.4995
 6202TIP3    H242802   5.943   1.700   4.788 -0.7730 -1.4615 -0.3594
 6203TIP3   OH242803   1.366   3.379   3.924 -0.4402  0.2052  0.8758
 6203TIP3    H142804   1.344   3.437   3.851 -0.0107 -0.0360  0.5482
 6203TIP3    H242805   1.331   3.423   4.002  0.4938  1.2615  0.7309
 6204TIP3   OH242806   5.155   4.313   4.792 -0.6528 -0.2348  0.6590
 6204TIP3    H142807   5.190   4.339   4.878 -0.4442  0.0919  0.4772
 6204TIP3    H242808   5.201   4.233   4.770  0.0908  0.2706  0.3533
 6205TIP3   OH242809   4.204   0.164   4.340 -0.3406 -0.0899  0.0261
 6205TIP3    H142810   4.123   0.117   4.360 -0.0044 -0.5882  0.2389
 6205TIP3    H242811   4.272   0.097   4.344  0.3348  0.6544  1.6938
 6206TIP3   OH242812   4.303   3.490   5.419  0.6242 -0.1134 -0.2819
 6206TIP3    H142813   4.312   3.403   5.458 -1.0716  0.0838  0.6605
 6206TIP3    H242814   4.375   3.541   5.456  0.4025 -0.5695  0.8237
 6207TIP3   OH242815   1.462   2.389   5.897  0.2499  0.3651  0.3042
 6207TIP3    H142816   1.379   2.380   5.944 -0.6979  2.3959 -0.8432
 6207TIP3    H242817   1.482   2.301   5.866 -1.8202 -0.0629  0.0828
 6208TIP3   OH242818   1.903   3.530   6.169 -0.4115  0.4889 -0.3550
 6208TIP3    H142819   1.955   3.449   6.173 -1.0243  0.1339  0.6901
 6208TIP3    H242820   1.897   3.549   6.076  0.0977 -0.4395 -0.5957
 6209TIP3   OH242821   7.126   4.074   5.711 -0.1747 -0.0233  0.0672
 6209TIP3    H142822   7.076   4.152   5.734 -0.0114  0.3833 -0.9369
 6209TIP3    H242823   7.093   4.007   5.771 -2.7232 -0.0688 -1.2340
 6210TIP3   OH242824   6.164   2.283   5.279  0.2840 -0.1860  0.0157
 6210TIP3    H142825   6.091   2.291   5.340  0.3062  0.2703 -0.0203
 6210TIP3    H242826   6.242   2.289   5.334  0.3237  1.3843 -0.1869
 6211TIP3   OH242827   5.313   1.879   4.364  0.2741 -0.2210 -0.4444
 6211TIP3    H142828   5.319   1.927   4.281 -0.4422  1.6332  0.5294
 6211TIP3    H242829   5.403   1.854   4.384  0.4196 -1.0728 -1.9552
 6212TIP3   OH242830   5.991   1.390   4.316 -0.3346 -0.3268  0.2191
 6212TIP3    H142831   5.976   1.358   4.227  0.9596 -1.2140  0.2943
 6212TIP3    H242832   6.084   1.376   4.331  0.1851  2.8239  0.5504
 6213TIP3   OH242833   6.693   4.132   5.514 -0.0098 -0.9086 -0.1905
 6213TIP3    H142834   6.648   4.156   5.596 -2.8993  0.3328 -1.9918
 6213TIP3    H242835   6.693   4.212   5.463  2.5857 -1.4350 -1.1187
 6214TIP3   OH242836   1.058   2.923   5.518 -0.0178  0.3650  0.0847
 6214TIP3    H142837   1.009   3.006   5.522  1.4272  1.2166  0.7331
 6214TIP3    H242838   1.141   2.947   5.477  0.4498 -0.7719  0.3521
 6215TIP3   OH242839   4.220   4.565   3.794 -0.0163 -0.4988  0.0425
 6215TIP3    H142840   4.200   4.658   3.796  1.8901 -0.0384  0.0230
 6215TIP3    H242841   4.135   4.521   3.801 -0.9807  1.2273 -0.3486
 6216TIP3   OH242842   1.204   5.128   4.517  0.1657 -0.0566  0.3340
 6216TIP3    H142843   1.149   5.161   4.446 -1.3691 -1.6241  0.7448
 6216TIP3    H242844   1.179   5.180   4.593  0.5050  0.3918  0.1434
 6217TIP3   OH242845   0.559   4.490   5.149 -0.5922 -0.1512 -0.2568
 6217TIP3    H142846   0.470   4.512   5.175 -0.3044  2.2561 -1.0661
 6217TIP3    H242847   0.555   4.477   5.055 -0.2272 -0.9217 -0.1748
 6218TIP3   OH242848   3.005   6.731   4.028  0.1562  0.0771  0.0712
 6218TIP3    H142849   2.984   6.789   4.101 -0.4511  1.4153 -1.1083
 6218TIP3    H242850   2.921   6.712   3.987  0.5213 -0.3304 -0.5111
 6219TIP3   OH242851   1.081   0.186   6.452  0.1204 -0.4304 -0.1196
 6219TIP3    H142852   1.111   0.269   6.487 -0.2624 -0.5557  0.5211
 6219TIP3    H242853   1.066   0.203   6.359 -0.0686  0.2518  0.0286
 6220TIP3   OH242854   6.026   5.422   3.794 -0.0724  0.0629 -0.1971
 6220TIP3    H142855   5.944   5.438   3.841 -0.9169  0.0019 -1.5880
 6220TIP3    H242856   6.045   5.504   3.750 -0.6805 -0.6004 -1.7680
 6221TIP3   OH242857   0.393   4.996   3.715 -0.3042 -0.3622  0.3926
 6221TIP3    H142858   0.410   4.918   3.768  0.7201 -1.0905 -0.9371
 6221TIP3    H242859   0.337   4.965   3.643 -0.2910  0.2313  0.1197
 6222TIP3   OH242860   6.593   3.088   4.288 -0.2064 -0.0023 -0.6026
 6222TIP3    H142861   6.681   3.125   4.297  0.0035 -0.4204 -0.8984
 6222TIP3    H242862   6.555   3.134   4.213 -0.1123 -0.0578 -0.6856
 6223TIP3   OH242863   4.007   1.677   4.566 -0.5279 -0.0791 -0.1010
 6223TIP3    H142864   3.963   1.693   4.650  1.0317  0.5809  0.6321
 6223TIP3    H242865   4.031   1.764   4.535  0.8065 -0.4506 -0.1477
 6224TIP3   OH242866   0.927   1.687   4.239 -0.3045 -0.1175 -0.4094
 6224TIP3    H142867   0.988   1.616   4.260 -1.0435 -0.7708 -0.4258
 6224TIP3    H242868   0.845   1.643   4.217 -0.9712  0.7702  0.2130
 6225TIP3   OH242869   5.183   4.339   5.104  0.4067 -0.2187 -0.2085
 6225TIP3    H142870   5.097   4.298   5.115  0.6582 -1.4201 -2.2446
 6225TIP3    H242871   5.237   4.300   5.172 -0.3228 -0.3699  0.3014
 6226TIP3   OH242872   0.618   3.250   4.040  0.2713 -0.0001  0.0715
 6226TIP3    H142873   0.549   3.286   4.096  0.0386 -1.4262  0.7459
 6226TIP3    H242874   0.649   3.172   4.086  1.3077 -0.2249 -0.9452
 6227TIP3   OH242875   6.683   4.700   5.423 -0.3557  0.0781 -0.1851
 6227TIP3    H142876   6.735   4.695   5.503 -0.5909  2.6542  0.2173
 6227TIP3    H242877   6.744   4.735   5.358 -0.0735 -2.2816 -1.3004
 6228TIP3   OH242878   3.115   2.596   3.979 -0.2463 -0.1548 -0.7600
 6228TIP3    H142879   3.025   2.627   3.983  0.0074  0.5735 -0.5891
 6228TIP3    H242880   3.146   2.624   3.892 -0.5951 -1.5800 -1.3733
 6229TIP3   OH242881   6.318   6.478   5.710  0.5390 -0.3358 -0.1630
 6229TIP3    H142882   6.362   6.524   5.781 -0.2289 -0.7461  0.6040
 6229TIP3    H242883   6.312   6.542   5.639  2.7677 -0.4228 -0.4825
 6230TIP3   OH242884   5.382   5.551   4.245 -0.1942  0.2393  0.3561
 6230TIP3    H142885   5.332   5.616   4.196 -0.8292 -0.7922 -0.4066
 6230TIP3    H242886   5.393   5.590   4.332 -0.3073  1.4786 -0.1642
 6231TIP3   OH242887   2.755   3.862   5.748 -0.1055  0.2099 -0.0003
 6231TIP3    H142888   2.835   3.852   5.800 -0.1831 -0.4281  0.0016
 6231TIP3    H242889   2.744   3.777   5.705  1.9480  1.6372 -3.9161
 6232TIP3   OH242890   4.384   6.973   4.965 -0.6410  0.2404  0.3508
 6232TIP3    H142891   4.414   6.889   4.931  0.1656  0.8675 -0.5299
 6232TIP3    H242892   4.317   7.002   4.904 -1.1785  0.0797  0.8538
 6233TIP3   OH242893   7.645   6.127   5.245  0.3920 -0.3926 -0.2405
 6233TIP3    H142894   7.711   6.181   5.204 -0.9202  1.2124 -0.3433
 6233TIP3    H242895   7.666   6.130   5.339  2.0143 -2.1591 -0.4809
 6234TIP3   OH242896   0.510   4.730   5.491 -0.2184 -0.3494  0.0176
 6234TIP3    H142897   0.577   4.667   5.466  0.8315  0.7823 -0.1381
 6234TIP3    H242898   0.497   4.784   5.413 -0.8890 -0.1883  0.2294
 6235TIP3   OH242899   1.362   3.884   4.287 -0.0964  0.2340 -0.3406
 6235TIP3    H142900   1.430   3.820   4.310 -1.9491 -1.9347 -0.4975
 6235TIP3    H242901   1.302   3.835   4.230 -3.1739  1.2103  1.8302
 6236TIP3   OH242902   3.149   7.166   4.344  0.7161  0.8479 -0.3383
 6236TIP3    H142903   3.137   7.185   4.251  0.1871 -2.4671 -1.0440
 6236TIP3    H242904   3.224   7.107   4.346 -0.0490 -0.1098  1.2015
 6237TIP3   OH242905   3.200   1.461   5.294 -0.0114 -0.0845  0.3425
 6237TIP3    H142906   3.140   1.534   5.279 -0.6890 -0.3719  1.4887
 6237TIP3    H242907   3.198   1.411   5.213  0.0234  0.8616 -0.2473
 6238TIP3   OH242908   7.021   2.354   6.195  0.1750  0.0055 -0.4395
 6238TIP3    H142909   6.942   2.354   6.250 -0.1012 -0.9641 -0.8266
 6238TIP3    H242910   7.089   2.317   6.251  0.6286  1.7544  0.2372
 6239TIP3   OH242911   4.344   2.871   5.267 -0.2275  0.3147  0.1117
 6239TIP3    H142912   4.434   2.898   5.285  0.9423 -3.1458  0.1555
 6239TIP3    H242913   4.315   2.828   5.347 -1.3685  0.0534 -0.4271
 6240TIP3   OH242914   2.185   3.226   4.762  0.0449  0.0937  0.3158
 6240TIP3    H142915   2.162   3.169   4.689  1.4292 -1.0309  0.7018
 6240TIP3    H242916   2.147   3.311   4.740 -0.0606 -0.3742 -1.4251
 6241TIP3   OH242917   1.860   5.771   6.126 -0.8031  0.6666  0.2720
 6241TIP3    H142918   1.870   5.866   6.123 -0.1752  0.5960  0.0658
 6241TIP3    H242919   1.864   5.749   6.219  0.3192  0.7121  0.2430
 6242TIP3   OH242920   4.845   0.306   4.429 -0.2702 -0.4940  0.0742
 6242TIP3    H142921   4.831   0.322   4.522  1.2131  0.0034  0.2313
 6242TIP3    H242922   4.807   0.383   4.386 -0.1597 -0.2996  0.3196
 6243TIP3   OH242923   5.480   3.144   4.112 -0.0065 -0.6512 -0.3089
 6243TIP3    H142924   5.572   3.136   4.086 -0.4056 -0.3259 -1.9773
 6243TIP3    H242925   5.474   3.230   4.153  0.4952 -0.8131  0.1129
 6244TIP3   OH242926   0.656   6.515   4.277  0.8602 -0.0416  0.1669
 6244TIP3    H142927   0.649   6.551   4.366 -1.9795  0.0936  0.0037
 6244TIP3    H242928   0.602   6.436   4.279  0.9181 -0.1497 -1.3709
 6245TIP3   OH242929   7.253   2.190   5.890  0.0931 -0.2865  0.2833
 6245TIP3    H142930   7.287   2.279   5.890  0.3164 -0.3647 -0.4325
 6245TIP3    H242931   7.180   2.192   5.952 -0.4903  0.6285 -0.3997
 6246TIP3   OH242932   2.717   7.012   3.544  0.0728 -0.1098  0.7230
 6246TIP3    H142933   2.667   7.079   3.591  0.4698 -0.1244  1.1686
 6246TIP3    H242934   2.701   6.931   3.593 -0.2038 -0.3002  0.3300
 6247TIP3   OH242935   7.249   1.390   5.739 -0.1745  0.2144 -0.7007
 6247TIP3    H142936   7.263   1.410   5.647  0.2302  2.5730 -0.2019
 6247TIP3    H242937   7.165   1.431   5.760  0.1217  0.4020  0.1621
 6248TIP3   OH242938   4.573   5.144   5.123  0.4830 -0.1564 -0.3588
 6248TIP3    H142939   4.656   5.096   5.113  0.7050  0.0448  0.5028
 6248TIP3    H242940   4.598   5.236   5.119  0.0283 -0.0741 -2.2508
 6249TIP3   OH242941   2.690   1.575   5.721 -0.1555 -0.6977  0.1703
 6249TIP3    H142942   2.630   1.648   5.703 -0.2425 -0.2308  2.1511
 6249TIP3    H242943   2.671   1.549   5.811  2.5889 -0.5314  0.8971
 6250TIP3   OH242944   4.080   5.908   4.250  0.2068 -0.2950 -0.1800
 6250TIP3    H142945   4.068   5.882   4.341  1.4821 -1.0064 -0.1855
 6250TIP3    H242946   4.070   6.003   4.250 -1.4822 -0.4466  0.3929
 6251TIP3   OH242947   1.770   7.536   5.437 -0.0956  0.2135 -0.0002
 6251TIP3    H142948   1.838   7.480   5.476 -1.2488 -0.8768  0.4972
 6251TIP3    H242949   1.694   7.526   5.494 -1.9519 -1.6349 -2.5602
 6252TIP3   OH242950   3.840   5.745   4.653 -0.3384 -0.1233 -0.3602
 6252TIP3    H142951   3.817   5.782   4.568  0.7537  0.6307 -0.3418
 6252TIP3    H242952   3.925   5.704   4.639 -0.7793 -1.2202  0.0412
 6253TIP3   OH242953   0.200   0.190   4.072  0.1670 -0.4934 -0.0544
 6253TIP3    H142954   0.283   0.203   4.118  0.0600 -0.4523  0.1249
 6253TIP3    H242955   0.188   0.271   4.022  0.6944 -0.8598 -0.8067
 6254TIP3   OH242956   0.033   1.412   5.037 -0.4592 -0.1443 -0.1750
 6254TIP3    H142957   0.099   1.360   5.083 -0.8293 -2.0354 -1.6265
 6254TIP3    H242958  -0.032   1.433   5.104  0.6818  0.1484  0.8696
 6255TIP3   OH242959   6.439   2.410   4.363 -0.0544 -0.3468 -0.0397
 6255TIP3    H142960   6.484   2.405   4.279 -0.1074 -0.3995 -0.0656
 6255TIP3    H242961   6.496   2.363   4.424 -0.0866 -0.4355 -0.0774
 6256TIP3   OH242962   6.896   5.603   5.215  0.1309  0.5855 -0.3728
 6256TIP3    H142963   6.961   5.666   5.183 -0.8442  0.8855 -1.9121
 6256TIP3    H242964   6.918   5.521   5.171 -0.1260  0.5162 -0.3731
 6257TIP3   OH242965   6.282   2.058   5.538 -0.0254 -0.1608 -0.2518
 6257TIP3    H142966   6.286   2.054   5.633  2.0643  0.8962 -0.2412
 6257TIP3    H242967   6.349   1.997   5.508 -1.0477 -0.9109 -1.0936
 6258TIP3   OH242968   3.619   4.072   5.972 -0.1424 -0.0437  0.2682
 6258TIP3    H142969   3.708   4.036   5.977  0.7573  1.7736 -1.1013
 6258TIP3    H242970   3.589   4.076   6.062  0.2992 -2.6586  0.5968
 6259TIP3   OH242971   0.854   5.608   5.699  0.2537 -0.7936  0.5033
 6259TIP3    H142972   0.920   5.619   5.630  0.7958  1.7730  1.3304
 6259TIP3    H242973   0.854   5.514   5.716  2.6866 -1.0690 -0.5092
 6260TIP3   OH242974   1.221   5.240   4.207  0.4272  0.2213 -0.0484
 6260TIP3    H142975   1.174   5.224   4.125  0.5098 -2.1113  0.2770
 6260TIP3    H242976   1.152   5.263   4.270  0.3906  2.2804 -0.7660
 6261TIP3   OH242977   1.279   2.315   6.090  0.6508 -0.3558  0.3924
 6261TIP3    H142978   1.313   2.226   6.099  0.3046 -0.6769 -1.2269
 6261TIP3    H242979   1.197   2.315   6.140  0.7815 -0.8721  0.6062
 6262TIP3   OH242980   4.333   2.433   5.551 -0.0419  0.2723  0.1982
 6262TIP3    H142981   4.316   2.344   5.582 -0.4661  0.2524 -0.0860
 6262TIP3    H242982   4.254   2.457   5.502  0.2102  0.6777 -0.0144
 6263TIP3   OH242983   4.768   0.967   6.564 -0.1109 -0.3437  0.2833
 6263TIP3    H142984   4.862   0.978   6.547  0.0179 -0.5225  0.8582
 6263TIP3    H242985   4.728   1.046   6.528  0.1750 -0.5872 -0.6122
 6264TIP3   OH242986   2.360   1.287   4.684  0.4000 -0.3513  0.0936
 6264TIP3    H142987   2.294   1.273   4.752  0.5013  1.4046  0.6016
 6264TIP3    H242988   2.444   1.277   4.729  0.4694 -0.4237 -0.0509
 6265TIP3   OH242989   1.669   5.460   5.962 -0.0459  0.0788  0.3640
 6265TIP3    H142990   1.605   5.527   5.938 -0.1032  0.3937  1.3329
 6265TIP3    H242991   1.683   5.474   6.056  0.7860 -0.5516  0.3404
 6266TIP3   OH242992   2.058   5.786   5.383 -0.3226 -0.4287 -0.6302
 6266TIP3    H142993   2.144   5.817   5.410 -0.1799 -1.4208  0.1361
 6266TIP3    H242994   2.017   5.757   5.464 -1.1392 -0.5181 -1.0727
 6267TIP3   OH242995   6.272   2.574   5.506 -0.3270  0.1438 -0.1111
 6267TIP3    H142996   6.317   2.605   5.428  0.1737 -1.3985 -0.4645
 6267TIP3    H242997   6.184   2.612   5.500 -0.3769 -0.1716 -1.5574
 6268TIP3   OH242998   5.256   7.394   5.843 -0.3970 -0.0199  0.2243
 6268TIP3    H142999   5.178   7.364   5.889 -1.8455 -0.4748 -2.3318
 6268TIP3    H243000   5.296   7.314   5.809  0.6339  0.3033  0.6411
 6269TIP3   OH243001   7.331   1.799   4.293  0.6523  0.3860  0.0116
 6269TIP3    H143002   7.401   1.783   4.356  0.7120  0.2570 -0.0864
 6269TIP3    H243003   7.356   1.748   4.216  1.0553  1.2722 -0.4595
 6270TIP3   OH243004   1.775   0.226   3.886 -0.2339  0.0581  0.3969
 6270TIP3    H143005   1.686   0.260   3.900 -0.7072 -0.8469 -0.3113
 6270TIP3    H243006   1.766   0.163   3.815  0.9001 -0.4131  0.6478
 6271TIP3   OH243007   6.525   6.043   4.839  0.6082  0.2056 -0.5169
 6271TIP3    H143008   6.577   6.018   4.916 -1.3762  0.1679  0.8910
 6271TIP3    H243009   6.580   6.107   4.794  1.9103  0.1216  0.8445
 6272TIP3   OH243010   7.476   1.494   5.275 -0.1057 -0.5766 -0.1695
 6272TIP3    H143011   7.531   1.544   5.336 -2.4916  1.3307  0.5884
 6272TIP3    H243012   7.466   1.409   5.317  0.2157 -0.0964  0.9162
 6273TIP3   OH243013   5.703   3.106   4.605 -0.3052 -0.4336  0.8216
 6273TIP3    H143014   5.647   3.147   4.540  0.8217  0.8695  0.6365
 6273TIP3    H243015   5.787   3.150   4.596  0.4575 -1.6042  1.8140
 6274TIP3   OH243016   2.895   5.553   5.107  0.1257  0.1123  0.0631
 6274TIP3    H143017   2.877   5.472   5.061 -0.5354  0.7403 -0.8155
 6274TIP3    H243018   2.821   5.611   5.086  1.3644  1.5022 -0.6723
 6275TIP3   OH243019   2.038   6.831   5.194  0.5439  0.3875 -0.0054
 6275TIP3    H143020   1.968   6.885   5.231  0.5924  0.3318  0.1684
 6275TIP3    H243021   2.119   6.868   5.230  0.5405 -0.2033  0.6371
 6276TIP3   OH243022   3.564   0.652   4.286 -0.4875 -0.0299  0.4200
 6276TIP3    H143023   3.610   0.735   4.299  0.4191 -0.6241  1.1869
 6276TIP3    H243024   3.513   0.664   4.206 -0.7200  1.4118  0.7591
 6277TIP3   OH243025   3.985   7.649   4.268  0.5670 -0.1679 -0.5477
 6277TIP3    H143026   4.003   7.555   4.264  0.3379 -0.2237 -0.2730
 6277TIP3    H243027   3.896   7.658   4.233  1.1125  0.1105 -1.9358
 6278TIP3   OH243028   6.362   3.471   4.077  0.3505 -1.0104  0.5126
 6278TIP3    H143029   6.329   3.532   4.011  2.8176 -0.3819 -0.2187
 6278TIP3    H243030   6.337   3.510   4.161 -0.9488 -0.7262  0.0135
 6279TIP3   OH243031   4.784   0.285   4.697 -0.2036 -0.1493  0.1317
 6279TIP3    H143032   4.693   0.315   4.687 -0.1963 -0.1559  0.0462
 6279TIP3    H243033   4.780   0.191   4.679  0.1155  0.1506 -1.6738
 6280TIP3   OH243034   1.020   4.834   4.312 -0.0585  0.1266  0.0086
 6280TIP3    H143035   0.929   4.805   4.314  0.8827 -3.4646 -1.2434
 6280TIP3    H243036   1.067   4.767   4.362  1.7856  2.9471  2.4250
 6281TIP3   OH243037   1.573   7.488   5.625  0.3206  0.1620 -0.0003
 6281TIP3    H143038   1.488   7.443   5.622  0.0468  0.5874  1.0016
 6281TIP3    H243039   1.582   7.515   5.716  1.3526  0.4836 -0.1904
 6282TIP3   OH243040   3.323   4.182   4.725  0.1742 -0.1637 -0.3910
 6282TIP3    H143041   3.342   4.243   4.796  1.2180 -0.4972 -0.3777
 6282TIP3    H243042   3.262   4.230   4.668  0.8799  0.8436 -0.3134
 6283TIP3   OH243043   4.225   5.053   4.389  0.2575 -0.1246  0.1777
 6283TIP3    H143044   4.213   5.134   4.438 -3.6204 -0.7147  0.4983
 6283TIP3    H243045   4.315   5.026   4.409  0.8250  2.7380  2.0799
 6284TIP3   OH243046   3.195   1.472   3.902 -0.0085 -0.1520  0.3045
 6284TIP3    H143047   3.246   1.519   3.968  0.7925 -1.3444  0.5467
 6284TIP3    H243048   3.137   1.415   3.953  0.3424 -0.7953 -0.0134
 6285TIP3   OH243049   4.997   6.228   5.000 -0.2649  0.5009  0.3124
 6285TIP3    H143050   4.966   6.318   5.006 -0.2796  0.5739 -0.6072
 6285TIP3    H243051   5.037   6.210   5.085 -0.6426  1.2287  0.6533
 6286TIP3   OH243052   5.685   2.354   5.326  0.0098 -0.0582  0.0740
 6286TIP3    H143053   5.653   2.424   5.383 -2.8204  0.3406 -1.7746
 6286TIP3    H243054   5.642   2.275   5.359  0.1697 -0.2349 -0.1378
 6287TIP3   OH243055   5.647   3.793   5.174 -0.1645  0.2057  0.3528
 6287TIP3    H143056   5.591   3.734   5.124 -0.0536  1.3395 -1.1628
 6287TIP3    H243057   5.688   3.849   5.109 -1.2588  2.8437  1.7952
 6288TIP3   OH243058   0.563   3.983   6.672 -0.1535 -0.3637  0.4939
 6288TIP3    H143059   0.609   3.925   6.611  2.6994  1.4441  0.7317
 6288TIP3    H243060   0.520   4.047   6.616  0.3663 -0.1690  0.3104
 6289TIP3   OH243061   1.783   3.029   6.080 -0.5748  0.7144  0.2439
 6289TIP3    H143062   1.811   3.065   6.164  2.4645 -2.2551  0.7358
 6289TIP3    H243063   1.751   2.941   6.100 -2.1140  0.8030 -1.4992
 6290TIP3   OH243064   3.768   6.271   5.168  0.6531 -0.1112  0.7140
 6290TIP3    H143065   3.862   6.277   5.189  1.0187 -1.3301 -0.4545
 6290TIP3    H243066   3.760   6.191   5.116 -0.9629  0.2599  0.3474
 6291TIP3   OH243067   1.558   0.373   6.186 -0.5050 -0.2582  0.2239
 6291TIP3    H143068   1.522   0.454   6.222 -0.7224  0.1947 -0.9657
 6291TIP3    H243069   1.633   0.353   6.241  0.7021  1.8019 -0.5728
 6292TIP3   OH243070   3.106   4.362   3.807 -0.5261  0.0775  0.0892
 6292TIP3    H143071   3.108   4.428   3.738 -2.3532  1.1773  0.9995
 6292TIP3    H243072   3.198   4.348   3.830 -0.0369  1.5373 -0.8664
 6293TIP3   OH243073   6.123   4.020   4.048 -0.3706  0.3959 -0.0754
 6293TIP3    H143074   6.048   3.962   4.056  0.0999 -0.0653  1.3257
 6293TIP3    H243075   6.089   4.107   4.069 -0.5118  0.1778  0.6204
 6294TIP3   OH243076   6.823   1.891   4.827 -0.6634 -0.4354  0.0951
 6294TIP3    H143077   6.769   1.811   4.830 -0.6554 -0.4773 -0.6831
 6294TIP3    H243078   6.817   1.920   4.736 -2.0630  1.4097  0.7170
 6295TIP3   OH243079   4.836   3.481   3.716  0.2388 -0.0706 -0.5836
 6295TIP3    H143080   4.868   3.501   3.628  0.7801 -1.5776 -0.7424
 6295TIP3    H243081   4.740   3.486   3.707  0.3018  2.0115 -0.6807
 6296TIP3   OH243082   7.211   7.043   6.379 -0.7166 -0.1263  0.0128
 6296TIP3    H143083   7.219   7.069   6.470 -1.3306 -1.6978  0.5533
 6296TIP3    H243084   7.295   7.001   6.358 -0.5864  0.2078 -0.1325
 6297TIP3   OH243085   4.885   0.772   6.303  0.3696 -0.5261 -0.0321
 6297TIP3    H143086   4.914   0.761   6.212  1.8440  1.1128  0.1786
 6297TIP3    H243087   4.951   0.726   6.355  0.1990 -0.4338  0.2662
 6298TIP3   OH243088   0.175   7.159   6.474  0.3116  0.1017  0.1599
 6298TIP3    H143089   0.235   7.224   6.511  0.9354 -0.1914 -0.3329
 6298TIP3    H243090   0.206   7.075   6.507 -0.5347  0.0417  0.8474
 6299TIP3   OH243091   7.664   3.202   4.508  0.8521 -0.3727 -0.0691
 6299TIP3    H143092   7.571   3.197   4.526  0.7391 -0.3309 -0.6336
 6299TIP3    H243093   7.703   3.227   4.592  0.4328 -1.0599  0.3359
 6300TIP3   OH243094   3.642   6.704   5.179  0.2741  0.2231  0.3871
 6300TIP3    H143095   3.576   6.659   5.232  0.3070  1.0166  1.1318
 6300TIP3    H243096   3.637   6.662   5.093  0.3569 -1.2434  1.0612
 6301TIP3   OH243097   5.107   3.276   4.609 -0.7948 -0.0515  0.6235
 6301TIP3    H143098   5.171   3.212   4.640 -0.5510  0.6863  1.7093
 6301TIP3    H243099   5.026   3.254   4.655 -0.4703  0.9527  1.7557
 6302TIP3   OH243100   4.382   7.222   5.484 -0.2993 -0.5610  0.1102
 6302TIP3    H143101   4.471   7.188   5.475 -0.2206 -0.5970  0.9822
 6302TIP3    H243102   4.392   7.316   5.473 -0.1211 -0.5442  0.3908
 6303TIP3   OH243103   4.463   7.285   4.396 -0.3191 -0.6796 -0.1361
 6303TIP3    H143104   4.443   7.303   4.304 -1.6435 -2.4095 -0.2271
 6303TIP3    H243105   4.387   7.238   4.429 -0.0569  0.2737  2.0006
 6304TIP3   OH243106   1.630   3.951   6.465 -0.0294 -0.3285  0.0608
 6304TIP3    H143107   1.722   3.972   6.450 -0.4422 -0.1901 -2.8610
 6304TIP3    H243108   1.629   3.904   6.549  2.8593 -1.5153 -0.4694
 6305TIP3   OH243109   0.623   0.227   6.004  0.2269  0.3980  0.4197
 6305TIP3    H143110   0.589   0.257   6.089 -0.7689 -0.9205  0.5172
 6305TIP3    H243111   0.551   0.243   5.943  0.6041  0.4898  0.0021
 6306TIP3   OH243112   1.627   5.473   4.091  0.1685  0.4057 -0.5786
 6306TIP3    H143113   1.712   5.430   4.101 -0.2142 -0.3115 -0.3618
 6306TIP3    H243114   1.564   5.401   4.090 -0.3000  0.7605 -2.7461
 6307TIP3   OH243115   0.166   0.628   5.340 -0.3815 -0.8383 -0.1858
 6307TIP3    H143116   0.195   0.537   5.350  2.1330 -0.2346 -1.0211
 6307TIP3    H243117   0.232   0.667   5.282 -1.8612  1.3139 -0.5382
 6308TIP3   OH243118   1.650   4.265   6.092 -0.2355  0.5950  0.2745
 6308TIP3    H143119   1.720   4.323   6.123 -0.7675  2.8474 -2.3109
 6308TIP3    H243120   1.694   4.208   6.029 -0.1720 -0.2358  1.0497
 6309TIP3   OH243121   0.194   5.149   3.965 -0.6164  0.5589 -0.0946
 6309TIP3    H143122   0.260   5.108   3.909 -0.8916  2.1208 -1.6743
 6309TIP3    H243123   0.231   5.146   4.053  1.0695  0.4332 -0.7757
 6310TIP3   OH243124   3.420   1.921   4.333  0.7361 -0.2140 -0.0122
 6310TIP3    H143125   3.511   1.919   4.361  0.7436 -1.8451 -0.1021
 6310TIP3    H243126   3.412   1.850   4.269 -0.5635  0.0147 -0.1379
 6311TIP3   OH243127   7.615   3.030   5.757 -0.7588 -0.1708 -0.2557
 6311TIP3    H143128   7.651   3.109   5.715 -1.9077 -0.0097 -0.9784
 6311TIP3    H243129   7.632   3.043   5.850  0.0425  0.4106 -0.4675
 6312TIP3   OH243130   6.404   5.974   4.606  0.2547  0.1321  0.4018
 6312TIP3    H143131   6.440   5.986   4.694  2.5026 -0.6994 -0.3196
 6312TIP3    H243132   6.465   6.023   4.549 -1.0374  0.4946 -0.7233
 6313TIP3   OH243133   5.346   0.836   5.805  0.1727  0.3099  0.5628
 6313TIP3    H143134   5.371   0.767   5.743 -0.5448  0.7448 -0.2348
 6313TIP3    H243135   5.281   0.794   5.862  0.6119 -0.0067  0.8355
 6314TIP3   OH243136   2.426   7.530   5.308 -0.6989  0.2810 -0.5849
 6314TIP3    H143137   2.455   7.577   5.387 -3.6247 -1.0580  1.4598
 6314TIP3    H243138   2.356   7.585   5.272 -0.4451  0.0989 -1.3772
 6315TIP3   OH243139   6.341   7.597   4.725  0.2258  0.3467 -0.0350
 6315TIP3    H143140   6.322   7.505   4.744 -1.6146  0.8508  0.8336
 6315TIP3    H243141   6.436   7.605   4.736  0.5517 -1.6217 -1.0302
 6316TIP3   OH243142   3.514   7.263   5.634  0.6174  0.0074 -0.0805
 6316TIP3    H143143   3.547   7.181   5.600 -1.1566 -0.4037 -0.8967
 6316TIP3    H243144   3.451   7.238   5.702  3.0205  0.7852  2.6150
 6317TIP3   OH243145   3.500   2.623   4.616 -0.1026 -0.4095 -0.9046
 6317TIP3    H143146   3.553   2.702   4.625 -1.6201  0.5428  0.0159
 6317TIP3    H243147   3.440   2.642   4.544 -1.8542  0.1230  0.6424
 6318TIP3   OH243148   1.787   4.744   3.870 -0.4805  0.0674 -0.0382
 6318TIP3    H143149   1.872   4.701   3.879 -0.5782 -0.0977  0.1149
 6318TIP3    H243150   1.786   4.810   3.939  0.3347  1.4491 -1.3023
 6319TIP3   OH243151   3.284   5.137   5.129 -0.1351 -0.0823 -0.2259
 6319TIP3    H143152   3.211   5.075   5.127 -0.7653  0.4530  2.4871
 6319TIP3    H243153   3.279   5.177   5.216  3.4295 -0.0650  0.1204
 6320TIP3   OH243154   1.811   0.350   5.101 -0.2003  0.1500 -0.1405
 6320TIP3    H143155   1.878   0.408   5.134  0.9842 -1.3140  0.1401
 6320TIP3    H243156   1.729   0.383   5.139  0.7448  0.1913  1.9691
 6321TIP3   OH243157   7.164   1.393   4.366  0.6561 -0.3566 -0.3824
 6321TIP3    H143158   7.073   1.380   4.392  0.7416  2.1737  1.5767
 6321TIP3    H243159   7.213   1.325   4.412 -0.1966 -1.8988 -1.6506
 6322TIP3   OH243160   6.486   5.020   5.013 -0.4797 -0.1893  0.4129
 6322TIP3    H143161   6.481   5.079   5.088 -1.8406 -0.3409  0.4709
 6322TIP3    H243162   6.452   5.072   4.940 -0.0003 -0.3273  0.0883
 6323TIP3   OH243163   2.474   5.275   5.861  0.8615 -0.0701  0.2683
 6323TIP3    H143164   2.467   5.182   5.839 -1.2616  0.2038 -0.4234
 6323TIP3    H243165   2.418   5.285   5.938 -0.4638  0.9494 -0.7887
 6324TIP3   OH243166   0.946   5.735   6.124 -0.1966  0.0735  0.5611
 6324TIP3    H143167   1.035   5.753   6.153  0.1016 -0.9119  0.3000
 6324TIP3    H243168   0.942   5.771   6.035  0.0241 -0.0841  0.4852
 6325TIP3   OH243169   1.256   6.492   3.470  0.0976 -0.2127 -0.0602
 6325TIP3    H143170   1.290   6.424   3.527 -0.2054 -0.8535 -0.6340
 6325TIP3    H243171   1.237   6.448   3.388  0.7253  0.7346 -0.7397
 6326TIP3   OH243172   3.761   4.000   5.303  0.1364 -0.6537  0.1922
 6326TIP3    H143173   3.751   4.050   5.222 -1.6278  1.3729  1.5469
 6326TIP3    H243174   3.696   3.931   5.296  0.3455 -0.8035 -0.3286
 6327TIP3   OH243175   0.489   3.290   6.610  0.3677 -0.5960  0.3107
 6327TIP3    H143176   0.522   3.377   6.632 -0.4276 -0.2927  0.3310
 6327TIP3    H243177   0.423   3.272   6.676 -0.7607 -0.4449 -0.7481
 6328TIP3   OH243178   6.360   5.539   4.139 -0.0141 -0.5862 -0.1021
 6328TIP3    H143179   6.380   5.611   4.198 -1.0585 -0.7727  0.5073
 6328TIP3    H243180   6.361   5.579   4.052  2.3616 -0.4865 -0.0867
 6329TIP3   OH243181   3.243   6.718   4.301 -0.1436  0.0485  0.2954
 6329TIP3    H143182   3.324   6.681   4.336 -0.2053  0.6499  1.1074
 6329TIP3    H243183   3.206   6.648   4.247  0.7883 -0.3158  0.1168
 6330TIP3   OH243184   3.038   6.803   5.090  0.9390 -0.1831 -0.4187
 6330TIP3    H143185   3.061   6.742   5.161  0.3110  0.7666  0.6205
 6330TIP3    H243186   3.076   6.762   5.012 -2.0157 -3.5137 -0.3534
 6331TIP3   OH243187   5.748   3.155   4.007  0.1208  0.0623  0.5300
 6331TIP3    H143188   5.804   3.098   3.955 -1.4768 -1.6489  0.5888
 6331TIP3    H243189   5.752   3.240   3.963  1.3707 -0.4707 -0.4454
 6332TIP3   OH243190   5.016   7.358   5.109 -0.0387  0.2556  0.5700
 6332TIP3    H143191   4.932   7.402   5.096 -0.7302 -0.9726  0.6918
 6332TIP3    H243192   5.051   7.397   5.189 -1.1204 -0.1179  1.2537
 6333TIP3   OH243193   0.592   0.081   5.234 -0.1883  0.4987 -0.4385
 6333TIP3    H143194   0.513   0.067   5.181  0.1906 -1.8736 -0.4763
 6333TIP3    H243195   0.636   0.154   5.192 -0.5908 -0.4102 -2.6004
 6334TIP3   OH243196   4.739   2.039   5.375 -0.0861  0.5921  0.2386
 6334TIP3    H143197   4.693   2.007   5.298 -1.5610 -0.8080  1.6284
 6334TIP3    H243198   4.694   2.121   5.397 -0.2879  0.4943  0.1855
 6335TIP3   OH243199   2.962   1.937   4.464 -0.3622 -0.1407 -0.3992
 6335TIP3    H143200   3.004   1.983   4.391  0.2408 -0.9239 -0.5641
 6335TIP3    H243201   2.890   1.994   4.490  1.4002  1.7474  0.5722
 6336TIP3   OH243202   1.686   5.724   3.945 -0.0980 -0.2677  0.2094
 6336TIP3    H143203   1.742   5.734   3.868 -0.1950  1.0557  0.2920
 6336TIP3    H243204   1.688   5.630   3.964 -1.0522 -0.8241 -2.1259
 6337TIP3   OH243205   5.899   5.965   5.176 -0.4545 -0.5149  0.1275
 6337TIP3    H143206   5.979   6.006   5.209 -0.9801 -0.3697  1.2350
 6337TIP3    H243207   5.929   5.883   5.135  0.1253 -1.1139  1.6960
 6338TIP3   OH243208   4.964   5.380   4.656  0.4429  0.0269 -0.8276
 6338TIP3    H143209   5.059   5.396   4.656  0.4304  0.6583  1.7730
 6338TIP3    H243210   4.926   5.467   4.669 -0.4698 -0.2853 -1.3894
 6339TIP3   OH243211   3.866   1.305   4.609 -0.0455  0.5830  0.5762
 6339TIP3    H143212   3.794   1.344   4.559 -1.7780 -1.6810  1.1726
 6339TIP3    H243213   3.845   1.322   4.700  1.0060  1.1846  0.7317
 6340TIP3   OH243214   1.200   5.005   6.158  0.3483  0.5280  0.3003
 6340TIP3    H143215   1.279   4.998   6.211  0.8699 -1.5831 -0.6585
 6340TIP3    H243216   1.231   5.039   6.073  0.0586  0.6595  0.2453
 6341TIP3   OH243217   2.943   7.195   5.782  0.0107  0.9363 -0.0761
 6341TIP3    H143218   2.996   7.132   5.832 -0.6549  0.1491 -0.3474
 6341TIP3    H243219   2.907   7.254   5.849 -0.3711  0.2693  0.3142
 6342TIP3   OH243220   5.132   1.272   6.013  0.2252 -0.0129  0.0097
 6342TIP3    H143221   5.084   1.248   6.092  0.1446  1.0168  0.2963
 6342TIP3    H243222   5.068   1.263   5.942 -0.3199  1.0367  0.3452
 6343TIP3   OH243223   5.837   3.768   4.314 -0.4545  0.1560  0.3637
 6343TIP3    H143224   5.887   3.841   4.352  1.8350 -0.7109 -0.7958
 6343TIP3    H243225   5.853   3.775   4.220 -3.2953  0.3071 -0.2003
 6344TIP3   OH243226   0.769   4.886   3.883  0.0951 -0.1872  0.6329
 6344TIP3    H143227   0.847   4.896   3.828  0.1579  0.5941  0.8410
 6344TIP3    H243228   0.802   4.890   3.973  0.1091 -2.4057  0.7790
 6345TIP3   OH243229   0.553   6.843   4.903  0.0874  0.0505 -0.3765
 6345TIP3    H143230   0.636   6.798   4.921 -0.0041 -1.0316 -2.3663
 6345TIP3    H243231   0.572   6.935   4.918  2.3636  0.1070 -2.8503
 6346TIP3   OH243232   2.591   2.090   5.341 -0.7988  0.2076  0.2009
 6346TIP3    H143233   2.509   2.140   5.345 -1.4572 -0.7928 -0.3038
 6346TIP3    H243234   2.566   2.007   5.301  0.4012 -0.2663  0.4014
 6347TIP3   OH243235   2.132   6.001   5.035  0.4260  0.6765  0.1675
 6347TIP3    H143236   2.170   5.925   5.080 -2.6265  0.0647  1.9814
 6347TIP3    H243237   2.138   6.072   5.098  1.3744  1.4387 -0.7429
 6348TIP3   OH243238   3.605   1.689   6.359  0.1274 -0.5198 -0.2798
 6348TIP3    H143239   3.642   1.700   6.446 -0.6834 -0.0497  0.0211
 6348TIP3    H243240   3.513   1.669   6.375  0.1765 -1.3602 -1.0091
 6349TIP3   OH243241   1.917   3.415   3.875 -0.3606  0.4238 -0.2525
 6349TIP3    H143242   1.874   3.377   3.799 -1.0665 -1.0918  0.8636
 6349TIP3    H243243   1.855   3.482   3.906 -0.3507  0.6090 -0.6200
 6350TIP3   OH243244   0.632   1.649   4.333  0.0957  0.4307 -0.2657
 6350TIP3    H143245   0.644   1.558   4.304  0.0211  0.1633  0.5009
 6350TIP3    H243246   0.562   1.683   4.277 -1.3451 -0.6564  0.7879
 6351TIP3   OH243247   5.390   2.363   5.609  0.4015 -0.3128  0.6217
 6351TIP3    H143248   5.446   2.427   5.565 -0.4800  0.6354  0.8406
 6351TIP3    H243249   5.313   2.413   5.636 -0.8387 -1.7077 -0.2017
 6352TIP3   OH243250   1.440   4.764   4.209 -0.2157  0.0737 -0.3983
 6352TIP3    H143251   1.383   4.727   4.141 -0.1471  0.4152 -0.6446
 6352TIP3    H243252   1.394   4.842   4.240  0.0645  0.2902 -0.5234
 6353TIP3   OH243253   6.218   5.387   5.119  0.2819  0.7767  0.2344
 6353TIP3    H143254   6.155   5.317   5.103  0.3572  0.6158  0.6189
 6353TIP3    H243255   6.302   5.342   5.125  0.2100  0.7685  1.4425
 6354TIP3   OH243256   0.649   2.433   6.342 -0.1421  0.3279  0.0653
 6354TIP3    H143257   0.638   2.339   6.328  1.3658  0.0721  0.3641
 6354TIP3    H243258   0.631   2.446   6.435 -1.7362  0.5958 -0.2531
 6355TIP3   OH243259   5.602   5.808   5.489 -0.0234 -0.1490  0.2556
 6355TIP3    H143260   5.697   5.811   5.497 -0.0195 -0.7113  0.4194
 6355TIP3    H243261   5.585   5.759   5.408 -0.1710  0.4110 -0.0642
 6356TIP3   OH243262   3.112   1.590   4.184  0.4646 -0.2163 -0.2224
 6356TIP3    H143263   3.193   1.617   4.141  1.3715 -0.2904  1.3548
 6356TIP3    H243264   3.097   1.500   4.154  0.3855  0.1583 -1.3227
 6357TIP3   OH243265   4.456   7.349   4.134 -0.1370  0.4512  0.3282
 6357TIP3    H143266   4.430   7.407   4.063 -1.1593  1.1540  1.2370
 6357TIP3    H243267   4.552   7.351   4.134 -0.1420  0.9788 -0.5781
 6358TIP3   OH243268   3.531   3.091   5.285 -0.4877  0.0347 -0.0207
 6358TIP3    H143269   3.600   3.083   5.351 -0.1367  0.3510 -0.3471
 6358TIP3    H243270   3.541   3.013   5.231 -0.8065 -0.2501  0.3223
 6359TIP3   OH243271   1.587   3.230   5.883 -0.1907 -0.0756 -0.6113
 6359TIP3    H143272   1.539   3.165   5.833 -0.5431 -0.3416  0.0546
 6359TIP3    H243273   1.639   3.179   5.946  0.0838  0.2541 -0.5654
 6360TIP3   OH243274   3.123   3.080   4.800  0.3714  0.3745  0.5222
 6360TIP3    H143275   3.161   3.015   4.860 -2.0334 -0.0305  1.7040
 6360TIP3    H243276   3.068   3.029   4.741  0.3436  1.0988 -0.0920
 6361TIP3   OH243277   7.043   5.906   4.795 -0.1714  0.2070  0.2916
 6361TIP3    H143278   7.123   5.885   4.844  0.3212 -0.4813 -0.7846
 6361TIP3    H243279   7.062   5.991   4.756  0.1727 -0.0977 -0.2208
 6362TIP3   OH243280   5.993   7.371   4.235 -0.7114 -0.5217 -0.1686
 6362TIP3    H143281   5.951   7.347   4.152 -1.3847 -0.9580  0.2844
 6362TIP3    H243282   5.978   7.295   4.292 -1.3020  0.2532  0.7339
 6363TIP3   OH243283   2.372   4.315   4.637  0.5455  0.3904 -0.2429
 6363TIP3    H143284   2.410   4.241   4.589  0.4328 -0.6967  1.2929
 6363TIP3    H243285   2.333   4.370   4.568 -1.6035 -2.2281 -1.3300
 6364TIP3   OH243286   2.876   0.531   5.935 -0.0497 -0.4250  0.3641
 6364TIP3    H143287   2.927   0.483   6.000  1.6111 -2.6422 -2.3877
 6364TIP3    H243288   2.927   0.611   5.919  1.4632 -1.5528 -0.7062
 6365TIP3   OH243289   6.115   7.156   5.734 -0.2116 -0.4253  0.1978
 6365TIP3    H143290   6.055   7.202   5.675 -1.5153 -2.1433  0.1129
 6365TIP3    H243291   6.125   7.069   5.696  1.2098 -0.6514  1.0056
 6366TIP3   OH243292   0.889   1.060   4.909 -0.1919 -0.4007  0.7539
 6366TIP3    H143293   0.918   1.145   4.877 -0.3658 -0.7504 -0.3891
 6366TIP3    H243294   0.868   1.011   4.830 -1.9085 -0.8630  1.4546
 6367TIP3   OH243295   6.795   7.074   4.954 -0.2677  0.2482  1.3073
 6367TIP3    H143296   6.835   7.138   5.013  1.7946  1.7557 -1.4661
 6367TIP3    H243297   6.868   7.016   4.931 -0.8677  0.0114 -0.0720
 6368TIP3   OH243298   5.953   5.520   4.853 -0.0291 -0.1518  0.3504
 6368TIP3    H143299   6.006   5.441   4.845 -0.6046 -0.4828 -0.2565
 6368TIP3    H243300   5.876   5.492   4.901 -0.2350  0.0382  0.1323
 6369TIP3   OH243301   6.063   0.820   4.508 -0.0902  0.6710  0.5065
 6369TIP3    H143302   6.079   0.746   4.449 -2.1298  0.7273 -0.2129
 6369TIP3    H243303   6.014   0.883   4.454 -1.1039  1.1806  1.9496
 6370TIP3   OH243304   4.125   4.102   4.997 -1.1054 -0.0187  0.2506
 6370TIP3    H143305   4.140   4.117   4.904 -1.7467 -2.1103 -0.2575
 6370TIP3    H243306   4.203   4.137   5.040  0.4694 -1.3650 -1.3394
 6371TIP3   OH243307   4.907   6.925   4.869 -0.4275 -0.4412 -0.2195
 6371TIP3    H143308   4.924   6.987   4.940  1.6757 -0.9381 -0.2127
 6371TIP3    H243309   4.905   6.980   4.790 -3.2174  0.1702  0.1921
 6372TIP3   OH243310   0.499   3.678   5.705  0.3380  0.1343  0.0116
 6372TIP3    H143311   0.505   3.584   5.725  1.8844  0.1821 -0.1158
 6372TIP3    H243312   0.492   3.681   5.609 -1.5943  0.1082  0.1162
 6373TIP3   OH243313   3.735   6.891   3.993 -0.5145  0.3831 -0.7005
 6373TIP3    H143314   3.756   6.806   4.033 -0.5284  0.0354 -1.4106
 6373TIP3    H243315   3.674   6.869   3.923  0.3145  0.8388 -1.5979
 6374TIP3   OH243316   4.821   4.955   5.889  0.2174 -0.0278  0.6177
 6374TIP3    H143317   4.903   5.004   5.899 -0.3249  1.3346 -1.0651
 6374TIP3    H243318   4.767   5.011   5.833 -1.9504 -0.8158  1.8174
 6375TIP3   OH243319   4.275   5.523   5.548 -0.2211  0.5208 -0.2379
 6375TIP3    H143320   4.279   5.615   5.573  0.2810  0.4117  0.0840
 6375TIP3    H243321   4.339   5.480   5.604 -0.7311 -0.0861 -0.1163
 6376TIP3   OH243322   0.579   0.907   4.785 -0.3509  0.3679  0.3985
 6376TIP3    H143323   0.613   0.951   4.863  1.6040 -0.4371  0.0498
 6376TIP3    H243324   0.513   0.846   4.818 -0.9084  1.3677  1.1916
 6377TIP3   OH243325   1.610   2.370   5.230  0.1816 -0.5858 -0.2800
 6377TIP3    H143326   1.594   2.374   5.136 -0.1880 -2.2580 -0.3274
 6377TIP3    H243327   1.702   2.394   5.241  0.2353 -0.4208 -1.0678
 6378TIP3   OH243328   4.487   5.480   5.724 -0.5359  0.0502 -0.2216
 6378TIP3    H143329   4.483   5.386   5.740  0.4870  0.2765  1.6491
 6378TIP3    H243330   4.468   5.519   5.809 -1.0988  1.5607 -1.0036
 6379TIP3   OH243331   5.093   2.693   5.863  0.3721 -0.0775 -0.6827
 6379TIP3    H143332   5.171   2.749   5.860  1.5838 -1.5210  1.0842
 6379TIP3    H243333   5.076   2.682   5.957 -1.8971  0.0342 -1.0282
 6380TIP3   OH243334   4.598   7.191   4.882  0.5517 -0.8335 -0.4465
 6380TIP3    H143335   4.523   7.134   4.900  0.3184 -0.8287 -1.3754
 6380TIP3    H243336   4.568   7.278   4.910  0.4690 -0.9499 -0.1648
 6381TIP3   OH243337   4.862   6.573   4.171 -0.3049  0.2740 -0.3117
 6381TIP3    H143338   4.851   6.668   4.162 -0.3627  0.1190 -2.2438
 6381TIP3    H243339   4.941   6.563   4.224 -0.6806  1.3958  0.4988
 6382TIP3   OH243340   7.345   1.570   5.958  0.0809  0.0717  0.1193
 6382TIP3    H143341   7.371   1.638   5.896 -0.6181 -0.6212 -0.9673
 6382TIP3    H243342   7.291   1.510   5.906  0.1412 -0.9555  1.2100
 6383TIP3   OH243343   1.549   1.844   6.248 -0.2671  0.0989 -0.1683
 6383TIP3    H143344   1.490   1.771   6.269  0.1491 -0.1368  0.2071
 6383TIP3    H243345   1.497   1.902   6.193 -0.2641 -1.0505 -1.4402
 6384TIP3   OH243346   2.113   4.918   5.993  0.2551 -0.1522 -0.4281
 6384TIP3    H143347   2.097   4.858   6.066 -0.4310  1.6547  1.0093
 6384TIP3    H243348   2.028   4.926   5.950 -0.0274  0.8731  0.2910
 6385TIP3   OH243349   2.142   1.428   3.808 -0.3007 -0.2325  0.5359
 6385TIP3    H143350   2.080   1.491   3.772 -0.9882 -0.8450  0.6155
 6385TIP3    H243351   2.147   1.450   3.901 -2.1104 -1.5313  0.9857
 6386TIP3   OH243352   0.076   5.300   5.920  0.0073  0.1790 -0.2343
 6386TIP3    H143353   0.080   5.234   5.990 -1.0444  0.3403 -0.0073
 6386TIP3    H243354  -0.013   5.292   5.885  0.1704  0.8556 -0.8159
 6387TIP3   OH243355   6.541   0.686   5.821  0.2557 -0.2222 -0.5077
 6387TIP3    H143356   6.635   0.705   5.824 -0.1751  2.1083  1.5341
 6387TIP3    H243357   6.525   0.633   5.899 -0.0047 -1.5721 -1.4431
 6388TIP3   OH243358   3.117   5.257   5.877  0.2760  0.3694  0.0268
 6388TIP3    H143359   3.165   5.335   5.905  0.4905 -0.0420  0.8354
 6388TIP3    H243360   3.104   5.207   5.957 -2.6456  1.0707  0.0980
 6389TIP3   OH243361   4.162   3.691   5.294 -0.1969  0.6398  0.0242
 6389TIP3    H143362   4.122   3.775   5.319  2.7591  1.9063  0.9682
 6389TIP3    H243363   4.206   3.661   5.373 -0.1060 -1.1683 -0.6711
 6390TIP3   OH243364   0.429   4.813   4.536 -0.2785  0.5310 -0.8485
 6390TIP3    H143365   0.398   4.882   4.477 -0.5636  1.2782  0.1391
 6390TIP3    H243366   0.523   4.806   4.517 -0.4726  0.3124 -1.8108
 6391TIP3   OH243367   1.973   1.748   6.230  0.4527 -0.1210 -0.1179
 6391TIP3    H143368   1.914   1.817   6.261  0.2424 -0.3667  0.0337
 6391TIP3    H243369   2.012   1.711   6.309  2.8870  1.8075 -0.3017
 6392TIP3   OH243370   2.523   5.185   4.048 -0.5635 -0.3596 -0.0524
 6392TIP3    H143371   2.440   5.211   4.089  0.1843  0.6821  0.8351
 6392TIP3    H243372   2.554   5.112   4.102 -1.9276 -2.2273 -1.6652
 6393TIP3   OH243373   5.642   4.302   5.455 -0.2914 -0.2920 -0.1468
 6393TIP3    H143374   5.709   4.259   5.508  0.3670 -1.3446 -1.7602
 6393TIP3    H243375   5.563   4.251   5.470 -0.3003 -0.1275  0.3860
 6394TIP3   OH243376   2.464   5.023   4.983 -0.1652 -0.0546 -0.2888
 6394TIP3    H143377   2.485   5.061   4.898 -3.8138 -0.8466 -1.7384
 6394TIP3    H243378   2.476   4.929   4.971 -1.2622 -0.2246 -0.1546
 6395TIP3   OH243379   1.832   2.741   5.217 -0.0369  0.1836 -0.7951
 6395TIP3    H143380   1.883   2.776   5.289 -0.9654 -2.2903  1.2040
 6395TIP3    H243381   1.744   2.777   5.229  0.1739  1.0791 -1.7385
 6396TIP3   OH243382   2.683   2.327  12.250 -0.0229  0.1634  0.3387
 6396TIP3    H143383   2.701   2.382  12.174 -0.0792  0.4082  0.5039
 6396TIP3    H243384   2.713   2.240  12.224 -0.1792  0.2135 -0.0205
 6397TIP3   OH243385   1.650   5.428   6.535 -0.2530  0.6716 -0.0514
 6397TIP3    H143386   1.610   5.342   6.551  1.0915 -0.3267 -1.8336
 6397TIP3    H243387   1.589   5.472   6.476 -0.6398  0.7305  0.3810
 6398TIP3   OH243388   4.316   4.299   3.931  0.0000  0.3659  0.3469
 6398TIP3    H143389   4.237   4.262   3.892 -0.4149  1.0589  0.4980
 6398TIP3    H243390   4.341   4.371   3.872 -1.4432  2.3546  2.0004
 6399TIP3   OH243391   4.593   3.522   6.282 -0.2946 -0.3885  0.0725
 6399TIP3    H143392   4.662   3.589   6.285 -0.7283  0.1667 -1.4266
 6399TIP3    H243393   4.596   3.481   6.369 -0.6941  2.2621  1.4451
 6400TIP3   OH243394   3.124   0.216   5.529 -0.1761  0.1567 -0.1523
 6400TIP3    H143395   3.074   0.225   5.448 -0.0810  0.4690 -0.1801
 6400TIP3    H243396   3.088   0.284   5.586  2.1191  2.4064 -1.1691
 6401TIP3   OH243397   7.329   5.505   3.983 -0.0081  0.4429 -0.2252
 6401TIP3    H143398   7.395   5.484   3.916 -0.4220 -2.7869  0.1813
 6401TIP3    H243399   7.378   5.550   4.052  0.9993  1.2847 -1.4452
 6402TIP3   OH243400   1.922   3.448   5.884 -0.7049  0.6072  0.6701
 6402TIP3    H143401   2.007   3.452   5.839 -0.8676  0.4423  0.3440
 6402TIP3    H243402   1.903   3.354   5.889 -1.3780  0.6739 -0.2339
 6403TIP3   OH243403   0.930   3.298   5.796 -0.0024 -0.9553  0.0478
 6403TIP3    H143404   0.997   3.350   5.840 -0.3480  0.1923 -0.7452
 6403TIP3    H243405   0.944   3.209   5.828  2.2239 -0.8324 -0.4589
 6404TIP3   OH243406   7.662   1.726   4.333  0.4252 -0.4761 -0.2419
 6404TIP3    H143407   7.722   1.732   4.408  0.2050 -1.9117  0.0781
 6404TIP3    H243408   7.590   1.672   4.365 -1.1725  1.3549 -0.5574
 6405TIP3   OH243409   1.340   7.025   5.510  0.4378  0.3769  0.0720
 6405TIP3    H143410   1.322   7.117   5.525 -0.2410  0.6571 -2.1090
 6405TIP3    H243411   1.268   6.979   5.552  0.1943  0.9082  0.2343
 6406TIP3   OH243412   3.372   1.769   5.211 -0.0538  0.2671  0.1862
 6406TIP3    H143413   3.416   1.824   5.275  1.8526  0.4815 -1.2063
 6406TIP3    H243414   3.280   1.770   5.237  0.4992  1.1316  2.2919
 6407TIP3   OH243415   1.824   4.261   4.925 -0.4798 -0.2104 -0.7498
 6407TIP3    H143416   1.825   4.187   4.985  1.6274 -0.1929 -0.6557
 6407TIP3    H243417   1.786   4.333   4.976  0.5662 -0.3918  0.3479
 6408TIP3   OH243418   2.234   6.665   5.470 -0.0811 -0.2648 -0.4470
 6408TIP3    H143419   2.158   6.632   5.519 -0.5025  0.8178 -0.3464
 6408TIP3    H243420   2.265   6.740   5.521  0.1453  0.2131 -1.2643
 6409TIP3   OH243421   3.889   6.252   6.306  0.2051 -0.4472  0.0779
 6409TIP3    H143422   3.864   6.306   6.381 -1.7589 -0.0870 -0.7629
 6409TIP3    H243423   3.849   6.166   6.325 -1.1803 -0.0740 -0.9581
 6410TIP3   OH243424   4.560   7.109   3.844  0.7266 -0.0533  0.3785
 6410TIP3    H143425   4.585   7.074   3.930  1.2939 -0.8425 -0.0974
 6410TIP3    H243426   4.642   7.113   3.795  0.0381 -2.1880 -1.0385
 6411TIP3   OH243427   3.864   5.364   5.141 -0.2499 -0.1294 -0.1739
 6411TIP3    H143428   3.908   5.330   5.219 -1.1700 -1.3423 -0.1513
 6411TIP3    H243429   3.792   5.417   5.176 -1.2475 -1.4483 -0.1564
 6412TIP3   OH243430   4.834   1.731   4.544  0.2870 -0.6260  0.0024
 6412TIP3    H143431   4.876   1.817   4.538  0.3884 -0.6003  0.9309
 6412TIP3    H243432   4.747   1.744   4.507  0.3135 -0.1298  0.1090
 6413TIP3   OH243433   2.941   5.093   4.672  0.1351  0.5195 -0.6031
 6413TIP3    H143434   3.017   5.095   4.731 -0.1976 -1.2612 -0.0639
 6413TIP3    H243435   2.980   5.089   4.584  0.7400 -1.5136 -0.2966
 6414TIP3   OH243436   7.070   1.935   4.602 -0.2984  0.2889 -0.5188
 6414TIP3    H143437   7.041   2.016   4.642  2.3900  1.1707 -0.1518
 6414TIP3    H243438   7.111   1.886   4.673  0.0746 -0.4012 -1.1848
 6415TIP3   OH243439   2.182   5.018   4.444 -0.1392 -0.7642 -0.1166
 6415TIP3    H143440   2.192   5.027   4.539 -0.4438  0.1056 -0.1569
 6415TIP3    H243441   2.088   5.029   4.428  0.2131  1.9615 -0.7707
 6416TIP3   OH243442   6.445   1.971   6.421 -0.1760  0.0451 -0.2091
 6416TIP3    H143443   6.379   1.915   6.462 -1.2324  2.4805  1.7447
 6416TIP3    H243444   6.396   2.021   6.356  0.4200 -0.2725 -0.9045
 6417TIP3   OH243445   4.675   6.849   4.450  0.5363  0.0309 -0.3849
 6417TIP3    H143446   4.676   6.916   4.519  1.5764 -1.0139  0.6402
 6417TIP3    H243447   4.762   6.854   4.410  0.4904 -0.4610 -0.5495
 6418TIP3   OH243448   2.588   6.463   5.744 -0.2026 -0.5415  0.1699
 6418TIP3    H143449   2.524   6.504   5.801 -1.6369 -1.2559 -0.8636
 6418TIP3    H243450   2.592   6.372   5.773  0.8212 -0.3701  0.6147
 6419TIP3   OH243451   3.844   5.504   4.126  0.2462 -0.5162  0.3533
 6419TIP3    H143452   3.842   5.599   4.113 -0.5017 -0.8848 -3.1884
 6419TIP3    H243453   3.891   5.471   4.051  1.0121 -2.9851  1.8216
 6420TIP3   OH243454   1.536   0.975   4.713 -0.1736 -0.3748  0.3563
 6420TIP3    H143455   1.600   0.903   4.709 -0.9199 -0.9940 -1.4595
 6420TIP3    H243456   1.568   1.039   4.649  0.3390  0.8330  1.7718
 6421TIP3   OH243457   2.078   5.098   5.348  0.3493  0.1828 -0.2203
 6421TIP3    H143458   2.153   5.089   5.289 -0.5444  0.6196 -1.4676
 6421TIP3    H243459   2.005   5.117   5.290 -0.4864  1.0515  1.0904
 6422TIP3   OH243460   7.184   0.070   4.900 -0.7785 -0.7418  0.2708
 6422TIP3    H143461   7.262   0.034   4.941 -1.8644 -1.8696  1.4184
 6422TIP3    H243462   7.150   0.133   4.963  0.4341  1.5263 -1.2090
 6423TIP3   OH243463   1.708   3.420   6.595  0.0885  0.0044 -0.0683
 6423TIP3    H143464   1.664   3.502   6.615 -0.6361 -0.0022 -1.5332
 6423TIP3    H243465   1.704   3.412   6.500  1.3563 -1.0662 -0.0743
 6424TIP3   OH243466   4.562   1.940   5.194 -0.5736 -0.3171 -0.3471
 6424TIP3    H143467   4.551   1.845   5.195  0.1439 -0.4015  0.2050
 6424TIP3    H243468   4.481   1.973   5.234 -1.2761 -0.6318 -1.4635
 6425TIP3   OH243469   3.059   2.029   5.884 -0.1349  0.3307  0.1128
 6425TIP3    H143470   2.997   2.028   5.957 -1.0105 -0.2553 -0.6131
 6425TIP3    H243471   3.006   2.007   5.808  0.9717 -0.1933 -0.5285
 6426TIP3   OH243472   4.005   1.353   5.902  0.0393  0.2397  0.4715
 6426TIP3    H143473   3.951   1.275   5.913 -2.2581  1.7977  0.8843
 6426TIP3    H243474   3.954   1.409   5.843  3.0311  0.2436 -2.3775
 6427TIP3   OH243475   6.710   7.386   5.325  0.1564 -0.2434  0.1986
 6427TIP3    H143476   6.623   7.413   5.297  0.8948  1.7214 -0.3203
 6427TIP3    H243477   6.741   7.456   5.382  1.5958 -0.6320 -0.0514
 6428TIP3   OH243478   3.554   3.776   6.264  0.7923  0.1585 -0.1352
 6428TIP3    H143479   3.640   3.770   6.305  0.1729  3.6438  2.0924
 6428TIP3    H243480   3.495   3.734   6.327  0.7303 -2.2141 -1.6465
 6429TIP3   OH243481   6.800   5.508   4.913 -0.0996 -0.1892 -0.5761
 6429TIP3    H143482   6.818   5.492   5.006  1.2438 -0.3599 -0.8462
 6429TIP3    H243483   6.783   5.421   4.877  1.1815 -0.3447 -0.8378
 6430TIP3   OH243484   5.488   5.359   6.287 -0.0970  0.1320  0.0218
 6430TIP3    H143485   5.415   5.394   6.338  0.5618  1.7058 -0.0705
 6430TIP3    H243486   5.564   5.408   6.317  0.8559 -1.1774 -0.2030
 6431TIP3   OH243487   2.498   2.452   4.211  0.4489 -0.0121 -0.1487
 6431TIP3    H143488   2.456   2.512   4.273  0.0401  0.2510 -0.6731
 6431TIP3    H243489   2.506   2.503   4.131  0.2478 -0.6042 -0.5493
 6432TIP3   OH243490   4.896   3.135   4.702  0.1539  0.6441 -0.3549
 6432TIP3    H143491   4.897   3.136   4.798  1.1589  0.7087 -0.3568
 6432TIP3    H243492   4.803   3.128   4.680 -0.0830  0.4503  0.6216
 6433TIP3   OH243493   2.973   7.626   6.406 -0.1357 -0.1377 -0.1507
 6433TIP3    H143494   2.899   7.684   6.392 -0.7311 -1.1560 -1.3735
 6433TIP3    H243495   2.937   7.538   6.400  0.7336 -0.6889  1.7164
 6434TIP3   OH243496   7.493   1.759   4.571  0.0066 -0.6933  0.3250
 6434TIP3    H143497   7.587   1.777   4.569 -0.2664  0.8442 -0.0344
 6434TIP3    H243498   7.456   1.832   4.620 -1.0446 -1.0602  0.0981
 6435TIP3   OH243499   1.714   5.935   4.596  0.2409  0.3589  0.4163
 6435TIP3    H143500   1.651   5.868   4.622 -1.3368  1.2897 -0.8388
 6435TIP3    H243501   1.779   5.888   4.544 -1.2681 -0.1569 -1.1147
 6436TIP3   OH243502   3.882   7.149   4.779  0.5114  0.1621  0.0483
 6436TIP3    H143503   3.874   7.243   4.760  0.2081  0.0081 -0.6054
 6436TIP3    H243504   3.797   7.124   4.815 -0.0340 -0.2375 -1.4623
 6437TIP3   OH243505   5.428   2.032   4.766 -0.6768  0.0684 -0.0123
 6437TIP3    H143506   5.449   2.103   4.827 -1.9086 -0.6409  1.3004
 6437TIP3    H243507   5.494   2.039   4.697  0.6803  1.0110  1.3154
 6438TIP3   OH243508   5.292   3.086   3.878  0.1012  0.5788 -0.1049
 6438TIP3    H143509   5.279   3.166   3.827 -0.0951  1.7691  1.6891
 6438TIP3    H243510   5.354   3.112   3.946 -2.1591  0.1004  2.2987
 6439TIP3   OH243511   7.499   4.748   5.476  0.3529  0.0074  0.0159
 6439TIP3    H143512   7.557   4.702   5.536  0.8052 -1.9009 -1.7852
 6439TIP3    H243513   7.427   4.688   5.460 -0.7515  1.2525  0.0896
 6440TIP3   OH243514   7.132   6.074   6.067  0.0386 -0.0591 -0.2913
 6440TIP3    H143515   7.163   6.017   6.138 -2.7681  0.5288  1.5870
 6440TIP3    H243516   7.141   6.162   6.102  0.8292  0.4315 -1.6655
 6441TIP3   OH243517   6.171   3.240   5.845 -0.0340 -0.0729 -0.1305
 6441TIP3    H143518   6.232   3.166   5.836 -1.5652 -1.3946  0.0852
 6441TIP3    H243519   6.214   3.311   5.796  1.1034 -1.3221 -1.0381
 6442TIP3   OH243520   3.678   2.288   4.094  0.3577  0.5817  0.1077
 6442TIP3    H143521   3.733   2.320   4.166  0.1781 -1.4891  1.2313
 6442TIP3    H243522   3.603   2.249   4.137 -1.4200  2.1783 -1.3729
 6443TIP3   OH243523   0.111   4.261   4.308  0.0212  0.4720  0.2471
 6443TIP3    H143524   0.053   4.331   4.279 -0.9088 -0.2182  0.4201
 6443TIP3    H243525   0.074   4.181   4.270  0.9904  0.0489  0.1643
 6444TIP3   OH243526   5.160   6.955   5.664 -0.0982  0.0395  0.3700
 6444TIP3    H143527   5.176   7.046   5.690  1.4457  0.2973 -1.2893
 6444TIP3    H243528   5.229   6.905   5.707  0.7193  0.0705 -0.8523
 6445TIP3   OH243529   7.567   5.316   4.722 -0.2434 -0.5067 -0.1008
 6445TIP3    H143530   7.530   5.305   4.809 -0.6327  0.0437 -0.1921
 6445TIP3    H243531   7.511   5.263   4.665  0.4237 -1.4297  0.0711
 6446TIP3   OH243532   6.901   7.006   5.736  0.1908  0.7374  0.1419
 6446TIP3    H143533   6.892   6.953   5.657 -0.4546  0.9422  0.0715
 6446TIP3    H243534   6.888   6.945   5.809 -3.4389  1.2112  0.0645
 6447TIP3   OH243535   3.457   3.232   6.279  0.2973  0.2630  0.0805
 6447TIP3    H143536   3.391   3.299   6.299  0.2245  0.5646 -1.1222
 6447TIP3    H243537   3.408   3.150   6.278 -0.0503  0.4707 -0.6934
 6448TIP3   OH243538   3.987   2.372   5.299  0.2190 -0.1463 -0.2759
 6448TIP3    H143539   3.892   2.375   5.314 -0.1354 -0.4598 -2.2218
 6448TIP3    H243540   3.996   2.367   5.204  2.1357 -2.3471 -0.0609
 6449TIP3   OH243541   4.716   2.770   6.477  0.3488 -0.1372 -0.3211
 6449TIP3    H143542   4.669   2.852   6.489 -0.9407 -0.9095  0.1758
 6449TIP3    H243543   4.798   2.781   6.524 -0.4225  0.3683  0.9453
 6450TIP3   OH243544   4.435   4.784   3.852 -0.2296 -0.3379  0.4813
 6450TIP3    H143545   4.363   4.727   3.825 -0.8439  0.1203  1.1084
 6450TIP3    H243546   4.420   4.866   3.804 -1.5185  0.6006  2.3634
 6451TIP3   OH243547   3.096   5.575   4.151  0.4497  0.2382  0.4688
 6451TIP3    H143548   3.041   5.511   4.197 -1.3721  1.3642 -0.0116
 6451TIP3    H243549   3.176   5.528   4.129 -0.1638 -1.3832  1.5373
 6452TIP3   OH243550   6.577   4.305   5.701  0.9649  0.5871  0.2147
 6452TIP3    H143551   6.525   4.381   5.676 -1.2613 -0.8031  0.3421
 6452TIP3    H243552   6.526   4.262   5.769  1.5386 -1.6593 -0.6752
 6453TIP3   OH243553   4.865   7.241   4.801  0.1932  0.2404  0.2815
 6453TIP3    H143554   4.818   7.206   4.878 -0.4233  1.1494  0.3345
 6453TIP3    H243555   4.811   7.315   4.772  0.9618  0.5384 -0.4137
 6454TIP3   OH243556   1.794   0.166   5.930 -0.3056  0.1071 -0.0000
 6454TIP3    H143557   1.883   0.198   5.919 -0.1552 -0.2852  0.0684
 6454TIP3    H243558   1.739   0.243   5.919  0.0851  0.4932  0.6649
 6455TIP3   OH243559   6.657   0.642   4.706  0.1441 -0.1189 -0.2190
 6455TIP3    H143560   6.603   0.720   4.718 -0.6680 -0.6402 -0.3550
 6455TIP3    H243561   6.639   0.588   4.784 -2.1286 -1.7689 -1.7506
 6456TIP3   OH243562   6.435   7.477   5.277 -0.3154 -0.1734  0.2048
 6456TIP3    H143563   6.401   7.565   5.259 -2.0273 -0.8151  0.0571
 6456TIP3    H243564   6.375   7.441   5.342 -0.8923 -1.9528 -1.2183
 6457TIP3   OH243565   3.309   0.854   4.615 -0.4089 -0.2569  0.2376
 6457TIP3    H143566   3.231   0.869   4.668 -0.3959 -0.7258  0.3920
 6457TIP3    H243567   3.378   0.835   4.678 -0.5379 -1.4753  0.0405
 6458TIP3   OH243568   4.866   2.291   4.986  0.6089  0.2612  0.4044
 6458TIP3    H143569   4.953   2.308   5.022  1.2496  0.6392 -1.2329
 6458TIP3    H243570   4.851   2.198   5.002  1.4406  0.1315  0.4538
 6459TIP3   OH243571   3.039   6.614   5.618  0.1000  0.0303  0.1595
 6459TIP3    H143572   3.097   6.555   5.571 -0.4802 -0.4549  0.0413
 6459TIP3    H243573   3.005   6.561   5.690  0.0166  0.3946  0.3889
 6460TIP3   OH243574   3.990   5.476   5.658 -0.3540  0.0715  0.1385
 6460TIP3    H143575   3.984   5.383   5.636 -0.0858 -0.5395  2.3751
 6460TIP3    H243576   4.051   5.512   5.594  0.8165 -1.6503  0.2151
 6461TIP3   OH243577   7.528   2.509   6.317 -0.1013 -0.3079  0.5733
 6461TIP3    H143578   7.570   2.507   6.403 -0.5669 -0.8992  0.7893
 6461TIP3    H243579   7.576   2.445   6.264  0.4358  0.3292  0.2591
 6462TIP3   OH243580   3.719   4.400   3.737 -0.7200  0.5892 -0.5088
 6462TIP3    H143581   3.695   4.323   3.788 -0.1100  0.5035 -0.3451
 6462TIP3    H243582   3.636   4.443   3.717 -0.9716  0.6086  0.5368
 6463TIP3   OH243583   0.194   4.001   6.162 -0.0055 -0.6273 -0.1708
 6463TIP3    H143584   0.280   4.030   6.195 -0.9239 -0.1871  2.0084
 6463TIP3    H243585   0.133   4.020   6.234 -1.7874 -1.8220 -1.2863
 6464TIP3   OH243586   2.431   3.437   4.952 -0.0564 -0.2134  0.7941
 6464TIP3    H143587   2.380   3.494   4.893  0.1326 -0.0709  0.7663
 6464TIP3    H243588   2.420   3.477   5.038 -1.8218 -1.4419  1.1794
 6465TIP3   OH243589   5.926   3.822   4.052 -0.2073  0.1914 -0.9948
 6465TIP3    H143590   5.980   3.767   3.995  0.1543  0.0528 -0.5208
 6465TIP3    H243591   5.836   3.803   4.024 -0.0463 -0.0584 -1.3560
 6466TIP3   OH243592   7.278   1.874   5.340  0.1945 -0.3940 -0.1056
 6466TIP3    H143593   7.202   1.916   5.300  0.3470 -1.4323 -1.5415
 6466TIP3    H243594   7.305   1.807   5.277  0.9785 -1.5117  1.3604
 6467TIP3   OH243595   3.539   4.301   5.630  0.2596 -0.7743 -0.9987
 6467TIP3    H143596   3.621   4.268   5.595  0.0077 -1.2117 -1.1828
 6467TIP3    H243597   3.517   4.241   5.701  0.9664  0.3296  0.1939
 6468TIP3   OH243598   6.525   0.888   4.773  0.4718 -0.5370 -0.2510
 6468TIP3    H143599   6.463   0.856   4.707 -0.5522 -0.0397  0.4436
 6468TIP3    H243600   6.471   0.940   4.833  0.5982 -3.8112  3.0545
 6469TIP3   OH243601   3.407   7.629   6.102  0.8937  0.3557  0.1052
 6469TIP3    H143602   3.452   7.646   6.185  0.0768 -2.1194  1.1521
 6469TIP3    H243603   3.352   7.553   6.120 -0.0524  0.3470 -2.4676
 6470TIP3   OH243604   0.971   3.737   4.405  0.8864  0.3268 -0.6832
 6470TIP3    H143605   0.900   3.681   4.374  0.9609  0.8691 -1.8825
 6470TIP3    H243606   1.020   3.682   4.466  1.6307 -1.3288 -2.6744
 6471TIP3   OH243607   0.808   7.234   6.479 -0.2269 -0.7842 -0.1683
 6471TIP3    H143608   0.771   7.318   6.507 -1.1890  0.4421 -4.3745
 6471TIP3    H243609   0.734   7.187   6.441  1.1415 -1.3097 -2.3863
 6472TIP3   OH243610   2.270   4.010   4.556  0.3144  0.2044  0.6606
 6472TIP3    H143611   2.264   4.074   4.627  0.0213  0.7057  0.1864
 6472TIP3    H243612   2.289   3.927   4.600  1.5567  0.7661  1.2207
 6473TIP3   OH243613   6.653   2.733   6.153  0.1166  0.2479 -0.3615
 6473TIP3    H143614   6.647   2.638   6.141  1.6328  0.0235  0.3742
 6473TIP3    H243615   6.738   2.746   6.195  0.0467  1.9647 -0.6903
 6474TIP3   OH243616   4.555   4.293   5.890  0.2950  0.1661 -0.2060
 6474TIP3    H143617   4.562   4.288   5.986 -1.6736 -0.8446 -0.0747
 6474TIP3    H243618   4.470   4.334   5.875 -0.3322 -1.5360 -1.5111
 6475TIP3   OH243619   3.113   1.391   5.550 -0.2088  0.1753 -0.3929
 6475TIP3    H143620   3.163   1.425   5.625 -2.0497  2.3219 -0.0315
 6475TIP3    H243621   3.150   1.436   5.474  0.4594 -0.6387 -0.5645
 6476TIP3   OH243622   0.733   5.036   5.916  0.1207  0.0545  0.3426
 6476TIP3    H143623   0.769   4.949   5.902  0.4665 -0.2794  2.8247
 6476TIP3    H243624   0.644   5.032   5.881  0.8208 -0.5931 -1.4783
 6477TIP3   OH243625   0.923   4.041   4.165 -0.4435  0.7700 -0.3622
 6477TIP3    H143626   0.853   3.984   4.135  0.3854 -1.1140  1.0524
 6477TIP3    H243627   0.993   4.028   4.101 -1.0138  1.9557 -1.2675
 6478TIP3   OH243628   0.911   5.542   6.819  0.1369  0.8360  0.6366
 6478TIP3    H143629   0.957   5.605   6.875 -0.4087  1.7976  0.0256
 6478TIP3    H243630   0.925   5.574   6.730  0.4245 -0.3000  0.2705
 6479TIP3   OH243631   3.663   0.380   4.303  0.1574 -0.8183  0.0199
 6479TIP3    H143632   3.742   0.390   4.250 -0.6605 -0.4427 -1.1598
 6479TIP3    H243633   3.629   0.469   4.312  0.2804 -0.8743  1.1922
 6480TIP3   OH243634   2.366   5.713   4.329  0.1093 -0.0089 -0.0148
 6480TIP3    H143635   2.326   5.788   4.284 -0.0424  1.8806  2.9807
 6480TIP3    H243636   2.460   5.726   4.317  0.0560  0.0539 -0.3858
 6481TIP3   OH243637   7.238   1.752   4.724  0.1678  0.1089  0.7774
 6481TIP3    H143638   7.296   1.782   4.793  0.0876 -0.6194  1.1623
 6481TIP3    H243639   7.205   1.668   4.754 -0.5323  0.1807  0.2401
 6482TIP3   OH243640   5.602   3.396   5.673  0.6121  0.2409 -0.0889
 6482TIP3    H143641   5.639   3.345   5.601  1.0642 -1.1302  1.0766
 6482TIP3    H243642   5.515   3.420   5.642 -0.0754 -2.2217 -0.2696
 6483TIP3   OH243643   5.589   6.131   6.592 -0.1504 -0.0696  0.0214
 6483TIP3    H143644   5.597   6.184   6.513  0.8457 -0.0243  0.1376
 6483TIP3    H243645   5.604   6.192   6.664 -3.0978  0.3579  0.4292
 6484TIP3   OH243646   4.775   4.854   5.157 -0.2271  0.7056  0.1655
 6484TIP3    H143647   4.815   4.866   5.071 -1.7449 -0.7089 -0.8176
 6484TIP3    H243648   4.713   4.782   5.144 -0.0516  0.0219  2.6094
 6485TIP3   OH243649   6.514   4.383   5.053 -0.0261  0.3791  0.1256
 6485TIP3    H143650   6.546   4.326   5.124 -0.1898  0.1261 -0.0027
 6485TIP3    H243651   6.520   4.471   5.089 -1.5666  0.1523  1.0514
 6486TIP3   OH243652   2.816   4.283   3.714 -0.0255 -0.3484  0.4454
 6486TIP3    H143653   2.724   4.267   3.734 -0.2998  2.5694  2.0050
 6486TIP3    H243654   2.856   4.196   3.713 -2.6600 -1.6444  0.2711
 6487TIP3   OH243655   7.453   6.551   5.469 -0.0971  0.3155  0.0516
 6487TIP3    H143656   7.495   6.614   5.528  1.1671  0.1983 -0.6828
 6487TIP3    H243657   7.501   6.561   5.386 -2.5278  1.2769 -1.3443
 6488TIP3   OH243658   1.691   5.016   4.636 -0.2864 -0.1642 -0.0173
 6488TIP3    H143659   1.608   5.007   4.589 -1.6914 -0.3035  2.3296
 6488TIP3    H243660   1.712   5.109   4.629 -0.0489 -0.3119 -1.5253
 6489TIP3   OH243661   7.215   6.200   3.911  0.0470 -0.6140 -0.0570
 6489TIP3    H143662   7.285   6.259   3.881 -0.5686  0.7148  1.0367
 6489TIP3    H243663   7.262   6.126   3.949  0.9048  0.4524  1.0433
 6490TIP3   OH243664   7.541   2.757   5.817  0.3641  0.4453 -0.0991
 6490TIP3    H143665   7.590   2.836   5.795 -2.2478  2.0859 -0.4750
 6490TIP3    H243666   7.486   2.783   5.890  1.6179 -1.9985  1.8422
 6491TIP3   OH243667   3.083   5.095   6.395 -0.2421  0.2001 -0.4546
 6491TIP3    H143668   3.171   5.076   6.363 -0.3892  1.6793 -1.8863
 6491TIP3    H243669   3.055   5.014   6.437  2.1652  0.0151  0.9653
 6492TIP3   OH243670   5.469   3.601   5.082 -0.0032  0.1068  0.0938
 6492TIP3    H143671   5.392   3.553   5.053  0.7559 -1.2074  0.2064
 6492TIP3    H243672   5.481   3.574   5.173 -0.1111  1.2625  0.4763
 6493TIP3   OH243673   2.440   1.048   5.891 -0.4288 -0.4236  0.2917
 6493TIP3    H143674   2.431   1.129   5.842  0.3860 -0.0372  0.7543
 6493TIP3    H243675   2.480   1.074   5.974 -0.0703 -1.2990  0.4105
 6494TIP3   OH243676   6.828   2.063   6.302  0.1008 -0.1307  0.3353
 6494TIP3    H143677   6.806   2.155   6.319 -0.2390 -0.1796  0.1769
 6494TIP3    H243678   6.919   2.054   6.331  0.3413  0.4153 -0.2290
 6495TIP3   OH243679   5.052   6.167   4.733 -0.1595 -1.1467  0.0935
 6495TIP3    H143680   5.111   6.100   4.768  0.6260 -0.0536  0.9706
 6495TIP3    H243681   5.003   6.197   4.810  1.6532  1.3699  0.3884
 6496TIP3   OH243682   0.857   1.305   4.169 -0.2096  0.0441  0.6112
 6496TIP3    H143683   0.870   1.236   4.235 -0.2534 -0.3118  0.2478
 6496TIP3    H243684   0.917   1.375   4.196 -0.3340 -0.0371  1.1165
 6497TIP3   OH243685   3.741   6.387   6.108  0.1415 -0.1352 -0.6712
 6497TIP3    H143686   3.797   6.318   6.143 -0.0308 -0.1076 -0.3326
 6497TIP3    H243687   3.657   6.345   6.094  0.6500 -0.5757 -2.6661
 6498TIP3   OH243688   4.199   6.902   6.294 -0.2873 -0.0556  0.2242
 6498TIP3    H143689   4.120   6.870   6.250 -0.7097  1.6018 -0.2952
 6498TIP3    H243690   4.247   6.822   6.318 -1.2762 -1.0590 -0.9831
 6499TIP3   OH243691   6.741   0.515   4.231  0.3345  0.4821 -0.1342
 6499TIP3    H143692   6.754   0.420   4.238  0.1962  0.4775  0.0600
 6499TIP3    H243693   6.759   0.548   4.319 -0.6712  0.5095  0.0661
 6500TIP3   OH243694   0.690   6.790   6.301 -0.0767  0.1061 -0.0190
 6500TIP3    H143695   0.677   6.830   6.387  1.8722 -0.9908  0.8519
 6500TIP3    H243696   0.648   6.704   6.308  0.7927 -0.3121  0.1332
 6501TIP3   OH243697   5.907   4.506   4.180 -0.2465 -0.4360  0.3918
 6501TIP3    H143698   5.903   4.507   4.276 -1.1142  1.0922  0.3784
 6501TIP3    H243699   5.845   4.575   4.153 -0.0537 -0.8708 -1.2676
 6502TIP3   OH243700   4.430   6.273   4.915 -0.1000  0.0214  0.3667
 6502TIP3    H143701   4.483   6.196   4.896 -0.2490  0.0895 -0.3678
 6502TIP3    H243702   4.490   6.347   4.899 -0.6682  0.1385 -1.4582
 6503TIP3   OH243703   1.832   4.679   4.561  0.1764 -0.1701 -0.5387
 6503TIP3    H143704   1.760   4.724   4.518  0.8057  1.8322  0.3322
 6503TIP3    H243705   1.901   4.675   4.495 -0.1759 -0.6211 -0.8810
 6504TIP3   OH243706   4.878   4.638   6.095  0.1355 -0.6875  0.2779
 6504TIP3    H143707   4.845   4.584   6.167  0.3458 -0.6864  0.3750
 6504TIP3    H243708   4.799   4.663   6.046  0.1884 -2.5979 -0.8545
 6505TIP3   OH243709   7.667   2.834   4.760 -0.2821  0.5165 -0.3622
 6505TIP3    H143710   7.630   2.920   4.740 -0.8552  0.4002  0.1712
 6505TIP3    H243711   7.691   2.839   4.853  2.5146  1.1130 -1.0247
 6506TIP3   OH243712   6.857   1.686   4.176  0.0339 -0.3772  0.6747
 6506TIP3    H143713   6.890   1.705   4.088 -2.3707 -1.7181 -0.6085
 6506TIP3    H243714   6.917   1.733   4.234  0.8880  1.7532 -1.7176
 6507TIP3   OH243715   2.698   4.268   4.582 -0.5208 -0.3287  0.3642
 6507TIP3    H143716   2.791   4.287   4.577 -0.4947 -0.5333  0.0007
 6507TIP3    H243717   2.658   4.330   4.521 -0.5387 -0.7467 -0.0603
 6508TIP3   OH243718   3.091   6.623   5.277  0.2735 -0.4508  0.5045
 6508TIP3    H143719   3.006   6.583   5.292  0.9662 -2.1981 -0.0052
 6508TIP3    H243720   3.149   6.581   5.340  0.5142  1.8090  1.9054
 6509TIP3   OH243721   6.392   2.044   4.736 -0.2540 -0.2507 -0.2234
 6509TIP3    H143722   6.407   2.059   4.829 -1.8579  0.0176  0.0254
 6509TIP3    H243723   6.381   1.949   4.728  0.5748 -0.3483 -0.2629
 6510TIP3   OH243724   5.636   3.618   6.096  0.0440  0.5461  0.0374
 6510TIP3    H143725   5.546   3.608   6.066 -0.2783  0.0666  1.0913
 6510TIP3    H243726   5.628   3.665   6.179  0.7132  0.0161  0.4143
 6511TIP3   OH243727   4.297   3.171   5.373 -0.5154 -0.0567 -0.0798
 6511TIP3    H143728   4.255   3.107   5.316 -0.1340  1.0513 -1.6772
 6511TIP3    H243729   4.391   3.154   5.364 -0.3735  1.0829 -1.0101
 6512TIP3   OH243730   1.776   5.666   4.884  0.1833  0.4155 -0.7178
 6512TIP3    H143731   1.709   5.684   4.818  0.0293 -0.8206 -0.9220
 6512TIP3    H243732   1.811   5.752   4.907 -0.6265  0.9689 -1.4977
 6513TIP3   OH243733   5.611   6.417   5.524  0.0744 -0.3131 -0.2663
 6513TIP3    H143734   5.647   6.338   5.484  1.6584  0.2470 -0.0276
 6513TIP3    H243735   5.554   6.454   5.457  0.6190 -0.7916 -1.0193
 6514TIP3   OH243736   5.305   6.031   5.853 -0.0914  0.3003 -0.3463
 6514TIP3    H143737   5.391   6.071   5.842  0.8805 -1.4868  0.3380
 6514TIP3    H243738   5.306   5.956   5.794  0.1353 -1.6639  2.0054
 6515TIP3   OH243739   2.133   3.798   4.983 -0.0441 -0.5378 -0.1833
 6515TIP3    H143740   2.071   3.758   5.044 -0.9002  0.3213 -0.4562
 6515TIP3    H243741   2.091   3.790   4.897  0.2633 -0.0541 -0.3882
 6516TIP3   OH243742   4.613   5.038   3.967 -0.2437  0.7140  0.7419
 6516TIP3    H143743   4.561   5.015   3.890 -1.3636  1.6761  1.1802
 6516TIP3    H243744   4.553   5.028   4.041  0.8421 -0.3053  1.5387
 6517TIP3   OH243745   0.433   2.194   4.350 -0.1088  0.0580  0.2962
 6517TIP3    H143746   0.515   2.190   4.303  0.5869  0.4476  1.4194
 6517TIP3    H243747   0.458   2.184   4.442 -1.4136 -0.7340  0.5868
 6518TIP3   OH243748   0.673   3.860   4.497 -0.2649 -0.4138 -0.0779
 6518TIP3    H143749   0.639   3.930   4.442  0.7759  0.6398  0.5635
 6518TIP3    H243750   0.595   3.814   4.530 -0.9404  0.1440 -0.8773
 6519TIP3   OH243751   3.082   7.030   5.940 -0.1212  0.8805  0.0279
 6519TIP3    H143752   3.097   6.945   5.983  1.5752  1.1475  0.0183
 6519TIP3    H243753   3.134   7.092   5.991  1.0187  1.4108 -1.7102
 6520TIP3   OH243754   4.723   7.389   5.493 -0.2008  0.1670 -0.2204
 6520TIP3    H143755   4.642   7.437   5.477  0.1984  0.4238 -1.5567
 6520TIP3    H243756   4.701   7.297   5.476 -0.6218  0.0156  1.0451
 6521TIP3   OH243757   2.736   0.252   4.528  0.0549 -0.4036  0.3250
 6521TIP3    H143758   2.664   0.302   4.490 -1.3180 -1.3235  1.5404
 6521TIP3    H243759   2.786   0.316   4.578 -1.4630 -0.1015  1.5691
 6522TIP3   OH243760   1.762   6.578   5.140 -0.2871  0.2667  0.0291
 6522TIP3    H143761   1.695   6.626   5.091 -0.3113 -0.5939 -0.7961
 6522TIP3    H243762   1.791   6.509   5.081  0.0984 -0.4431  1.0194
 6523TIP3   OH243763   2.592   2.362   5.785 -0.1392  0.2920  0.2826
 6523TIP3    H143764   2.539   2.346   5.863 -0.8882  0.3352 -0.2020
 6523TIP3    H243765   2.679   2.330   5.808 -0.2517  0.6516  1.2636
 6524TIP3   OH243766   4.585   3.387   5.917 -0.0812  0.2009 -0.6890
 6524TIP3    H143767   4.579   3.292   5.931 -0.8962  0.4004  0.4194
 6524TIP3    H243768   4.675   3.409   5.942 -1.1087  0.3600  3.6005
 6525TIP3   OH243769   4.794   4.561   6.539  0.1731  0.0298 -0.6602
 6525TIP3    H143770   4.771   4.561   6.632  0.0932  0.2253 -0.6789
 6525TIP3    H243771   4.713   4.535   6.495  0.8365 -2.5012 -0.5356
 6526TIP3   OH243772   6.037   2.910   5.698  0.0317 -0.8522  0.6571
 6526TIP3    H143773   5.951   2.943   5.671  0.5324 -1.6621 -2.3022
 6526TIP3    H243774   6.100   2.967   5.654  1.0059 -1.2670  1.4548
 6527TIP3   OH243775   3.316   1.763   5.590 -0.8424 -0.0417 -0.4988
 6527TIP3    H143776   3.271   1.767   5.674  0.8075  0.1687  0.4272
 6527TIP3    H243777   3.323   1.670   5.570 -0.2365 -0.1544  0.1943
 6528TIP3   OH243778   6.291   6.022   4.999  0.1733 -0.2578  0.6231
 6528TIP3    H143779   6.352   6.046   4.929  0.1588  1.4150  1.1246
 6528TIP3    H243780   6.325   5.939   5.034 -0.5134 -1.7829 -2.0990
 6529TIP3   OH243781   6.808   4.696   4.305  0.2879  0.1833  0.1838
 6529TIP3    H143782   6.726   4.722   4.347 -0.8987 -1.2450 -1.1301
 6529TIP3    H243783   6.815   4.602   4.320  1.0926  0.0757 -0.7104
 6530TIP3   OH243784   4.672   3.587   4.492 -0.1479  0.1933  0.4978
 6530TIP3    H143785   4.676   3.669   4.541  1.7511  1.0084 -0.9052
 6530TIP3    H243786   4.719   3.524   4.547  1.5283  0.9743  0.0318
 6531TIP3   OH243787   1.705   7.117   5.561 -0.2352  0.3273 -0.2592
 6531TIP3    H143788   1.713   7.212   5.554 -1.1530  0.5121  0.8178
 6531TIP3    H243789   1.793   7.087   5.583 -0.3363  1.1794  1.4941
 6532TIP3   OH243790   4.768   5.518   6.782  0.0056  0.4531 -0.3334
 6532TIP3    H143791   4.688   5.556   6.746 -0.2499  0.6140  0.3781
 6532TIP3    H243792   4.784   5.568   6.862 -1.0203 -1.6791  1.3110
 6533TIP3   OH243793   3.602   4.169   4.866 -0.6765  0.1509 -0.0415
 6533TIP3    H143794   3.564   4.175   4.779 -0.6853 -2.1192 -0.2597
 6533TIP3    H243795   3.597   4.076   4.888  0.7752  0.4334  1.7302
 6534TIP3   OH243796   3.360   6.765   5.211 -0.2234  0.3147 -0.2251
 6534TIP3    H143797   3.287   6.819   5.181 -0.6164  0.0896  0.3061
 6534TIP3    H243798   3.360   6.690   5.151 -1.1279 -0.2306  0.4319
 6535TIP3   OH243799   5.358   6.988   5.388  0.0741  0.4385  0.2044
 6535TIP3    H143800   5.418   7.024   5.322  0.6522  0.0522  0.5145
 6535TIP3    H243801   5.407   6.993   5.470  0.4858 -1.7974  0.1393
 6536TIP3   OH243802   3.588   6.787   5.633 -0.1993 -0.0541 -0.4275
 6536TIP3    H143803   3.531   6.723   5.590  1.3801 -0.4212 -2.0564
 6536TIP3    H243804   3.666   6.738   5.658  0.2165  0.8323  0.0847
 6537TIP3   OH243805   1.694   4.638   6.042  0.3932  0.1239  0.4553
 6537TIP3    H143806   1.691   4.649   5.947  0.4093  0.7449  0.5196
 6537TIP3    H243807   1.606   4.613   6.067 -0.2623  2.3016  0.5327
 6538TIP3   OH243808   0.959   1.792   6.609  0.0815 -0.1868 -0.3135
 6538TIP3    H143809   0.865   1.779   6.598  0.1721  0.0648 -1.5463
 6538TIP3    H243810   0.989   1.713   6.652 -0.8008  0.0316  0.7375
 6539TIP3   OH243811   3.474   6.675   4.477  0.1908 -0.0161  0.4370
 6539TIP3    H143812   3.541   6.610   4.498 -1.2882 -1.9256 -0.4212
 6539TIP3    H243813   3.516   6.759   4.493  2.5901 -1.1438  0.4435
 6540TIP3   OH243814   3.276   3.033   6.297 -0.2879  0.3974  0.4376
 6540TIP3    H143815   3.225   2.981   6.236  2.6256 -1.3047 -0.7520
 6540TIP3    H243816   3.298   2.972   6.368 -0.4334  1.2676  1.2517
 6541TIP3   OH243817   4.567   0.584   5.701  0.8261 -0.2851  0.3840
 6541TIP3    H143818   4.487   0.565   5.652  0.7179  1.7322 -0.3171
 6541TIP3    H243819   4.638   0.571   5.639  0.8802 -0.0527  0.3967
 6542TIP3   OH243820   0.724   6.082   6.494  0.3214 -0.2696 -0.2149
 6542TIP3    H143821   0.702   6.149   6.429  0.7899  1.2525  1.1154
 6542TIP3    H243822   0.747   6.005   6.442  0.3392  0.7738 -1.8393
 6543TIP3   OH243823   5.433   1.793   5.362  0.2826 -0.1919  0.6016
 6543TIP3    H143824   5.354   1.800   5.308 -0.1169  1.1073  1.3103
 6543TIP3    H243825   5.488   1.730   5.316 -0.5161  0.0377 -0.7207
 6544TIP3   OH243826   4.231   2.367   3.970 -0.2277 -0.5866  0.3784
 6544TIP3    H143827   4.209   2.396   3.881 -1.9804 -1.7764  0.3928
 6544TIP3    H243828   4.299   2.301   3.957  0.4176  0.1296  0.0299
 6545TIP3   OH243829   1.444   5.030   5.894  0.5447 -0.2749 -0.4382
 6545TIP3    H143830   1.492   5.039   5.812  1.9645  2.6124  0.5624
 6545TIP3    H243831   1.510   5.045   5.962 -1.1394  0.4377  1.1230
 6546TIP3   OH243832   4.891   3.544   4.690  0.8510 -0.2896  0.1727
 6546TIP3    H143833   4.973   3.498   4.711  0.1349 -1.3095  0.8329
 6546TIP3    H243834   4.896   3.625   4.740  0.9753 -0.8516  1.0975
 6547TIP3   OH243835   7.647   1.903   5.734  0.3011 -0.3355 -0.0818
 6547TIP3    H143836   7.602   1.872   5.656  0.5305 -0.5973 -0.1129
 6547TIP3    H243837   7.601   1.983   5.759  0.4965 -0.0210 -0.7313
 6548TIP3   OH243838   6.227   4.458   4.441 -0.1667  0.2703 -0.6115
 6548TIP3    H143839   6.205   4.517   4.513 -0.4295  0.6699 -1.0120
 6548TIP3    H243840   6.320   4.472   4.425  0.3789 -1.2823  0.9638
 6549TIP3   OH243841   2.613   0.644   5.982  0.3099  0.1377  0.1400
 6549TIP3    H143842   2.706   0.634   5.998  0.1731  0.1268  0.9540
 6549TIP3    H243843   2.608   0.686   5.896  1.0221 -1.5708 -0.7860
 6550TIP3   OH243844   1.123   1.524   4.933 -0.3536 -0.6007 -0.0810
 6550TIP3    H143845   1.178   1.573   4.872 -0.0415 -0.4880  0.2837
 6550TIP3    H243846   1.058   1.482   4.878 -1.3325  1.1278 -0.3051
 6551TIP3   OH243847   5.604   4.568   4.972 -0.0398 -0.0885  0.1494
 6551TIP3    H143848   5.514   4.544   4.995  0.4809 -0.5404  1.8986
 6551TIP3    H243849   5.595   4.633   4.903 -1.7189  0.0607  0.4721
 6552TIP3   OH243850   2.771   3.362   6.270 -0.9288  0.1526 -0.4470
 6552TIP3    H143851   2.734   3.451   6.273  0.1660  0.6148  1.6130
 6552TIP3    H243852   2.743   3.322   6.352 -1.4820 -1.4817 -1.3948
 6553TIP3   OH243853   1.463   0.642   6.244  0.0875 -0.0814 -0.0259
 6553TIP3    H143854   1.393   0.676   6.300  0.2839 -1.8166  1.3558
 6553TIP3    H243855   1.514   0.719   6.218 -1.2558  0.9875  0.4387
 6554TIP3   OH243856   1.140   1.715   6.083  0.0164 -0.3816 -0.6533
 6554TIP3    H143857   1.086   1.789   6.109 -2.0673 -1.5624 -1.3884
 6554TIP3    H243858   1.221   1.754   6.051 -0.6826  1.5108 -0.2328
 6555TIP3   OH243859   6.076   5.147   3.875  0.5079 -0.5009  0.0592
 6555TIP3    H143860   6.078   5.102   3.790  1.3126  0.3771 -0.4021
 6555TIP3    H243861   6.065   5.239   3.853 -3.2985 -0.5220  1.0344
 6556TIP3   OH243862   2.757   4.824   3.915 -0.2116 -0.5818  0.0926
 6556TIP3    H143863   2.834   4.768   3.916 -0.0929 -0.4551 -0.8440
 6556TIP3    H243864   2.705   4.791   3.842 -1.0267 -0.6364  0.6826
 6557TIP3   OH243865   6.734   2.459   5.270 -0.3706  0.3440 -0.5189
 6557TIP3    H143866   6.792   2.410   5.330 -1.5655  0.2579  0.5985
 6557TIP3    H243867   6.790   2.528   5.235  1.4871 -1.9454 -2.4078
 6558TIP3   OH243868   3.594   4.943   4.634  0.6082 -0.7398  0.6286
 6558TIP3    H143869   3.500   4.941   4.653  0.6386 -0.0481  0.8948
 6558TIP3    H243870   3.625   5.022   4.678  0.5596  1.3835 -2.7695
 6559TIP3   OH243871   4.118   0.027   5.720 -0.1603 -0.3596 -0.2331
 6559TIP3    H143872   4.122  -0.066   5.742 -0.2935 -0.5397 -0.9630
 6559TIP3    H243873   4.193   0.041   5.662  0.0425  0.0608  0.1202
 6560TIP3   OH243874   7.215   6.676   5.313 -0.2801  0.9165  0.0879
 6560TIP3    H143875   7.297   6.710   5.350 -0.1830  0.6253  0.1427
 6560TIP3    H243876   7.154   6.676   5.387 -0.3137  1.0870  0.0592
 6561TIP3   OH243877   2.498   0.680   6.673  0.2614 -0.2633 -0.6416
 6561TIP3    H143878   2.575   0.641   6.631  1.5542  0.5083  0.8775
 6561TIP3    H243879   2.531   0.763   6.708 -0.7469 -0.7975  1.7227
 6562TIP3   OH243880   1.496   2.254   4.807 -0.7050  0.1426  0.0139
 6562TIP3    H143881   1.497   2.163   4.777 -0.6910  0.1176  0.0901
 6562TIP3    H243882   1.450   2.251   4.891 -1.9802  0.4010 -0.6405
 6563TIP3   OH243883   5.730   4.510   5.680  0.2315  0.4795  0.3507
 6563TIP3    H143884   5.689   4.483   5.597  2.1438  1.4839 -1.0169
 6563TIP3    H243885   5.671   4.576   5.715 -0.8760 -0.3241  0.0847
 6564TIP3   OH243886   4.074   4.318   6.076  0.4027 -0.5876  0.3780
 6564TIP3    H143887   4.150   4.268   6.105  0.8582  0.0192  0.2437
 6564TIP3    H243888   4.078   4.400   6.125  0.0811 -0.3673  0.0495
 6565TIP3   OH243889   4.511   7.149   5.733 -0.1432 -0.4180  0.0675
 6565TIP3    H143890   4.446   7.172   5.667 -1.0361 -0.0275  1.0596
 6565TIP3    H243891   4.568   7.086   5.689 -3.1609 -3.4968  0.1453
 6566TIP3   OH243892   3.040   7.342   5.566  0.0191  0.4920  0.1425
 6566TIP3    H143893   3.132   7.357   5.545 -0.2932  2.1422 -0.1827
 6566TIP3    H243894   3.042   7.291   5.647  1.2294  0.9484  0.4242
 6567TIP3   OH243895   1.431   4.984   4.517 -0.0880 -0.4903 -0.4269
 6567TIP3    H143896   1.351   5.038   4.516  1.1546  1.6076  1.9864
 6567TIP3    H243897   1.403   4.901   4.555 -1.3507 -0.2760 -0.8174
 6568TIP3   OH243898   2.944   6.268   3.959  0.4412 -0.0073  0.4665
 6568TIP3    H143899   2.915   6.319   4.034 -3.1844 -0.7600 -0.2363
 6568TIP3    H243900   3.000   6.200   3.996 -0.6051  0.1367  2.3957
 6569TIP3   OH243901   5.342   6.908   4.705  0.4964 -0.6072  0.0391
 6569TIP3    H143902   5.358   6.984   4.761  2.5340 -1.3086  0.5050
 6569TIP3    H243903   5.338   6.944   4.617  0.5875  0.1417  0.3276
 6570TIP3   OH243904   4.407   0.822   5.056  0.1453 -0.3182  0.1350
 6570TIP3    H143905   4.365   0.753   5.107  1.3692  1.0207  3.2727
 6570TIP3    H243906   4.346   0.896   5.061 -0.0834 -0.4155 -1.0983
 6571TIP3   OH243907   4.063   1.106   4.586 -0.1724  0.3619 -0.2901
 6571TIP3    H143908   4.139   1.124   4.531 -0.2524  0.8291 -0.2483
 6571TIP3    H243909   3.997   1.169   4.558 -0.5611 -0.0667 -0.3508
 6572TIP3   OH243910   3.372   6.218   4.106  0.1634  0.2317 -0.5755
 6572TIP3    H143911   3.417   6.202   4.023  1.4762  0.7645  0.0082
 6572TIP3    H243912   3.296   6.159   4.104  0.5228 -0.2133 -1.8778
 6573TIP3   OH243913   4.917   4.404   4.682 -0.2672 -0.5045  0.4852
 6573TIP3    H143914   4.936   4.433   4.593  0.1212  1.7033  1.2321
 6573TIP3    H243915   5.002   4.378   4.718 -0.1666  0.1259  0.7121
 6574TIP3   OH243916   5.179   2.084   4.518  0.3640 -0.0280 -0.0664
 6574TIP3    H143917   5.220   2.002   4.547 -1.3362 -0.7605  0.3821
 6574TIP3    H243918   5.238   2.117   4.451  2.4065 -0.2970  1.5081
 6575TIP3   OH243919   5.152   4.716   5.018 -0.3203  0.4840  0.4361
 6575TIP3    H143920   5.083   4.680   4.962 -0.3663  0.7595  0.3142
 6575TIP3    H243921   5.104   4.767   5.084 -0.1593  2.8110 -1.1293
 6576TIP3   OH243922   1.658   6.365   4.495  0.1788 -0.6429 -0.8521
 6576TIP3    H143923   1.640   6.287   4.444  0.9827 -1.1356 -0.4098
 6576TIP3    H243924   1.747   6.352   4.528  0.0669  0.1409 -0.2055
 6577TIP3   OH243925   0.594   3.555   4.348 -0.1380  0.0724  0.5320
 6577TIP3    H143926   0.513   3.596   4.319 -0.0701  0.0665  0.3340
 6577TIP3    H243927   0.574   3.521   4.435 -0.3751 -0.0191  0.4408
 6578TIP3   OH243928   2.110   6.505   4.736 -0.0236 -0.1804 -0.1710
 6578TIP3    H143929   2.147   6.428   4.694  2.8335  0.1205  1.5576
 6578TIP3    H243930   2.185   6.557   4.763 -1.7348  1.3408  2.1506
 6579TIP3   OH243931   6.403   1.701   5.308  0.3071  0.0217  0.2578
 6579TIP3    H143932   6.354   1.779   5.283 -1.2819 -1.3189 -1.0915
 6579TIP3    H243933   6.437   1.721   5.396  3.1627  3.5963 -1.3907
 6580TIP3   OH243934   0.332   6.951   5.506  0.1625  0.2777 -0.1230
 6580TIP3    H143935   0.304   7.039   5.533 -0.8980  0.1474 -0.7539
 6580TIP3    H243936   0.288   6.892   5.566  1.2751  0.1808  0.6227
 6581TIP3   OH243937   6.378   0.157   6.067 -0.4274 -0.0202 -0.2859
 6581TIP3    H143938   6.322   0.096   6.115 -0.8874  0.7371  0.1791
 6581TIP3    H243939   6.449   0.104   6.032 -1.5184 -1.0482 -1.0190
 6582TIP3   OH243940   7.588   7.132   5.206  0.5486 -0.5756 -0.5654
 6582TIP3    H143941   7.512   7.074   5.203 -0.5970  0.7820  0.6511
 6582TIP3    H243942   7.620   7.133   5.116 -0.4728 -1.6942 -0.9727
 6583TIP3   OH243943   7.175   5.558   4.220  0.3735  0.2538  0.2455
 6583TIP3    H143944   7.206   5.521   4.137 -0.1773  2.2285 -0.8953
 6583TIP3    H243945   7.080   5.560   4.211  0.3223  0.6390  0.8439
 6584TIP3   OH243946   2.850   7.151   6.160  0.4158  0.3892  0.5740
 6584TIP3    H143947   2.820   7.206   6.232  1.3473  1.2390  0.3343
 6584TIP3    H243948   2.838   7.205   6.082 -2.2957 -1.1574 -0.2144
 6585TIP3   OH243949   3.265   7.409   4.833 -0.0459  0.3069 -0.2780
 6585TIP3    H143950   3.275   7.491   4.785 -1.8436  0.3936 -0.5891
 6585TIP3    H243951   3.262   7.341   4.765  0.5315  0.0745 -0.0769
 6586TIP3   OH243952   4.193   7.169   5.131  0.0874  0.1170  0.0290
 6586TIP3    H143953   4.264   7.191   5.191 -0.0462  0.4138  0.0794
 6586TIP3    H243954   4.234   7.115   5.064  0.5335  0.9567 -0.3960
 6587TIP3   OH243955   5.523   0.960   4.710 -0.1734  0.7566 -0.3216
 6587TIP3    H143956   5.607   0.934   4.673 -0.9739  0.5857 -2.1073
 6587TIP3    H243957   5.508   0.899   4.782  0.7307  0.0861 -0.6862
 6588TIP3   OH243958   4.931   7.190   5.752  0.1552 -0.2411 -0.1337
 6588TIP3    H143959   4.961   7.202   5.842 -1.9286  0.2979  0.5678
 6588TIP3    H243960   4.857   7.251   5.744 -0.4345 -1.1196 -1.8431
 6589TIP3   OH243961   3.570   2.727   4.086 -0.3328  0.0997 -0.4372
 6589TIP3    H143962   3.628   2.689   4.021 -2.5199  0.1029 -2.5486
 6589TIP3    H243963   3.560   2.819   4.059 -0.8418  0.2577  0.2335
 6590TIP3   OH243964   5.451   1.248   4.044 -0.4734 -0.5350  0.1179
 6590TIP3    H143965   5.540   1.281   4.056 -0.6484 -0.4985  1.4874
 6590TIP3    H243966   5.461   1.153   4.032 -0.3213 -0.7504  1.7491
 6591TIP3   OH243967   1.706   5.655   4.292  0.2749  0.3114  0.1746
 6591TIP3    H143968   1.642   5.628   4.226 -1.1005  2.5385  0.5129
 6591TIP3    H243969   1.728   5.574   4.338 -1.2472 -0.7411 -0.8400
 6592TIP3   OH243970   4.828   4.241   5.432 -0.9272  0.7157  0.2889
 6592TIP3    H143971   4.751   4.253   5.488 -2.2226 -1.8959 -0.7562
 6592TIP3    H243972   4.888   4.187   5.485 -1.6418 -0.7337 -0.3116
 6593TIP3   OH243973   4.236   6.959   5.778 -0.2168  0.7129  0.0330
 6593TIP3    H143974   4.200   7.042   5.748 -1.1191  0.5724  0.7049
 6593TIP3    H243975   4.224   6.961   5.873 -1.2481 -0.6534 -0.0546
 6594TIP3   OH243976   1.381   1.659   4.476 -0.3287 -0.1032 -0.3065
 6594TIP3    H143977   1.363   1.565   4.485 -0.7124 -0.0518 -0.4883
 6594TIP3    H243978   1.332   1.684   4.398  1.7444 -0.2615 -1.7501
 6595TIP3   OH243979   3.445   4.880   3.909 -0.2436 -0.1545 -0.6171
 6595TIP3    H143980   3.528   4.917   3.877 -0.3724 -0.2698 -1.1001
 6595TIP3    H243981   3.391   4.872   3.830 -0.7585  0.0256 -0.2847
 6596TIP3   OH243982   1.517   0.303   3.934  0.0881 -0.1528  0.3304
 6596TIP3    H143983   1.473   0.381   3.899 -0.6326 -0.8782 -0.4257
 6596TIP3    H243984   1.455   0.268   3.998  0.1631 -0.4198  0.2564
 6597TIP3   OH243985   1.627   1.723   4.851  0.0507 -0.5551 -0.3389
 6597TIP3    H143986   1.648   1.808   4.890 -0.8334  0.0843 -1.2046
 6597TIP3    H243987   1.680   1.660   4.900  0.7924  0.5019  0.2597
 6598TIP3   OH243988   4.907   1.474   4.841  0.3387 -0.2083  0.1032
 6598TIP3    H143989   4.948   1.560   4.851  0.2233 -0.1517  0.0828
 6598TIP3    H243990   4.919   1.432   4.926  1.1019 -0.4772 -0.1282
 6599TIP3   OH243991   6.460   3.075   4.509 -0.1370 -0.2237  0.2314
 6599TIP3    H143992   6.514   3.101   4.434  2.0431  1.4989  2.2130
 6599TIP3    H243993   6.516   3.016   4.559 -1.4547 -1.1595  0.6392
 6600TIP3   OH243994   6.910   2.606   5.960  0.4104 -0.0193 -0.0176
 6600TIP3    H143995   6.936   2.632   6.048  0.7197  0.3005 -0.2010
 6600TIP3    H243996   6.831   2.553   5.973  0.0171  0.6537  0.3961
 6601TIP3   OH243997   1.839   2.342   3.802 -0.1801 -0.3848 -0.1859
 6601TIP3    H143998   1.888   2.264   3.829  0.7947 -0.7778 -2.7631
 6601TIP3    H243999   1.761   2.306   3.758 -0.0302  0.0981 -0.8556
 6602TIP3   OH244000   5.683   2.642   5.925 -0.2012  0.0015  0.1148
 6602TIP3    H144001   5.674   2.733   5.954  0.2627  0.0719  0.0458
 6602TIP3    H244002   5.733   2.600   5.995 -1.4495 -0.4994  0.7249
 6603TIP3   OH244003   5.871   5.468   4.069  0.2338  0.3147 -0.2195
 6603TIP3    H144004   5.923   5.408   4.122  0.2842 -1.0683 -1.7522
 6603TIP3    H244005   5.800   5.496   4.126  1.6505  0.8472  1.3475
 6604TIP3   OH244006   1.609   5.005   4.322  0.3506 -0.1324 -0.4383
 6604TIP3    H144007   1.536   4.981   4.379  0.6733 -0.1664 -0.0335
 6604TIP3    H244008   1.582   5.089   4.284 -0.5277 -0.8252 -1.4239
 6605TIP3   OH244009   3.541   6.879   3.819  0.0954 -0.7503  0.3758
 6605TIP3    H144010   3.463   6.852   3.772 -0.4973  0.0800  0.8515
 6605TIP3    H244011   3.558   6.968   3.787  0.4524 -0.6754  0.7678
 6606TIP3   OH244012   5.496   2.894   5.524  0.0898  0.7789 -0.4021
 6606TIP3    H144013   5.564   2.850   5.472 -0.8310 -1.1072 -0.1008
 6606TIP3    H244014   5.455   2.955   5.462  2.1942  2.2084 -0.5101
 6607TIP3   OH244015   4.850   6.900   3.972 -0.5350 -0.2704 -1.1574
 6607TIP3    H144016   4.767   6.926   4.011  0.0230 -0.4208  0.1735
 6607TIP3    H244017   4.830   6.820   3.924 -1.4124  0.3822 -1.9166
 6608TIP3   OH244018   5.428   1.688   4.805 -1.1706 -0.0423  0.4098
 6608TIP3    H144019   5.446   1.768   4.854 -2.1766 -0.2965  1.2433
 6608TIP3    H244020   5.487   1.622   4.842 -2.1476 -0.3155  1.5530
 6609TIP3   OH244021   0.720   1.346   4.870  0.4735 -0.3739 -0.0418
 6609TIP3    H144022   0.809   1.353   4.834  0.4964 -1.6809 -0.2851
 6609TIP3    H244023   0.671   1.298   4.803  0.4359 -2.6050  1.4681
 6610TIP3   OH244024   4.825   5.296  10.914  0.4661  0.1529 -0.6950
 6610TIP3    H144025   4.874   5.298  10.832  1.8710  0.4336  0.1189
 6610TIP3    H244026   4.856   5.373  10.962  1.2728 -1.1703  0.9822
 6611TIP3   OH244027   4.526   1.498   5.939 -0.7550 -0.1855  0.3151
 6611TIP3    H144028   4.620   1.503   5.952 -0.7639 -0.7012  0.6113
 6611TIP3    H244029   4.489   1.559   6.003 -0.6859 -1.0257  1.1875
 6612TIP3   OH244030   0.734   7.158   5.347 -0.3226  0.0946  0.1747
 6612TIP3    H144031   0.670   7.118   5.287 -0.0990  0.5164 -0.3594
 6612TIP3    H244032   0.818   7.148   5.302 -0.0900  0.0305  0.6228
 6613TIP3   OH244033   2.486   1.139   3.575  0.6422 -0.5102 -0.6677
 6613TIP3    H144034   2.431   1.213   3.600 -0.0462 -0.3097 -2.6242
 6613TIP3    H244035   2.573   1.162   3.609  0.3699  1.0153 -0.9189
 6614TIP3   OH244036   1.014   7.256   5.688 -0.0743  0.0263 -0.3977
 6614TIP3    H144037   1.002   7.195   5.761 -1.0876  0.8760  0.1798
 6614TIP3    H244038   1.107   7.250   5.667  0.1546 -0.5593  0.6901
 6615TIP3   OH244039   6.951   3.579   6.224 -0.1268  0.1620 -0.3658
 6615TIP3    H144040   7.041   3.584   6.194  0.0766  0.5193  0.2934
 6615TIP3    H244041   6.939   3.656   6.279 -0.7726  0.0095 -0.2787
 6616TIP3   OH244042   3.934   3.920   3.947 -0.1914 -0.4150  0.2684
 6616TIP3    H144043   3.848   3.912   3.988  0.1729 -0.6291  1.0060
 6616TIP3    H244044   3.986   3.851   3.988  0.3193 -0.3155 -0.2068
 6617TIP3   OH244045   0.221   5.619   4.652  0.5706  0.5383  0.1158
 6617TIP3    H144046   0.192   5.709   4.667  0.7771  0.6446 -0.1225
 6617TIP3    H244047   0.308   5.614   4.690 -0.0207  0.0169  1.4780
 6618TIP3   OH244048   2.189   0.800   5.436 -0.2777 -0.2073  0.0804
 6618TIP3    H144049   2.209   0.764   5.350  0.3355  0.0212  0.1192
 6618TIP3    H244050   2.098   0.829   5.430 -0.2566 -0.2484 -0.4699
 6619TIP3   OH244051   3.475   3.462   3.550 -0.2196  0.0245  0.2764
 6619TIP3    H144052   3.445   3.553   3.542  0.6622  0.3542  0.6622
 6619TIP3    H244053   3.396   3.410   3.534 -0.5719  0.8316 -0.7264
 6620TIP3   OH244054   0.134   6.811   5.154 -0.4768 -0.2400  0.0714
 6620TIP3    H144055   0.045   6.798   5.123 -0.7183  1.0216  0.1808
 6620TIP3    H244056   0.147   6.906   5.151  0.8063 -0.3909  0.2111
 6621TIP3   OH244057   5.129   3.412   3.813  0.2469  0.1255 -0.5752
 6621TIP3    H144058   5.053   3.469   3.804  0.1355  0.2712  1.0170
 6621TIP3    H244059   5.196   3.466   3.856  0.3138 -0.7646  0.4982
 6622TIP3   OH244060   2.707   2.317   5.246 -0.4907 -0.0166  0.1042
 6622TIP3    H144061   2.693   2.225   5.268 -0.5549  0.3908  1.8944
 6622TIP3    H244062   2.741   2.357   5.326  0.3739  1.3505 -0.8959
 6623TIP3   OH244063   3.413   4.045   5.795  0.2440  0.4044 -0.7401
 6623TIP3    H144064   3.489   4.072   5.848  0.1712 -1.2392  0.2592
 6623TIP3    H244065   3.352   4.119   5.801 -0.0626  0.0254  2.0962
 6624TIP3   OH244066   2.472   1.396   5.059  0.1139  0.3435 -0.0984
 6624TIP3    H144067   2.500   1.421   4.970 -0.9423 -0.5492 -0.7112
 6624TIP3    H244068   2.463   1.300   5.055 -0.1989  0.3214  0.8998
 6625TIP3   OH244069   0.481   3.423   5.804 -0.5753 -0.2074 -0.1438
 6625TIP3    H144070   0.546   3.430   5.874 -0.2529 -0.6867 -0.3897
 6625TIP3    H244071   0.499   3.339   5.762 -2.3884 -1.1348  0.8230
 6626TIP3   OH244072   5.224   5.146   4.880  0.0753  0.1079 -0.2588
 6626TIP3    H144073   5.142   5.116   4.840 -0.9124 -0.5687  2.0834
 6626TIP3    H244074   5.276   5.066   4.891  0.4479  0.3243 -0.4404
 6627TIP3   OH244075   0.177   5.975   5.894  0.2057  0.2279  0.3944
 6627TIP3    H144076   0.255   5.942   5.938  0.4022  0.4183  0.1881
 6627TIP3    H244077   0.156   5.907   5.829 -0.8641 -0.7051  1.6595
 6628TIP3   OH244078   6.553   3.261   3.864 -0.3683  0.4165  0.5313
 6628TIP3    H144079   6.575   3.352   3.847  1.3435 -0.3484 -1.7945
 6628TIP3    H244080   6.490   3.238   3.797  1.3324 -0.8098 -0.7391
 6629TIP3   OH244081   2.296   7.520   5.902  0.1650  0.3100  0.6566
 6629TIP3    H144082   2.215   7.470   5.903 -0.6484  1.5167 -0.9258
 6629TIP3    H244083   2.272   7.605   5.940  0.6086  0.7794 -0.0995
 6630TIP3   OH244084   1.634   0.268   4.906  0.0430 -0.5390 -0.1446
 6630TIP3    H144085   1.547   0.281   4.942  0.1665  0.4786 -0.1746
 6630TIP3    H244086   1.693   0.309   4.969  0.2244  1.7445 -1.6714
 6631TIP3   OH244087   0.337   6.104   5.091 -0.3004 -0.0075  0.4336
 6631TIP3    H144088   0.287   6.186   5.096  0.6777  0.6204  0.3272
 6631TIP3    H244089   0.413   6.119   5.147 -0.5588 -1.1955  1.1316
 6632TIP3   OH244090   3.269   2.656   5.345  0.8103  0.1857 -0.2664
 6632TIP3    H144091   3.276   2.617   5.257  0.1063  0.5967 -0.5123
 6632TIP3    H244092   3.203   2.603   5.389  0.9459  0.1695 -0.0803
 6633TIP3   OH244093   6.748   1.667   6.060 -0.2549 -1.3814  0.1085
 6633TIP3    H144094   6.658   1.635   6.057 -0.4863 -0.7589  0.1917
 6633TIP3    H244095   6.751   1.724   6.137 -0.3361  0.1505 -0.9766
 6634TIP3   OH244096   0.283   3.262   4.849 -0.2040  0.5765  0.2144
 6634TIP3    H144097   0.287   3.307   4.934  1.1447  1.2793 -0.1771
 6634TIP3    H244098   0.300   3.332   4.785  1.2856 -0.3592 -0.4593
 6635TIP3   OH244099   7.492   0.747   4.820  0.0539  0.0792 -0.4273
 6635TIP3    H144100   7.436   0.683   4.863  0.5076  0.2412  0.4240
 6635TIP3    H244101   7.517   0.706   4.737 -0.9067 -0.1987 -0.5954
 6636TIP3   OH244102   5.428   5.618   4.506  0.2834  0.2378  0.0452
 6636TIP3    H144103   5.350   5.672   4.523  0.1609 -0.3065  1.3551
 6636TIP3    H244104   5.483   5.631   4.583  1.5632  0.7044 -0.9190
 6637TIP3   OH244105   6.793   2.191   4.159 -0.3102 -0.4112  0.2935
 6637TIP3    H144106   6.802   2.186   4.063 -2.1078 -1.8651  0.1233
 6637TIP3    H244107   6.862   2.134   4.193 -0.8876 -1.4948 -0.2765
 6638TIP3   OH244108   2.462   7.138   3.616  0.5219 -0.5053  0.1564
 6638TIP3    H144109   2.433   7.050   3.594 -0.2823  0.0001 -0.9015
 6638TIP3    H244110   2.483   7.134   3.710 -0.4794 -1.5668  0.3515
 6639TIP3   OH244111   1.695   5.188   4.939  0.6254  0.0769 -0.1903
 6639TIP3    H144112   1.684   5.197   4.845  0.1508  1.2132 -0.0481
 6639TIP3    H244113   1.752   5.112   4.950  1.7041  0.6654 -1.4463
 6640TIP3   OH244114   1.494   0.137   4.563 -0.0207  0.2158 -0.1405
 6640TIP3    H144115   1.417   0.150   4.618 -0.1557 -0.2216 -0.2207
 6640TIP3    H244116   1.525   0.050   4.586  0.3092  0.2969 -0.2823
 6641TIP3   OH244117   2.135   2.875   4.946  0.0807  0.4395  0.1336
 6641TIP3    H144118   2.091   2.814   4.887  3.2940 -1.3700 -0.6105
 6641TIP3    H244119   2.112   2.843   5.034 -3.1668  1.9980  0.0013
 6642TIP3   OH244120   0.553   5.400   5.950 -0.1113 -0.6194 -0.1140
 6642TIP3    H144121   0.541   5.332   6.017 -0.2110 -1.0656 -0.5801
 6642TIP3    H244122   0.611   5.464   5.992  0.0251 -1.0135  0.3136
 6643TIP3   OH244123   6.758   2.713   4.972 -0.0917  0.3367 -0.3812
 6643TIP3    H144124   6.808   2.694   5.051 -0.7654 -0.5798 -0.1597
 6643TIP3    H244125   6.824   2.740   4.908  0.4180  1.4584  0.5895
 6644TIP3   OH244126   0.009   7.676   4.127 -0.5675  0.0050  0.4996
 6644TIP3    H144127   0.051   7.618   4.190 -0.1802 -1.0350 -0.6696
 6644TIP3    H244128   0.079   7.733   4.096  0.3177 -2.1625 -1.9457
 6645TIP3   OH244129   2.737   6.231   4.726  0.1706 -0.6210  0.0439
 6645TIP3    H144130   2.713   6.274   4.644  0.5471  0.2439  0.3718
 6645TIP3    H244131   2.658   6.235   4.779 -0.1737 -1.4781 -0.3880
 6646TIP3   OH244132   5.586   2.535   5.529  0.1210  0.0835  0.8197
 6646TIP3    H144133   5.657   2.551   5.591 -0.4959  2.5687  0.9798
 6646TIP3    H244134   5.601   2.598   5.459  0.1880 -1.9446 -1.1304
 6647TIP3   OH244135   5.685   4.060   4.460 -0.0715 -0.3206 -0.5117
 6647TIP3    H144136   5.660   4.050   4.368  1.8434  0.5613 -1.1747
 6647TIP3    H244137   5.780   4.058   4.460  0.0361  1.5857  1.2308
 6648TIP3   OH244138   5.514   5.722   5.248 -0.0949  0.5788  0.5436
 6648TIP3    H144139   5.512   5.768   5.164  0.1465  0.9334  0.7260
 6648TIP3    H244140   5.466   5.641   5.233  1.0551  0.0332 -0.3005
 6649TIP3   OH244141   0.645   5.646   6.738  0.7109 -0.3922 -0.2267
 6649TIP3    H144142   0.691   5.583   6.683  1.6269  1.5227 -1.7599
 6649TIP3    H244143   0.697   5.727   6.731 -1.4646  1.1066  0.0801
 6650TIP3   OH244144   6.224   0.349   5.624  0.3528  0.1286  0.1442
 6650TIP3    H144145   6.285   0.385   5.559 -0.8962  1.7350 -0.2037
 6650TIP3    H244146   6.229   0.409   5.698 -0.5361  0.0705  0.2615
 6651TIP3   OH244147   1.926   3.914   6.399 -0.3655 -0.4354  0.2889
 6651TIP3    H144148   1.954   3.873   6.317 -2.8304 -0.5809 -0.5713
 6651TIP3    H244149   1.911   4.006   6.376 -0.1566 -0.2706  0.8087
 6652TIP3   OH244150   6.888   7.080   4.503  0.0513  0.1103  0.5102
 6652TIP3    H144151   6.865   7.137   4.577 -1.3497  0.6406 -0.3054
 6652TIP3    H244152   6.867   7.131   4.425  1.1177 -0.6008 -0.2787
 6653TIP3   OH244153   2.668   0.410   5.502 -0.1333 -0.4989 -0.5301
 6653TIP3    H144154   2.602   0.341   5.513  0.2016 -0.7276  0.1272
 6653TIP3    H244155   2.724   0.377   5.432 -2.3402  1.0047 -3.2158
 6654TIP3   OH244156   7.185   2.816   4.376 -0.4526 -0.2587  0.1887
 6654TIP3    H144157   7.255   2.875   4.349  0.8274 -0.3034  3.0045
 6654TIP3    H244158   7.111   2.874   4.394  0.3352  0.3766  1.5167
 6655TIP3   OH244159   4.469   3.773   4.005  0.1648 -0.1196 -0.7557
 6655TIP3    H144160   4.461   3.845   4.067 -0.3046 -0.6680 -0.1658
 6655TIP3    H244161   4.384   3.730   4.007  0.0140  0.0768 -2.0703
 6656TIP3   OH244162   5.804   4.572   6.483  0.0221  0.0293  0.7742
 6656TIP3    H144163   5.751   4.635   6.435  1.4827  1.7149  1.2694
 6656TIP3    H244164   5.741   4.526   6.539 -1.2142  0.3571 -0.2981
 6657TIP3   OH244165   1.420   6.542   5.066  0.0034 -0.7304  0.4985
 6657TIP3    H144166   1.328   6.568   5.067  0.0529 -0.5009 -0.3530
 6657TIP3    H244167   1.431   6.487   5.144 -0.6343 -0.0067  1.1147
 6658TIP3   OH244168   5.748   0.063   6.261  0.2968 -0.4944  0.0163
 6658TIP3    H144169   5.662   0.102   6.272 -0.2028 -1.9180  1.5116
 6658TIP3    H244170   5.806   0.137   6.241 -1.3339  0.4057 -1.6347
 6659TIP3   OH244171   6.076   4.589   6.407 -0.2042  0.4438 -0.7656
 6659TIP3    H144172   5.981   4.581   6.420 -0.0436 -1.0739 -0.3672
 6659TIP3    H244173   6.089   4.570   6.314 -0.1787 -0.5903 -0.5579
 6660TIP3   OH244174   5.922   0.072   5.691 -0.0076  0.1712 -0.4721
 6660TIP3    H144175   5.833   0.059   5.724 -0.5885  1.9088 -1.2015
 6660TIP3    H244176   5.979   0.044   5.762 -1.1675  0.4881  0.6171
 6661TIP3   OH244177   6.854   2.631   5.589 -0.6526  0.2171  0.2566
 6661TIP3    H144178   6.803   2.587   5.657  0.0206 -0.7911  0.1222
 6661TIP3    H244179   6.893   2.560   5.538  0.4656  0.9651  0.0397
 6662TIP3   OH244180   4.886   0.126   5.134  0.6091 -0.0797  0.3922
 6662TIP3    H144181   4.808   0.108   5.082  0.6664  1.1765 -0.1534
 6662TIP3    H244182   4.941   0.179   5.077  1.5445 -0.3439  1.0373
 6663TIP3   OH244183   2.578   7.554   4.835 -0.1150  0.3562  0.2295
 6663TIP3    H144184   2.591   7.572   4.928 -0.3409  0.8800  0.1617
 6663TIP3    H244185   2.485   7.570   4.820  0.0711  0.9911 -0.2430
 6664TIP3   OH244186   6.590   7.593   5.480  0.1894 -0.2490 -0.3783
 6664TIP3    H144187   6.559   7.626   5.395  0.2288  2.6813  0.6547
 6664TIP3    H244188   6.650   7.660   5.512  0.5099 -1.4874  1.8122
 6665TIP3   OH244189   4.935   4.948   4.944 -0.5443 -0.1777 -0.0108
 6665TIP3    H144190   5.001   5.005   4.903 -0.8704 -0.1120 -0.4503
 6665TIP3    H244191   4.852   4.977   4.907 -0.6954 -1.0993 -0.4326
 6666TIP3   OH244192   5.749   0.815   4.335  0.2546  0.2406 -0.0640
 6666TIP3    H144193   5.697   0.829   4.256  0.1786 -0.0713 -0.0705
 6666TIP3    H244194   5.708   0.741   4.378 -0.8696  1.5731  1.2551
 6667TIP3   OH244195   0.889   5.729   5.134  0.3779  0.1553  0.2482
 6667TIP3    H144196   0.856   5.814   5.104  2.7113  0.6538 -1.1595
 6667TIP3    H244197   0.872   5.670   5.060  0.5802 -0.1180  0.4182
 6668TIP3   OH244198   4.167   5.761   5.649  0.3921 -0.1892 -0.0390
 6668TIP3    H144199   4.075   5.735   5.651  0.0482  0.9945  1.0794
 6668TIP3    H244200   4.196   5.755   5.740  1.1040  0.5212 -0.2049
 6669TIP3   OH244201   1.411   6.485   4.178 -0.2945  0.4588  0.5429
 6669TIP3    H144202   1.429   6.553   4.243  0.5456  1.9182 -1.1299
 6669TIP3    H244203   1.378   6.411   4.230 -0.0807  1.6839  2.5624
 6670TIP3   OH244204   4.024   0.885   5.527  0.1853  0.5273  0.0448
 6670TIP3    H144205   3.989   0.810   5.576 -0.0784  1.2017  0.8988
 6670TIP3    H244206   4.022   0.957   5.589  1.1989  1.0590 -0.5291
 6671TIP3   OH244207   2.881   5.232   5.433 -0.4302  0.2599  0.3902
 6671TIP3    H144208   2.882   5.250   5.527 -0.2796  2.4259  0.0292
 6671TIP3    H244209   2.897   5.138   5.427  1.2643  0.3250  2.4769
 6672TIP3   OH244210   5.811   4.025   3.887  0.1655 -0.4461  0.0313
 6672TIP3    H144211   5.883   4.031   3.824  0.3439 -0.5793  0.2198
 6672TIP3    H244212   5.755   3.956   3.851 -1.2119  1.3377 -1.4521
 6673TIP3   OH244213   1.218   0.336   5.470  0.4192  0.1827  0.6525
 6673TIP3    H144214   1.217   0.241   5.461 -1.8182 -0.0319  2.4300
 6673TIP3    H244215   1.163   0.369   5.399 -1.2999 -0.1146  1.7990
 6674TIP3   OH244216   4.380   7.634   4.437 -0.2454  0.6014 -0.1133
 6674TIP3    H144217   4.307   7.587   4.398 -0.3653  1.1096 -0.5245
 6674TIP3    H244218   4.450   7.569   4.444 -0.7144  0.1242  0.2384
 6675TIP3   OH244219   2.991   6.455   6.187 -0.4712  0.5637 -0.1094
 6675TIP3    H144220   3.006   6.545   6.160  1.8993 -0.2716 -1.9396
 6675TIP3    H244221   3.077   6.423   6.213 -1.4592 -0.8773  1.6224
 6676TIP3   OH244222   0.293   1.646   4.426  0.1734 -0.1299  0.0524
 6676TIP3    H144223   0.302   1.552   4.444  0.6840 -0.1517 -0.2872
 6676TIP3    H244224   0.273   1.651   4.333 -0.9803  0.0518  0.3016
 6677TIP3   OH244225   1.328   1.518   5.367  0.1419  0.0695 -0.5200
 6677TIP3    H144226   1.236   1.490   5.362 -0.2740  1.3782 -0.4367
 6677TIP3    H244227   1.364   1.466   5.439 -0.7877  0.2119  0.0754
 6678TIP3   OH244228   1.574   0.121   4.300 -0.8355  0.6245 -0.1153
 6678TIP3    H144229   1.579   0.216   4.313  3.3004  0.2733  3.1449
 6678TIP3    H244230   1.563   0.086   4.389 -0.5608 -1.9546 -1.0176
 6679TIP3   OH244231   1.307   2.919   4.818 -0.5354 -0.6862  0.4419
 6679TIP3    H144232   1.236   2.869   4.860 -0.5453 -0.2899  0.9062
 6679TIP3    H244233   1.386   2.869   4.839 -0.6443 -1.0018  0.1223
 6680TIP3   OH244234   5.998   2.124   5.961 -0.0114  0.1201  0.0244
 6680TIP3    H144235   5.964   2.128   6.050  2.1527 -0.4483  0.9620
 6680TIP3    H244236   6.057   2.048   5.962 -0.2857 -0.1829 -2.0411
 6681TIP3   OH244237   0.593   6.646   4.691 -0.3836 -0.3536  0.6008
 6681TIP3    H144238   0.645   6.671   4.614  1.6974 -1.7659  1.4513
 6681TIP3    H244239   0.587   6.725   4.744  0.2729  0.0131  0.1358
 6682TIP3   OH244240   6.519   5.696   4.309 -0.6852 -0.0677  0.5733
 6682TIP3    H144241   6.598   5.750   4.315 -1.0353  0.2868  2.4630
 6682TIP3    H244242   6.531   5.628   4.376 -1.2677 -0.9887 -0.2299
 6683TIP3   OH244243   5.484   5.217   6.968  0.6527  0.1870  0.1483
 6683TIP3    H144244   5.505   5.142   6.912  0.6814  0.7931 -0.6834
 6683TIP3    H244245   5.389   5.224   6.963  0.6519  0.2136  0.2086
 6684TIP3   OH244246   3.282   7.663   5.571 -0.1052  0.2830 -0.2232
 6684TIP3    H144247   3.367   7.706   5.559 -0.6448  1.3012 -0.5192
 6684TIP3    H244248   3.219   7.726   5.537 -1.0137 -0.3095  0.3368
 6685TIP3   OH244249   4.785   1.024   5.369 -0.2951 -0.1012 -0.2306
 6685TIP3    H144250   4.842   1.100   5.377 -0.9933  0.3239  0.9198
 6685TIP3    H244251   4.708   1.057   5.322  0.5569 -0.7892 -2.2261
 6686TIP3   OH244252   1.399   2.963   4.201 -0.4734 -0.0858  0.5669
 6686TIP3    H144253   1.426   3.054   4.213  1.0029 -0.5252  0.7065
 6686TIP3    H244254   1.308   2.961   4.230 -1.2250  1.7942 -1.3792
 6687TIP3   OH244255   3.153   5.864   5.446 -0.3421 -0.1268  0.0734
 6687TIP3    H144256   3.124   5.811   5.520 -2.3332  1.7662  0.7679
 6687TIP3    H244257   3.103   5.830   5.371 -1.3974  0.4928  0.4609
 6688TIP3   OH244258   4.081   1.844   5.361  0.2626  0.2871 -0.3596
 6688TIP3    H144259   4.011   1.802   5.411  0.7250  0.7831  0.7312
 6688TIP3    H244260   4.066   1.938   5.373 -0.9769  0.5426 -3.0595
 6689TIP3   OH244261   2.528   2.579   3.985  0.0726  0.4378  0.4696
 6689TIP3    H144262   2.510   2.522   3.909  0.4326  1.1522 -0.1634
 6689TIP3    H244263   2.502   2.666   3.956  1.5089  0.9493  0.6748
 6690TIP3   OH244264   5.579   1.212   6.402 -0.0780 -0.0542 -0.4440
 6690TIP3    H144265   5.539   1.277   6.460  1.2105  0.1259  0.2996
 6690TIP3    H244266   5.552   1.237   6.314  0.3761  1.4885 -0.1630
 6691TIP3   OH244267   0.815   0.332   4.914  0.0057  0.0566 -0.6185
 6691TIP3    H144268   0.910   0.340   4.905  0.2698 -0.2409  1.4571
 6691TIP3    H244269   0.795   0.244   4.883  0.5619 -0.2596 -0.0929
 6692TIP3   OH244270   0.272   6.094   4.550 -0.5443 -0.3809  0.1272
 6692TIP3    H144271   0.245   6.153   4.620 -0.5070  1.0886 -1.0377
 6692TIP3    H244272   0.297   6.013   4.594 -1.6007  0.1037  1.6939
 6693TIP3   OH244273   0.979   7.597   6.475 -0.3776  0.2234  0.3216
 6693TIP3    H144274   1.008   7.688   6.467 -2.7564  0.9363 -1.5241
 6693TIP3    H244275   0.887   7.599   6.449  0.0273 -3.0122 -2.0217
 6694TIP3   OH244276   0.039   3.059   4.213  0.0800  0.5211  0.1781
 6694TIP3    H144277  -0.040   3.006   4.223 -0.0029  0.1476 -1.8943
 6694TIP3    H244278   0.008   3.145   4.187  0.3207  0.5929  0.1206
 6695TIP3   OH244279   6.383   2.175   4.984  0.3576  0.5651 -0.3667
 6695TIP3    H144280   6.294   2.202   5.005 -0.1921 -1.2164 -0.2429
 6695TIP3    H244281   6.438   2.225   5.044 -0.5577  1.5304 -0.2997
 6696TIP3   OH244282   2.798   5.025   4.933  0.0168  0.7614  0.9738
 6696TIP3    H144283   2.737   4.956   4.961 -0.0235  0.1479 -0.5396
 6696TIP3    H244284   2.884   4.983   4.935  0.0288  0.7501  0.3287
 6697TIP3   OH244285   0.898   3.574   3.771 -0.2786 -0.0327  0.3439
 6697TIP3    H144286   0.880   3.485   3.742  0.4251 -0.8184  2.1382
 6697TIP3    H244287   0.913   3.565   3.866  0.8902  1.8225  0.3758
 6698TIP3   OH244288   7.556   6.020   4.599 -0.1427  0.5824 -0.3172
 6698TIP3    H144289   7.481   6.075   4.623 -0.6989  1.1374 -2.9481
 6698TIP3    H244290   7.523   5.964   4.529  1.2492 -0.9844  0.2190
 6699TIP3   OH244291   5.642   0.489   4.674  0.1312 -0.6661 -0.8534
 6699TIP3    H144292   5.585   0.412   4.678 -0.1564 -0.6508 -3.1745
 6699TIP3    H244293   5.585   0.563   4.692  0.0320 -0.8479 -0.4000
 6700TIP3   OH244294   1.471   6.665   3.573  0.2821 -0.1954 -0.0862
 6700TIP3    H144295   1.522   6.695   3.498 -0.8712  1.3397 -0.2848
 6700TIP3    H244296   1.401   6.612   3.535  0.2878 -0.2670  0.0018
 6701TIP3   OH244297   5.524   1.031   4.292  0.2069  0.3989  0.2527
 6701TIP3    H144298   5.488   0.964   4.350 -0.9138 -0.8346 -1.7398
 6701TIP3    H244299   5.461   1.103   4.297 -0.4440 -0.1279 -0.1978
 6702TIP3   OH244300   0.437   5.519   6.614 -0.0528  0.2011  0.2753
 6702TIP3    H144301   0.505   5.566   6.663  0.3536  1.1559 -1.1468
 6702TIP3    H244302   0.407   5.582   6.549 -2.6224 -0.0605  1.1144
 6703TIP3   OH244303   0.847   1.592   5.086  0.1678  0.2482  0.1179
 6703TIP3    H144304   0.907   1.650   5.132  0.7132 -0.6292  0.5457
 6703TIP3    H244305   0.885   1.505   5.098 -0.6293 -0.1945 -0.5099
 6704TIP3   OH244306   5.114   6.844   4.013 -0.1260 -0.2625 -0.4362
 6704TIP3    H144307   5.191   6.863   3.959 -0.5670 -1.5074 -1.5414
 6704TIP3    H244308   5.040   6.845   3.953 -0.8484 -0.1473  0.4263
 6705TIP3   OH244309   2.443   4.679   5.552 -0.0965  0.1898 -0.1463
 6705TIP3    H144310   2.502   4.606   5.535 -1.9383 -1.3553 -0.2499
 6705TIP3    H244311   2.465   4.744   5.485  0.1956 -1.1607 -1.4123
 6706TIP3   OH244312   4.325   2.866   4.650 -0.5580  0.1005  1.0078
 6706TIP3    H144313   4.379   2.793   4.621 -1.2745 -0.5370  1.2279
 6706TIP3    H244314   4.310   2.918   4.571 -1.6885 -1.0865  0.3858
 6707TIP3   OH244315   0.875   2.883   5.292  0.1545 -0.4696 -0.0901
 6707TIP3    H144316   0.960   2.868   5.332 -0.6373 -2.3463  1.0268
 6707TIP3    H244317   0.813   2.881   5.366 -1.2692 -3.1209 -1.2125
 6708TIP3   OH244318   3.263   0.853   4.923  0.4479  0.2928 -0.3156
 6708TIP3    H144319   3.243   0.896   5.006 -1.6888  0.9813 -1.1040
 6708TIP3    H244320   3.356   0.834   4.927  0.2365 -0.5602  2.6222
 6709TIP3   OH244321   6.693   3.650   5.535 -0.0228  0.1423  0.2482
 6709TIP3    H144322   6.673   3.556   5.542  0.0626  0.0329 -0.7850
 6709TIP3    H244323   6.615   3.693   5.569  0.0386 -0.2964  0.9783
 6710TIP3   OH244324   7.661   7.493   5.490 -0.4466  0.3059  0.5104
 6710TIP3    H144325   7.677   7.454   5.404  0.8199  2.6258 -0.4234
 6710TIP3    H244326   7.748   7.496   5.531 -0.7858  0.6098  1.2285
 6711TIP3   OH244327   2.117   7.208   5.689  0.2227  0.3466 -0.2729
 6711TIP3    H144328   2.206   7.179   5.708 -0.0266 -0.7522 -0.7661
 6711TIP3    H244329   2.073   7.204   5.774  0.3592 -0.1280 -0.2199
 6712TIP3   OH244330   0.750   1.901   4.964 -0.7620  0.1995 -0.1558
 6712TIP3    H144331   0.779   1.840   5.031  0.8033  0.8213 -0.2349
 6712TIP3    H244332   0.743   1.848   4.885 -0.9184 -0.1724  0.1015
 6713TIP3   OH244333   0.367   3.936   5.817 -0.6515 -0.4681  0.0818
 6713TIP3    H144334   0.348   4.018   5.864 -0.7942  1.3022 -2.8357
 6713TIP3    H244335   0.462   3.934   5.810 -0.6869  2.0002 -3.7147
 6714TIP3   OH244336   0.267   3.727   4.877 -0.1789 -0.0692  0.6166
 6714TIP3    H144337   0.209   3.800   4.854  0.5919  0.0527 -1.0655
 6714TIP3    H244338   0.300   3.749   4.965 -0.0036  1.5926  0.1613
 6715TIP3   OH244339   1.971   0.778   4.847  0.9336 -0.5001  0.1773
 6715TIP3    H144340   1.954   0.684   4.857  0.8799 -0.5746 -0.5485
 6715TIP3    H244341   1.913   0.805   4.775  0.9010  0.1040  0.4277
 6716TIP3   OH244342   1.686   6.466   6.021  0.0123  0.0574  0.5490
 6716TIP3    H144343   1.755   6.532   6.030 -0.7525  0.8606  0.6963
 6716TIP3    H244344   1.721   6.389   6.065  1.5258 -0.1332 -0.8915
 6717TIP3   OH244345   0.137   2.353   6.357 -0.0565 -0.3108  0.3563
 6717TIP3    H144346   0.120   2.376   6.448  0.1566 -0.8150  0.5239
 6717TIP3    H244347   0.120   2.259   6.352 -0.5960 -0.1908 -0.2481
 6718TIP3   OH244348   0.256   0.287   5.016  0.9111  0.0225 -0.2430
 6718TIP3    H144349   0.308   0.367   5.024  1.4754 -0.0754 -2.3731
 6718TIP3    H244350   0.278   0.253   4.929 -2.3827 -0.2661 -1.0911
 6719TIP3   OH244351   4.136   0.320   4.069  0.4578  0.1594 -0.3766
 6719TIP3    H144352   4.110   0.267   3.994  0.2821  0.8229 -0.7870
 6719TIP3    H244353   4.155   0.256   4.138  2.2361 -0.5502 -1.4726
 6720TIP3   OH244354   0.733   4.447   5.804  0.0681 -0.3642  0.0125
 6720TIP3    H144355   0.675   4.406   5.740  0.0636 -0.0510 -0.1860
 6720TIP3    H244356   0.718   4.541   5.794 -0.0683 -0.3198  0.6085
 6721TIP3   OH244357   2.254   4.128   4.827 -0.2161 -0.4270  0.0969
 6721TIP3    H144358   2.269   4.215   4.791 -0.4731  0.3743  1.8008
 6721TIP3    H244359   2.330   4.111   4.882 -1.1638 -0.2838  1.5202
 6722TIP3   OH244360   6.854   6.354   4.262  0.2090 -0.2580  0.1280
 6722TIP3    H144361   6.778   6.368   4.318 -0.0586 -0.9964 -0.0316
 6722TIP3    H244362   6.817   6.335   4.176  0.5139 -1.7304  0.2855
 6723TIP3   OH244363   0.858   2.085   3.940 -0.0651 -0.5306 -0.0233
 6723TIP3    H144364   0.808   2.005   3.954 -0.1623 -0.7906 -1.6876
 6723TIP3    H244365   0.916   2.090   4.016 -0.2525 -2.0192  0.2546
 6724TIP3   OH244366   2.946   1.081   4.223  0.0837 -0.5131  0.0115
 6724TIP3    H144367   3.021   1.028   4.250 -0.7859 -1.4962  0.5788
 6724TIP3    H244368   2.884   1.017   4.187 -1.2494  0.0294  1.2900
 6725TIP3   OH244369   6.037   1.843   5.450 -0.3574  0.0130  0.8795
 6725TIP3    H144370   5.973   1.906   5.485  0.3479  0.6335  1.0587
 6725TIP3    H244371   6.026   1.766   5.506 -2.8585 -0.9486 -0.7601
 6726TIP3   OH244372   4.502   6.194   5.333  0.1258  0.6361 -0.1705
 6726TIP3    H144373   4.465   6.255   5.270 -0.6981  0.7125  0.3748
 6726TIP3    H244374   4.519   6.247   5.411  0.9525  0.5033 -0.2446
 6727TIP3   OH244375   0.848   0.688   6.324  0.7030 -0.1178  0.4998
 6727TIP3    H144376   0.859   0.735   6.406  0.9416 -0.8140  0.8742
 6727TIP3    H244377   0.807   0.605   6.348 -1.1081  0.4974 -0.3326
 6728TIP3   OH244378   6.149   6.270   4.135 -0.5182 -0.5580 -0.2079
 6728TIP3    H144379   6.058   6.287   4.109 -0.7133  0.3976  1.0427
 6728TIP3    H244380   6.161   6.177   4.117 -2.0284 -0.9066  0.3796
 6729TIP3   OH244381   4.062   4.482   5.087  0.3568  0.0568  0.5154
 6729TIP3    H144382   4.117   4.515   5.017  0.0088 -0.7812 -0.1716
 6729TIP3    H244383   4.030   4.398   5.055 -2.8390  1.2977  0.0427
 6730TIP3   OH244384   1.681   0.502   5.547 -0.1260  0.1427 -0.4482
 6730TIP3    H144385   1.693   0.498   5.642 -1.1157  0.6305 -0.2882
 6730TIP3    H244386   1.587   0.492   5.534 -0.2353  1.8872 -1.2616
 6731TIP3   OH244387   1.818   6.016   4.098 -0.0606 -0.0778 -0.4380
 6731TIP3    H144388   1.731   6.053   4.112  0.2212  0.4647 -0.0949
 6731TIP3    H244389   1.833   6.022   4.004 -0.4791 -0.3762 -0.5263
 6732TIP3   OH244390   0.399   5.900   4.753  0.1583  0.5993 -0.3321
 6732TIP3    H144391   0.454   5.829   4.720 -2.1449 -1.0985 -0.7933
 6732TIP3    H244392   0.461   5.968   4.781  2.4950 -1.6962  0.4352
 6733TIP3   OH244393   7.158   0.956   4.876 -0.4563 -0.6766 -0.0728
 6733TIP3    H144394   7.119   0.991   4.795 -1.6178 -1.4511  0.1166
 6733TIP3    H244395   7.162   1.031   4.935 -0.9957 -0.4131 -0.3565
 6734TIP3   OH244396   6.830   4.254   5.837 -0.0609  0.2943  0.0723
 6734TIP3    H144397   6.897   4.275   5.773  0.8056 -0.4503  0.7080
 6734TIP3    H244398   6.748   4.259   5.788  0.4802  0.8181 -0.8154
 6735TIP3   OH244399   1.949   3.175   5.917  0.0812  0.6571  0.0105
 6735TIP3    H144400   1.988   3.210   5.998 -0.8233  0.3769  0.5788
 6735TIP3    H244401   1.889   3.107   5.947  2.0356 -1.6991 -1.0721
 6736TIP3   OH244402   3.740   7.659   5.700 -0.0434 -0.1960 -0.1025
 6736TIP3    H144403   3.800   7.585   5.710 -0.6221 -0.5389  0.9306
 6736TIP3    H244404   3.676   7.649   5.770 -0.7015  0.7552 -0.5332
 6737TIP3   OH244405   1.234   0.115   4.733 -0.0797  0.0068  0.6212
 6737TIP3    H144406   1.142   0.109   4.711 -0.0529 -0.5578  0.6336
 6737TIP3    H244407   1.249   0.042   4.793  0.5380 -0.3668  0.0305
 6738TIP3   OH244408   0.862   0.835   5.408 -0.7862 -0.0948 -0.1142
 6738TIP3    H144409   0.818   0.901   5.462 -0.6855 -0.2113  0.1104
 6738TIP3    H244410   0.894   0.770   5.471  0.3460  0.3578 -0.1995
 6739TIP3   OH244411   4.413   6.398   5.179  0.4315  0.1637 -0.1196
 6739TIP3    H144412   4.427   6.485   5.217 -0.2929  0.2328  0.0172
 6739TIP3    H244413   4.453   6.402   5.092  1.0413  0.3958  0.1672
 6740TIP3   OH244414   5.828   0.525   6.070 -0.4623 -0.4007 -0.1419
 6740TIP3    H144415   5.913   0.569   6.068  0.0966 -1.4166  0.6637
 6740TIP3    H244416   5.764   0.597   6.070  0.4141  0.4018  0.4573
 6741TIP3   OH244417   1.383   0.262   6.361  0.4350  1.0334  0.2655
 6741TIP3    H144418   1.418   0.276   6.273  0.0212 -1.9157 -0.4754
 6741TIP3    H244419   1.447   0.304   6.419  0.5421  3.3321 -1.3848
 6742TIP3   OH244420   0.129   2.891   5.948  0.0100 -0.2608  0.7293
 6742TIP3    H144421   0.068   2.946   5.998 -0.8119  0.1718 -0.7010
 6742TIP3    H244422   0.124   2.806   5.992  0.9862  0.6370  2.7122
 6743TIP3   OH244423   2.355   3.583   5.625  0.5902  0.1739  0.2434
 6743TIP3    H144424   2.428   3.627   5.582 -0.3034  0.6828 -0.8234
 6743TIP3    H244425   2.344   3.501   5.577  0.9973 -0.3152  0.9642
 6744TIP3   OH244426   1.767   1.854   5.211 -0.3739 -0.2684 -0.1603
 6744TIP3    H144427   1.749   1.770   5.252 -0.3454 -0.6746 -0.9505
 6744TIP3    H244428   1.818   1.832   5.133 -1.1250  0.3965 -0.8619
 6745TIP3   OH244429   0.130   1.057   5.803  0.2140  0.3671  0.2646
 6745TIP3    H144430   0.096   1.146   5.805 -0.9343  0.0039 -1.1131
 6745TIP3    H244431   0.073   1.011   5.742 -0.0650 -1.6647  1.9238
 6746TIP3   OH244432   7.629   6.943   6.480 -0.2726  0.1080 -0.0245
 6746TIP3    H144433   7.662   7.033   6.473  0.9318 -0.4176 -1.9762
 6746TIP3    H244434   7.695   6.897   6.533 -0.1867  0.0592 -0.1751
 6747TIP3   OH244435   5.396   4.915   5.531  0.2713 -0.4048  0.3744
 6747TIP3    H144436   5.435   4.898   5.445 -1.2715 -0.9453 -0.2386
 6747TIP3    H244437   5.436   4.850   5.589 -0.9309 -2.0677 -0.6089
 6748TIP3   OH244438   3.677   6.185   4.060 -0.1095 -0.4333 -0.4455
 6748TIP3    H144439   3.593   6.147   4.034 -0.1652  0.4660 -1.6384
 6748TIP3    H244440   3.670   6.277   4.037  1.0558 -0.2591 -0.1402
 6749TIP3   OH244441   1.108   4.453   4.689 -0.0350 -0.6259 -0.3686
 6749TIP3    H144442   1.171   4.504   4.739 -2.0755  1.8374 -0.0788
 6749TIP3    H244443   1.075   4.388   4.751 -0.1034  0.1908  0.4696
 6750TIP3   OH244444   0.329   7.610   6.002 -0.0170 -0.2421  0.2133
 6750TIP3    H144445   0.366   7.624   6.090  0.8593 -0.2883 -0.1345
 6750TIP3    H244446   0.278   7.688   5.984 -0.5926 -0.4308  0.9484
 6751TIP3   OH244447   1.951   1.577   6.783 -0.2779 -0.5512  0.0149
 6751TIP3    H144448   1.892   1.637   6.830 -1.1904 -1.5993  0.2649
 6751TIP3    H244449   2.024   1.632   6.754 -2.4519  1.3642 -2.3444
 6752TIP3   OH244450   3.281   1.053   6.723 -0.3743  0.1514 -0.4019
 6752TIP3    H144451   3.186   1.063   6.711 -0.2666  0.4969 -1.0148
 6752TIP3    H244452   3.310   1.002   6.648  0.1249  1.2310 -0.9659
 6753TIP3   OH244453   5.699   6.111   4.893  0.7594  0.1447 -0.1366
 6753TIP3    H144454   5.742   6.070   4.969  0.0112 -2.0548 -0.8289
 6753TIP3    H244455   5.765   6.170   4.858  0.6787  2.2852  2.9591
 6754TIP3   OH244456   0.252   3.862   6.503 -0.2642 -0.0933 -0.4883
 6754TIP3    H144457   0.267   3.905   6.588  0.0221 -0.4755 -0.3467
 6754TIP3    H244458   0.198   3.925   6.455 -1.6308 -0.4661  0.4931
 6755TIP3   OH244459   5.143   0.402   6.574  0.4948  0.0594  0.1973
 6755TIP3    H144460   5.200   0.340   6.529  0.7424  0.3695  0.0749
 6755TIP3    H244461   5.163   0.391   6.667  0.4743 -0.1039  0.1823
 6756TIP3   OH244462   1.024   4.848   3.723  0.0844  0.2511  0.0517
 6756TIP3    H144463   1.026   4.752   3.718 -0.5975  0.3143 -2.6684
 6756TIP3    H244464   1.116   4.874   3.721  0.2861 -0.3123  1.0664
 6757TIP3   OH244465   3.865   4.781   4.237 -0.5470 -0.1588 -0.1432
 6757TIP3    H144466   3.926   4.767   4.309  0.4594  0.9547 -0.7300
 6757TIP3    H244467   3.861   4.697   4.192  2.5491  0.2934 -1.5364
 6758TIP3   OH244468   1.867   1.955   4.747  0.4907 -0.0184  0.2725
 6758TIP3    H144469   1.855   1.920   4.659 -0.2998  0.9675 -0.0320
 6758TIP3    H244470   1.830   2.043   4.743  0.5050  0.0653  1.5740
 6759TIP3   OH244471   4.275   0.348   4.535 -0.1943 -0.5371  0.4107
 6759TIP3    H144472   4.269   0.312   4.623 -2.9625  0.6478  0.8187
 6759TIP3    H244473   4.223   0.288   4.481 -1.3713  0.5238  0.3022
 6760TIP3   OH244474   4.504   4.826   5.482 -0.3133 -0.1007  0.5273
 6760TIP3    H144475   4.550   4.905   5.454  1.1049 -1.2431 -0.4666
 6760TIP3    H244476   4.451   4.855   5.556  0.2893  1.7472  0.2872
 6761TIP3   OH244477   0.452   3.192   5.665  0.0821 -0.0004  0.4677
 6761TIP3    H144478   0.393   3.146   5.726  0.6449 -1.5079 -0.0756
 6761TIP3    H244479   0.535   3.145   5.673  1.0584  1.7167  0.7770
 6762TIP3   OH244480   2.781   4.877   5.218 -0.4123 -0.0522 -0.0917
 6762TIP3    H144481   2.765   4.843   5.306  0.0396  1.6492  0.6846
 6762TIP3    H244482   2.768   4.971   5.225  2.8734  0.6065 -1.0157
 6763TIP3   OH244483   6.226   3.074   5.573 -0.3332  0.4914 -0.3635
 6763TIP3    H144484   6.216   3.162   5.537  1.6879  0.4370 -1.2013
 6763TIP3    H244485   6.304   3.078   5.627 -0.4560 -0.6795 -0.0627
 6764TIP3   OH244486   0.392   3.664   6.383  0.0590 -0.0875 -0.4256
 6764TIP3    H144487   0.343   3.738   6.420  1.4999  0.3826  0.5972
 6764TIP3    H244488   0.464   3.704   6.335  0.4784 -0.8165 -0.4181
 6765TIP3   OH244489   3.994   2.211   3.938 -0.2177  0.5173 -0.0462
 6765TIP3    H144490   3.999   2.279   3.871  1.3668 -0.1806 -0.6819
 6765TIP3    H244491   4.061   2.236   4.003  1.7848 -1.3615 -1.2470
 6766TIP3   OH244492   2.266   5.750   5.793 -0.0520  0.4988  0.5239
 6766TIP3    H144493   2.266   5.764   5.888  0.8203 -0.2258  0.6528
 6766TIP3    H244494   2.354   5.778   5.766  0.3451 -0.9701  0.2198
 6767TIP3   OH244495   2.908   1.894   5.006  0.2080  0.3436  0.2147
 6767TIP3    H144496   2.950   1.948   5.073  0.6302 -0.4830  0.6386
 6767TIP3    H244497   2.947   1.923   4.923  0.3576  0.7486  0.4244
 6768TIP3   OH244498   0.111   6.948   5.937  0.0644 -0.0066 -0.0164
 6768TIP3    H144499   0.039   6.891   5.909 -1.0223  0.8865  0.8766
 6768TIP3    H244500   0.116   6.936   6.032  0.0266  1.1437  0.1433
 6769TIP3   OH244501   4.828   3.975   3.954  0.0352  0.6469  0.0197
 6769TIP3    H144502   4.787   3.967   4.040 -0.9101  2.1384 -0.2491
 6769TIP3    H244503   4.780   3.915   3.898 -0.5867  1.0357  0.1271
 6770TIP3   OH244504   2.428   5.417   6.419  0.5747 -0.0953 -0.6494
 6770TIP3    H144505   2.386   5.495   6.383  0.7878  0.0638 -0.5557
 6770TIP3    H244506   2.362   5.348   6.410 -0.1143  0.3785  0.4806
 6771TIP3   OH244507   0.828   0.383   4.573 -0.5119  0.2089  0.1671
 6771TIP3    H144508   0.803   0.291   4.580  0.8942 -0.2494 -0.5604
 6771TIP3    H244509   0.861   0.393   4.484 -0.4814  1.3911  0.2822
 6772TIP3   OH244510   5.783   7.368   4.654  0.9354 -0.2696  0.9491
 6772TIP3    H144511   5.709   7.308   4.667  0.4840  0.0259 -0.1636
 6772TIP3    H244512   5.850   7.314   4.612 -0.3859  0.4702 -2.4981
 6773TIP3   OH244513   4.472   6.587   5.357  0.1706 -0.1431 -0.3700
 6773TIP3    H144514   4.470   6.525   5.430  0.7747  0.5048  0.2276
 6773TIP3    H244515   4.559   6.627   5.363  0.4116 -0.4258 -1.7604
 6774TIP3   OH244516   2.735   0.402   3.864  0.3876  0.4477 -0.1688
 6774TIP3    H144517   2.671   0.465   3.897 -0.9571 -0.0332 -1.7378
 6774TIP3    H244518   2.797   0.455   3.813 -0.7472  0.5719 -1.4960
 6775TIP3   OH244519   6.137   6.591   4.422  0.3746  0.1088 -0.9459
 6775TIP3    H144520   6.174   6.509   4.454  1.1950  0.7774 -0.1058
 6775TIP3    H244521   6.062   6.607   4.478  1.6388  1.1285  0.5488
 6776TIP3   OH244522   4.272   2.875   3.893 -0.6472 -0.0892 -0.3667
 6776TIP3    H144523   4.276   2.780   3.904 -0.7497 -0.2415 -1.5026
 6776TIP3    H244524   4.353   2.907   3.932 -0.6563 -0.6242  0.1175
 6777TIP3   OH244525   3.992   3.488   3.435  0.1935 -0.4086 -0.2013
 6777TIP3    H144526   3.955   3.567   3.397 -0.1242 -0.1770  0.5718
 6777TIP3    H244527   3.923   3.422   3.424  0.6279 -0.7122 -1.2491
 6778TIP3   OH244528   0.496   3.452   4.925 -0.0148 -0.4448  0.2134
 6778TIP3    H144529   0.435   3.465   4.852 -0.0166  0.4645  0.3585
 6778TIP3    H244530   0.583   3.450   4.884  0.0998  1.4127  0.2793
 6779TIP3   OH244531   1.101   3.463   5.964  0.2695 -0.0988 -0.3175
 6779TIP3    H144532   1.108   3.547   5.920 -2.5902  0.0499 -0.6556
 6779TIP3    H244533   1.117   3.482   6.056  2.2364  0.3062 -0.7049
 6780TIP3   OH244534   6.490   2.815   4.987 -0.0816  0.1600 -0.2088
 6780TIP3    H144535   6.437   2.763   5.047 -0.0498  1.5242  1.0602
 6780TIP3    H244536   6.577   2.774   4.990 -0.0582  0.2567  0.7518
 6781TIP3   OH244537   5.674   7.624   5.432 -0.3927 -0.1304 -0.6881
 6781TIP3    H144538   5.712   7.536   5.425  2.6680  1.0446 -0.2409
 6781TIP3    H244539   5.661   7.636   5.526  0.3979  0.3384 -0.6329
 6782TIP3   OH244540   4.473   3.636   4.818 -0.6128  0.0028  0.7089
 6782TIP3    H144541   4.521   3.699   4.765 -0.3816 -0.1226  0.7651
 6782TIP3    H244542   4.387   3.675   4.831 -0.0981  0.8397  1.7157
 6783TIP3   OH244543   5.262   5.471   5.745  0.0188  0.7495 -0.6159
 6783TIP3    H144544   5.205   5.403   5.709 -0.9231  0.4981  1.2280
 6783TIP3    H244545   5.345   5.459   5.699 -0.6089 -0.6180 -1.4678
 6784TIP3   OH244546   2.774   6.739   5.410  0.1604  0.2567  0.1828
 6784TIP3    H144547   2.730   6.727   5.326 -0.0715  1.4293  0.1210
 6784TIP3    H244548   2.788   6.650   5.443 -0.2329 -0.1963 -0.8395
 6785TIP3   OH244549   1.130   2.626   4.290 -0.0026 -0.5144  0.3447
 6785TIP3    H144550   1.211   2.602   4.335 -0.5887 -1.1756  1.0750
 6785TIP3    H244551   1.074   2.662   4.358  0.0121  0.8564 -0.3277
 6786TIP3   OH244552   1.242   0.367   4.654  0.2202  0.5735  0.2644
 6786TIP3    H144553   1.168   0.411   4.697 -0.5728  0.3847 -0.8631
 6786TIP3    H244554   1.248   0.283   4.698 -0.2343  0.5926  0.3707
 6787TIP3   OH244555   1.291   3.211   4.841  0.1594  0.1204  0.3458
 6787TIP3    H144556   1.386   3.206   4.848  0.1056 -0.3732  0.7582
 6787TIP3    H244557   1.259   3.130   4.881 -0.4515  0.5104  0.6678
 6788TIP3   OH244558   7.670   7.645   5.131 -0.6947  0.2690  0.3008
 6788TIP3    H144559   7.691   7.559   5.168 -2.0423  0.1668  0.8715
 6788TIP3    H244560   7.721   7.707   5.185 -0.0695 -0.1241  0.1720
 6789TIP3   OH244561   2.141   1.307   5.608 -0.3748  0.3419  0.0325
 6789TIP3    H144562   2.215   1.354   5.646  0.1124  0.2569 -0.7803
 6789TIP3    H244563   2.181   1.239   5.553 -0.9707  1.7731 -2.3111
 6790TIP3   OH244564   5.517   3.303   5.156  0.0969 -0.5984 -0.1320
 6790TIP3    H144565   5.459   3.318   5.081 -0.4986 -1.5194  0.1266
 6790TIP3    H244566   5.602   3.337   5.127 -0.7656  1.7701 -0.1245
 6791TIP3   OH244567   1.374   1.067   6.342 -0.7781 -0.6549  0.4504
 6791TIP3    H144568   1.303   1.044   6.282 -0.4475 -1.2757  0.2883
 6791TIP3    H244569   1.454   1.042   6.295 -0.2900  1.9119 -0.2743
 6792TIP3   OH244570   4.488   6.412   6.189 -0.0505 -0.3577  0.2647
 6792TIP3    H144571   4.555   6.377   6.247  0.0149 -0.1101  0.3425
 6792TIP3    H244572   4.479   6.347   6.119  0.1453 -0.4731  0.3468
 6793TIP3   OH244573   2.050   1.696   4.308  0.5645  0.6201  0.4570
 6793TIP3    H144574   1.971   1.648   4.334 -0.4482  0.7101 -2.1316
 6793TIP3    H244575   2.122   1.637   4.331 -0.4068 -0.4384  0.8828
 6794TIP3   OH244576   4.830   2.573   5.969 -0.1815  0.1720 -0.2725
 6794TIP3    H144577   4.876   2.509   5.915  1.2516  0.9813 -0.0394
 6794TIP3    H244578   4.899   2.624   6.011 -1.2889  1.6576 -0.1734
 6795TIP3   OH244579   1.009   6.405   4.264  0.2746 -0.6643  0.3049
 6795TIP3    H144580   1.017   6.318   4.304  0.6703 -0.7659  0.0061
 6795TIP3    H244581   1.055   6.464   4.324 -1.5266 -0.3481  1.4601
 6796TIP3   OH244582   3.633   0.420   5.259  0.3335 -0.2434  0.3934
 6796TIP3    H144583   3.575   0.379   5.324  0.5921 -2.5406 -0.7285
 6796TIP3    H244584   3.709   0.362   5.255  2.5894  2.4033  1.4291
 6797TIP3   OH244585   4.604   3.959   5.832 -0.2862 -0.3490 -0.0616
 6797TIP3    H144586   4.658   3.997   5.901  1.0111  0.4703 -1.4547
 6797TIP3    H244587   4.515   3.965   5.865  0.3705 -1.1612  2.0498
 6798TIP3   OH244588   4.858   2.697   5.685  0.5267  0.4347 -0.3360
 6798TIP3    H144589   4.826   2.614   5.649  0.1038  1.1565 -1.6902
 6798TIP3    H244590   4.915   2.671   5.758 -0.9252 -0.9768  0.3472
 6799TIP3   OH244591   5.296   1.220   4.253  0.5572 -0.1282 -0.0620
 6799TIP3    H144592   5.242   1.147   4.222  2.0998 -0.9673 -0.9058
 6799TIP3    H244593   5.334   1.257   4.173  1.1793  0.4534  0.4915
 6800TIP3   OH244594   1.677   3.871   5.342 -0.0911 -0.2585 -0.0243
 6800TIP3    H144595   1.598   3.858   5.290  0.4791 -0.8955 -0.7670
 6800TIP3    H244596   1.701   3.783   5.372 -0.9337  0.2017  2.1582
 6801TIP3   OH244597   7.603   5.824   6.684  0.3259  0.6546 -0.1010
 6801TIP3    H144598   7.667   5.812   6.614  0.3289 -0.3784  0.0632
 6801TIP3    H244599   7.656   5.842   6.762  0.3796  0.6796 -0.1433
 6802TIP3   OH244600   1.021   2.130   5.374  0.6283  0.2024 -0.1577
 6802TIP3    H144601   0.936   2.097   5.346  1.2038 -1.6522  0.1321
 6802TIP3    H244602   1.026   2.218   5.337 -0.9582 -0.0570 -1.0831
 6803TIP3   OH244603   5.284   6.594   5.068 -0.1017  0.3257  0.1634
 6803TIP3    H144604   5.215   6.591   5.001 -0.9917 -2.7973  1.0739
 6803TIP3    H244605   5.247   6.647   5.138 -0.2762  1.2849 -0.6294
 6804TIP3   OH244606   0.182   1.234   5.157  0.1947  0.3133 -0.0495
 6804TIP3    H144607   0.259   1.177   5.148  0.5938  0.1070  3.3323
 6804TIP3    H244608   0.117   1.180   5.202 -0.9437  1.3209 -0.4255
 6805TIP3   OH244609   7.022   0.862   6.005 -0.4011  0.5027 -0.3029
 6805TIP3    H144610   7.114   0.851   6.028 -0.0135 -0.0885 -1.9827
 6805TIP3    H244611   7.007   0.956   6.007 -0.7989  0.5055  3.5419
 6806TIP3   OH244612   3.335   6.552   3.908  0.0267  0.8390  0.5378
 6806TIP3    H144613   3.297   6.636   3.879 -1.7283  0.0660  0.4358
 6806TIP3    H244614   3.342   6.561   4.003 -2.3519  0.3452  0.8354
 6807TIP3   OH244615   6.370   0.778   4.594  0.4730  0.9160  0.1392
 6807TIP3    H144616   6.295   0.722   4.577  0.9967 -0.3158  1.6191
 6807TIP3    H244617   6.425   0.770   4.516  0.5271 -0.6482  0.3042
 6808TIP3   OH244618   0.757   0.958   6.485 -0.5733  0.1542  0.1162
 6808TIP3    H144619   0.804   1.008   6.418  0.2152  0.9952  1.2572
 6808TIP3    H244620   0.724   1.024   6.546 -1.2091 -0.5978  0.6075
 6809TIP3   OH244621   7.518   0.311   4.117  0.2171 -0.5264  0.1883
 6809TIP3    H144622   7.591   0.360   4.154  1.3685 -2.4242  0.5945
 6809TIP3    H244623   7.548   0.288   4.028 -0.9437  0.7492 -0.5714
 6810TIP3   OH244624   3.562   3.021   5.588 -0.5039 -0.0913  0.0074
 6810TIP3    H144625   3.635   3.042   5.529  0.3756  0.0467  1.1024
 6810TIP3    H244626   3.525   2.941   5.551  1.5561 -1.3922  0.5721
 6811TIP3   OH244627   2.756   5.686   4.086  0.3559 -0.0597 -0.3433
 6811TIP3    H144628   2.845   5.720   4.081  0.4437 -0.3441 -0.7331
 6811TIP3    H244629   2.759   5.604   4.037 -0.3177  0.3365 -1.0671
 6812TIP3   OH244630   7.380   6.617   3.778  0.4967  0.1066 -0.3845
 6812TIP3    H144631   7.292   6.610   3.814  1.7364 -1.1977  2.6953
 6812TIP3    H244632   7.394   6.533   3.733  0.6839 -0.3018  0.4282
 6813TIP3   OH244633   6.587   1.184   5.706 -0.2348 -0.2882  0.1022
 6813TIP3    H144634   6.544   1.101   5.728  0.1448 -0.3323  0.7033
 6813TIP3    H244635   6.672   1.179   5.749 -0.8079  1.0625  1.4667
 6814TIP3   OH244636   2.952   4.170   5.423  0.3596  0.0998  0.2264
 6814TIP3    H144637   3.045   4.152   5.416  0.1809 -0.8818  0.2501
 6814TIP3    H244638   2.910   4.097   5.378 -0.4257  0.0550  1.0042
 6815TIP3   OH244639   3.861   7.141   5.450 -0.2352 -0.1683 -0.4053
 6815TIP3    H144640   3.919   7.082   5.401  0.3234 -0.4296  0.5456
 6815TIP3    H244641   3.778   7.093   5.456 -0.2364 -0.2337 -0.8832
 6816TIP3   OH244642   2.732   2.427   4.824  1.0778 -0.0285 -0.2695
 6816TIP3    H144643   2.678   2.398   4.897  1.6728 -0.4499  0.0071
 6816TIP3    H244644   2.705   2.373   4.750  0.4584  0.4157 -0.3776
 6817TIP3   OH244645   2.138   1.871   6.496 -0.2335 -0.1230 -0.1229
 6817TIP3    H144646   2.145   1.783   6.460 -0.4301 -0.1697 -0.0499
 6817TIP3    H244647   2.219   1.915   6.468 -0.3427 -0.1833 -0.5510
 6818TIP3   OH244648   2.754   2.778   5.298  0.1483 -0.3501 -0.5321
 6818TIP3    H144649   2.753   2.712   5.229  1.1037 -1.8780  0.8452
 6818TIP3    H244650   2.695   2.743   5.365  0.0843  0.5656 -0.0982
 6819TIP3   OH244651   5.541   5.901   5.970 -0.0935  0.1145 -1.0232
 6819TIP3    H144652   5.511   5.965   6.035  1.1468  0.7681 -1.0692
 6819TIP3    H244653   5.461   5.860   5.939 -0.7918  0.5069  0.1876
 6820TIP3   OH244654   0.629   5.907   5.700 -0.0468 -0.5829 -0.3126
 6820TIP3    H144655   0.627   5.882   5.608  0.1279 -0.1437 -0.4378
 6820TIP3    H244656   0.592   5.995   5.702  1.8354  0.2602 -0.2550
 6821TIP3   OH244657   6.938   1.283   4.832 -0.2630  0.1136  0.5231
 6821TIP3    H144658   6.890   1.215   4.785  1.9154 -0.0459 -1.6809
 6821TIP3    H244659   6.894   1.364   4.809 -1.7601 -0.3060  1.7016
 6822TIP3   OH244660   4.326   3.968   5.557  0.6222 -0.0011  0.4914
 6822TIP3    H144661   4.380   3.958   5.479 -0.4321 -1.2918 -0.1187
 6822TIP3    H244662   4.274   4.047   5.539 -1.2117 -1.4809 -1.1892
 6823TIP3   OH244663   6.041   7.238   3.798 -0.4063 -0.0128 -0.3765
 6823TIP3    H144664   6.126   7.231   3.755 -0.8983  0.9921 -1.5929
 6823TIP3    H244665   5.992   7.163   3.765  0.4412 -1.4910  1.5117
 6824TIP3   OH244666   6.653   6.167  11.875  0.0617  0.4774 -0.6371
 6824TIP3    H144667   6.610   6.083  11.858  1.7256 -0.8467  1.2903
 6824TIP3    H244668   6.605   6.204  11.949  1.6873 -0.6619  1.0455
 6825TIP3   OH244669   7.469   2.217   5.095  0.2479 -0.1421  0.4337
 6825TIP3    H144670   7.491   2.196   5.004 -0.6480  0.0635  0.1607
 6825TIP3    H244671   7.454   2.312   5.095  1.2554  0.0355  1.0210
 6826TIP3   OH244672   0.206   3.008   5.430  0.0639 -0.6323  0.3738
 6826TIP3    H144673   0.255   3.090   5.429  0.8060 -1.0610 -1.4001
 6826TIP3    H244674   0.123   3.029   5.388  0.7731 -1.0605 -1.2960
 6827TIP3   OH244675   6.627   2.393   5.014  0.6688  0.2961  0.3717
 6827TIP3    H144676   6.608   2.482   4.984  0.9058  0.4565  0.6887
 6827TIP3    H244677   6.667   2.405   5.100 -1.1059 -0.2135  1.3175
 6828TIP3   OH244678   2.946   3.607   3.702  0.0105  0.2218 -0.5494
 6828TIP3    H144679   2.875   3.668   3.683  1.8584  1.8871 -2.6133
 6828TIP3    H244680   3.019   3.662   3.728  1.6073 -1.0730 -1.9988
 6829TIP3   OH244681   0.989   6.704   5.433 -0.2041 -0.7324 -0.4709
 6829TIP3    H144682   0.944   6.712   5.517 -0.3752 -0.0683 -0.6239
 6829TIP3    H244683   1.080   6.686   5.457  0.0078  0.7101 -0.1177
 6830TIP3   OH244684   2.407   6.145   5.571 -0.0460  0.4267  0.2448
 6830TIP3    H144685   2.358   6.223   5.596 -0.2472  0.8499 -1.3871
 6830TIP3    H244686   2.478   6.140   5.635 -1.0038  0.9471  1.4074
 6831TIP3   OH244687   4.243   1.675   4.011 -0.3277  0.5832  0.0277
 6831TIP3    H144688   4.251   1.756   4.062  0.4568  1.7978 -1.9308
 6831TIP3    H244689   4.163   1.686   3.960  0.3726  0.6629 -1.0963
 6832TIP3   OH244690   6.843   7.376   5.959 -0.1496  0.1380 -0.5969
 6832TIP3    H144691   6.836   7.359   5.865 -1.7030  0.4184 -0.5551
 6832TIP3    H244692   6.826   7.470   5.968 -0.5921  0.0085  0.0117
 6833TIP3   OH244693   2.197   3.015   3.831 -0.0694  0.4210 -1.0234
 6833TIP3    H144694   2.102   3.026   3.831 -0.1976 -0.6021 -0.6074
 6833TIP3    H244695   2.220   3.001   3.739 -0.5189 -0.7856 -0.9716
 6834TIP3   OH244696   0.283   4.817   4.028  0.0856  0.6521  0.5659
 6834TIP3    H144697   0.361   4.782   3.985 -1.1706 -0.9374 -0.5341
 6834TIP3    H244698   0.291   4.791   4.119 -0.2782 -1.6668 -0.0106
 6835TIP3   OH244699   6.106   6.109   5.593  0.3258  1.0431  0.1751
 6835TIP3    H144700   6.012   6.121   5.580  0.5635  1.0396 -1.9115
 6835TIP3    H244701   6.115   6.015   5.613  0.0621  0.4233 -2.2922
 6836TIP3   OH244702   0.990   2.480   4.133 -0.0043 -0.4663  0.0178
 6836TIP3    H144703   1.052   2.440   4.072 -0.1031  1.1561 -1.2441
 6836TIP3    H244704   1.040   2.547   4.178 -0.3797 -0.4213  0.3739
 6837TIP3   OH244705   5.386   7.403   5.513  0.2715  0.3567  0.3371
 6837TIP3    H144706   5.444   7.384   5.587  0.7687  2.1134  0.4563
 6837TIP3    H244707   5.351   7.490   5.532 -2.0021 -0.4245 -0.0186
 6838TIP3   OH244708   3.021   0.250   5.139 -0.1442 -0.0384 -0.2798
 6838TIP3    H144709   2.967   0.311   5.090 -0.2572  1.1736  1.2692
 6838TIP3    H244710   3.046   0.298   5.218 -1.0130 -2.3219  1.4785
 6839TIP3   OH244711   6.950   6.497   3.632 -0.1185 -0.7769  0.8701
 6839TIP3    H144712   7.028   6.503   3.577 -0.8800  1.6427 -0.0840
 6839TIP3    H244713   6.959   6.413   3.678  2.9300 -0.6446  0.7081
 6840TIP3   OH244714   3.165   3.162   4.174  0.0955 -0.5934  0.5590
 6840TIP3    H144715   3.092   3.165   4.236 -0.4586 -0.3229 -0.0935
 6840TIP3    H244716   3.134   3.213   4.099  1.1231 -0.1108  0.4523
 6841TIP3   OH244717   2.017   0.584   5.180  0.4102  0.1579 -0.1128
 6841TIP3    H144718   2.062   0.667   5.161  0.1298  0.4904  0.6240
 6841TIP3    H244719   1.956   0.606   5.251 -0.6262 -0.3779 -0.8211
 6842TIP3   OH244720   4.852   5.787   4.482 -0.5499  0.6841 -0.1034
 6842TIP3    H144721   4.825   5.879   4.486 -0.7894  0.6734 -1.2917
 6842TIP3    H244722   4.773   5.739   4.458 -0.9972 -0.1561  2.6725
 6843TIP3   OH244723   5.992   4.727   4.850  0.1822 -0.8522 -0.2141
 6843TIP3    H144724   5.963   4.781   4.923  0.9080 -0.6173 -0.0846
 6843TIP3    H244725   6.078   4.694   4.877  0.5064 -0.6835 -0.9953
 6844TIP3   OH244726   3.298   0.652   5.345 -0.0549 -0.3425  0.1268
 6844TIP3    H144727   3.386   0.682   5.322  0.7370 -0.2349  2.9693
 6844TIP3    H244728   3.295   0.562   5.314  1.1252 -0.4209  0.1896
 6845TIP3   OH244729   2.071   4.652   6.124  0.5388 -0.8846  0.4852
 6845TIP3    H144730   2.071   4.578   6.062 -1.2548 -1.3307  0.9818
 6845TIP3    H244731   2.135   4.627   6.190 -0.2026 -2.1158  0.7652
 6846TIP3   OH244732   3.938   4.552   4.679 -0.3147 -0.5235  0.0340
 6846TIP3    H144733   3.885   4.629   4.660  0.3029 -0.0756  0.0805
 6846TIP3    H244734   3.974   4.526   4.594  1.8411  1.0304  0.3700
 6847TIP3   OH244735   4.966   1.282   5.085  0.3917 -0.9521  0.9106
 6847TIP3    H144736   4.994   1.229   5.160 -0.4925 -0.2893  1.7446
 6847TIP3    H244737   5.029   1.261   5.016  2.0481 -0.6139  2.2315
 6848TIP3   OH244738   6.376   0.467   4.473  0.2460 -0.3531  0.5544
 6848TIP3    H144739   6.436   0.478   4.546  0.6529 -1.5671  0.4193
 6848TIP3    H244740   6.433   0.441   4.399 -0.1200  1.0584 -0.2653
 6849TIP3   OH244741   2.504   3.338   5.867 -0.2725  0.2538  0.2470
 6849TIP3    H144742   2.596   3.354   5.848 -0.1800 -1.0195 -0.4071
 6849TIP3    H244743   2.503   3.314   5.960 -0.2263  2.3002  0.8283
 6850TIP3   OH244744   7.244   4.710   4.813 -0.0498  0.3906 -0.0982
 6850TIP3    H144745   7.163   4.719   4.763 -0.3124  1.8729  0.5453
 6850TIP3    H244746   7.284   4.630   4.779 -1.4941 -0.0627 -0.8210
 6851TIP3   OH244747   4.135   3.268   4.288 -0.2292  0.4837  0.5211
 6851TIP3    H144748   4.099   3.248   4.202 -0.9268 -0.4733  1.0122
 6851TIP3    H244749   4.121   3.362   4.299  0.0740  0.6602 -0.4863
 6852TIP3   OH244750   6.668   3.438   4.152 -0.1679 -0.1742  0.3731
 6852TIP3    H144751   6.735   3.371   4.162 -0.1555 -0.3357 -0.6338
 6852TIP3    H244752   6.591   3.391   4.121 -0.1155  0.2771 -0.4932
 6853TIP3   OH244753   6.382   4.220   4.639 -0.0600  0.1378  0.6371
 6853TIP3    H144754   6.297   4.177   4.626  0.6817 -1.1588 -0.1544
 6853TIP3    H244755   6.416   4.182   4.719  0.5616 -0.7345 -0.0207
 6854TIP3   OH244756   1.708   2.952   5.002 -0.4514  0.7073  0.5507
 6854TIP3    H144757   1.656   2.881   5.040  1.0616 -0.7653  0.0098
 6854TIP3    H244758   1.715   2.929   4.909  0.8726  1.0343  0.5489
 6855TIP3   OH244759   0.258   3.820   5.578  0.0495 -0.5002 -0.0885
 6855TIP3    H144760   0.286   3.896   5.526 -0.0618  0.1335  0.7586
 6855TIP3    H244761   0.294   3.836   5.665 -2.2390 -0.0540  0.8508
 6856TIP3   OH244762   2.747   3.375   5.816  0.2348 -0.2633 -0.4236
 6856TIP3    H144763   2.773   3.396   5.906 -0.5807 -0.5036 -0.1256
 6856TIP3    H244764   2.829   3.352   5.773  0.5272 -0.9855  0.4817
 6857TIP3   OH244765   2.211   3.497   4.751 -0.4849 -0.0432 -0.0961
 6857TIP3    H144766   2.242   3.490   4.661  0.8175 -0.3113  0.3554
 6857TIP3    H244767   2.117   3.510   4.743 -0.8010 -2.5759 -1.4401
 6858TIP3   OH244768   1.134   4.557   4.434  0.1831  0.1839 -0.0611
 6858TIP3    H144769   1.226   4.556   4.407  0.1312  1.0321 -0.2915
 6858TIP3    H244770   1.133   4.511   4.518  0.8009  0.0813 -0.1053
 6859TIP3   OH244771   2.872   4.744   4.840 -0.2254 -0.4693  0.3415
 6859TIP3    H144772   2.805   4.702   4.786  0.5338 -0.3526 -0.7265
 6859TIP3    H244773   2.954   4.701   4.814  0.3636  0.6670  0.2727
 6860TIP3   OH244774   2.907   3.542   5.465  0.1990 -0.6360  0.4431
 6860TIP3    H144775   2.916   3.525   5.372 -1.6327  0.2652  0.0513
 6860TIP3    H244776   2.986   3.590   5.489  0.6243 -0.7532 -0.6754
 6861TIP3   OH244777   3.960   3.608   5.084  0.6647  0.0622  0.0898
 6861TIP3    H144778   4.014   3.598   5.162  0.4160 -1.4561  0.0955
 6861TIP3    H244779   3.982   3.695   5.051  0.1717  1.1058  2.2898
 6862TIP3   OH244780   3.932   6.952   6.121 -0.2823  0.4283 -0.0570
 6862TIP3    H144781   3.939   6.993   6.207 -3.3745  1.2439 -0.0516
 6862TIP3    H244782   4.000   6.995   6.068  0.2820  1.4436  1.4317
 6863TIP3   OH244783   7.088   3.445   5.574  0.2558  0.1379  0.1132
 6863TIP3    H144784   7.155   3.386   5.541 -0.1991 -0.6502  0.5672
 6863TIP3    H244785   7.110   3.456   5.667  1.5690  2.3894 -0.3862
 6864TIP3   OH244786   1.254   5.903   5.314 -0.0390  0.6541 -0.4827
 6864TIP3    H144787   1.205   5.863   5.241  0.3570 -1.3251  0.2647
 6864TIP3    H244788   1.340   5.861   5.311 -0.5068 -0.6473  1.9952
 6865TIP3   OH244789   5.161   4.359   5.745  0.3344 -0.4624 -0.0569
 6865TIP3    H144790   5.210   4.436   5.773 -2.5511  1.6357 -0.3567
 6865TIP3    H244791   5.125   4.383   5.660 -2.4194 -1.1774  0.7873
 6866TIP3   OH244792   1.732   1.178   4.039 -0.3284 -0.4189  0.1671
 6866TIP3    H144793   1.772   1.265   4.040 -0.3791 -0.3976  0.3036
 6866TIP3    H244794   1.802   1.120   4.009 -0.8083 -0.0768 -1.7893
 6867TIP3   OH244795   4.661   2.796   4.444 -0.1873 -0.2252  0.6043
 6867TIP3    H144796   4.611   2.720   4.474 -1.5243  0.4761  0.2384
 6867TIP3    H244797   4.633   2.808   4.353  2.4390 -1.2248 -0.4530
 6868TIP3   OH244798   2.634   0.489   4.775 -0.1167 -0.2888 -0.2136
 6868TIP3    H144799   2.597   0.504   4.689 -0.0553 -0.1124 -0.2080
 6868TIP3    H244800   2.653   0.576   4.810 -0.4045 -0.3480  0.0939
 6869TIP3   OH244801   3.185   2.055   4.776 -0.7735  0.2028 -0.1545
 6869TIP3    H144802   3.091   2.057   4.789 -0.8858 -0.8794 -0.6782
 6869TIP3    H244803   3.198   2.074   4.683 -0.5770 -0.8686 -0.3643
 6870TIP3   OH244804   0.313   1.563   5.224  0.1321 -0.6325 -0.6749
 6870TIP3    H144805   0.276   1.524   5.145 -1.1767  0.6236 -0.7310
 6870TIP3    H244806   0.397   1.598   5.196  0.8689 -2.4619 -0.8567
 6871TIP3   OH244807   0.845   5.934   5.428 -0.1270 -0.6023 -0.2671
 6871TIP3    H144808   0.918   5.873   5.434 -0.6046 -1.0520  1.3512
 6871TIP3    H244809   0.879   6.015   5.466 -1.5451 -1.9355  4.5126
 6872TIP3   OH244810   4.134   2.060   6.650  0.2307  0.0635 -0.1343
 6872TIP3    H144811   4.058   2.049   6.593  0.4418 -2.2991 -0.0652
 6872TIP3    H244812   4.194   2.115   6.600 -0.5674  0.0051 -1.1934
 6873TIP3   OH244813   2.345   0.755   4.446  0.6648  0.5505  0.2314
 6873TIP3    H144814   2.420   0.695   4.440 -0.2426 -0.6363  0.5377
 6873TIP3    H244815   2.292   0.733   4.369  0.7070  1.5127 -0.0800
 6874TIP3   OH244816   1.959   5.281   4.446  0.0995 -0.4588 -0.3877
 6874TIP3    H144817   1.888   5.340   4.419  1.0254  0.0208 -1.9187
 6874TIP3    H244818   1.929   5.194   4.420 -1.6251 -0.8945  2.5928
 6875TIP3   OH244819   4.558   7.320   6.128 -0.0073  0.1696  0.3855
 6875TIP3    H144820   4.553   7.297   6.221  2.2954  1.1732  0.8228
 6875TIP3    H244821   4.586   7.412   6.128  1.2556 -0.1940 -1.2996
 6876TIP3   OH244822   7.392   4.922   4.717 -0.5875  0.1579 -0.4851
 6876TIP3    H144823   7.389   4.974   4.797  1.7758  0.5056 -0.5239
 6876TIP3    H244824   7.406   4.832   4.748 -1.7509 -0.0391 -0.4892
 6877TIP3   OH244825   7.277   2.821   4.971  0.2339 -0.1477  0.3001
 6877TIP3    H144826   7.203   2.808   4.912  1.3551  0.8968 -1.4017
 6877TIP3    H244827   7.354   2.793   4.920  1.0226 -1.4376  2.0974
 6878TIP3   OH244828   1.927   7.556   4.801 -0.2034  0.1992  0.1751
 6878TIP3    H144829   1.851   7.498   4.798 -0.5290  0.5935  0.7929
 6878TIP3    H244830   1.906   7.620   4.869  0.2986  0.8429 -0.2691
 6879TIP3   OH244831   0.144   1.070   4.206 -0.1161  0.0599  0.6441
 6879TIP3    H144832   0.091   0.992   4.187 -0.3517  0.2355  0.5817
 6879TIP3    H244833   0.081   1.135   4.238  0.2162 -0.1268  1.7499
 6880TIP3   OH244834   2.004   4.155   4.726 -0.7150 -0.1832  0.2831
 6880TIP3    H144835   1.951   4.207   4.787  0.6831  0.2272  1.1860
 6880TIP3    H244836   2.082   4.131   4.776 -0.7103 -2.0553 -0.5403
 6881TIP3   OH244837   2.091   2.391   6.239 -0.1164 -0.1026  0.7283
 6881TIP3    H144838   2.073   2.298   6.254 -1.4111  0.2663  1.5538
 6881TIP3    H244839   2.066   2.405   6.147 -0.6375 -0.3985  0.8233
 6882TIP3   OH244840   0.253   3.538   5.459 -0.1171  0.4276  0.9462
 6882TIP3    H144841   0.348   3.537   5.471 -0.2970  0.9619  2.8910
 6882TIP3    H244842   0.237   3.611   5.399  0.7132  0.1266  0.3445
 6883TIP3   OH244843   5.435   0.594   5.704 -0.1056  0.2512 -0.0419
 6883TIP3    H144844   5.529   0.578   5.709 -0.2015 -0.6008 -0.7026
 6883TIP3    H244845   5.395   0.508   5.715 -0.7705  0.4524 -0.7571
 6884TIP3   OH244846   6.610   6.039   3.873 -0.6678 -0.1039 -0.2410
 6884TIP3    H144847   6.534   5.983   3.887 -0.6312  0.0710  0.7179
 6884TIP3    H244848   6.680   5.998   3.923 -0.4224  0.3430 -0.2155
 6885TIP3   OH244849   6.577   4.156   6.345 -0.0955  0.4212  0.2741
 6885TIP3    H144850   6.643   4.149   6.276 -0.5495  0.7823 -0.2040
 6885TIP3    H244851   6.564   4.066   6.375  0.3859  0.3100  0.1583
 6886TIP3   OH244852   4.470   3.584   4.309 -0.1884  0.0587 -0.0578
 6886TIP3    H144853   4.499   3.523   4.242  1.4561  0.8509 -0.1224
 6886TIP3    H244854   4.520   3.561   4.387 -0.6201  0.4060  0.3319
 6887TIP3   OH244855   4.792   2.735   5.198 -0.1157  0.0740 -0.3905
 6887TIP3    H144856   4.824   2.806   5.254 -1.1726  0.0977  0.2151
 6887TIP3    H244857   4.871   2.698   5.159  0.5484  0.8326  0.1930
 6888TIP3   OH244858   2.103   1.405   4.877  0.8678 -0.5329 -0.0883
 6888TIP3    H144859   2.035   1.425   4.942  0.9049 -0.4655 -0.0696
 6888TIP3    H244860   2.158   1.338   4.919 -0.0114 -1.6316 -0.6588
 6889TIP3   OH244861   6.063   6.936   6.668 -0.6760  0.0338 -0.5347
 6889TIP3    H144862   6.067   6.972   6.579 -2.4984  0.1732 -0.6038
 6889TIP3    H244863   6.096   7.006   6.724 -0.1473  0.1931 -1.0320
 6890TIP3   OH244864   3.011   0.766   5.841 -0.1705  0.4844  0.1663
 6890TIP3    H144865   3.087   0.782   5.786 -0.6365 -0.5565 -0.8091
 6890TIP3    H244866   2.957   0.845   5.830 -0.8450 -0.1871 -1.9045
 6891TIP3   OH244867   0.780   6.409   4.534  0.3213 -0.2417 -0.3050
 6891TIP3    H144868   0.804   6.380   4.446  1.5472 -0.2153 -0.0034
 6891TIP3    H244869   0.716   6.344   4.564 -1.1762  0.5120 -1.7049
 6892TIP3   OH244870   5.796   4.351   5.116 -0.2864  0.3948 -0.3713
 6892TIP3    H144871   5.741   4.419   5.077  0.3833  1.0014 -0.3006
 6892TIP3    H244872   5.831   4.392   5.196 -0.2145 -0.1895 -0.0992
 6893TIP3   OH244873   1.255   4.367   5.107  0.2236  0.1471 -0.0004
 6893TIP3    H144874   1.245   4.441   5.167  0.7963  0.1125  0.1491
 6893TIP3    H244875   1.261   4.291   5.164  1.2946  0.1689 -0.0604
 6894TIP3   OH244876   5.648   5.479   5.405  0.3780  0.1269 -0.3894
 6894TIP3    H144877   5.737   5.503   5.431  0.1150  0.3591  0.3103
 6894TIP3    H244878   5.619   5.549   5.347 -0.4565  1.6776  1.7849
 6895TIP3   OH244879   6.366   3.830   4.115 -0.1961  0.3175 -0.2378
 6895TIP3    H144880   6.283   3.848   4.071  0.1690  2.0085 -0.2882
 6895TIP3    H244881   6.343   3.765   4.182 -1.7738  1.4643  0.3957
 6896TIP3   OH244882   7.162   5.894   4.460  0.2007 -0.3959 -0.0724
 6896TIP3    H144883   7.237   5.842   4.430  0.0099  0.3240 -1.9859
 6896TIP3    H244884   7.086   5.837   4.446  0.2001 -0.3994 -0.0543
 6897TIP3   OH244885   6.877   2.510   6.502  0.4251  0.5515  0.2737
 6897TIP3    H144886   6.912   2.472   6.582 -0.9599  0.7143  0.9801
 6897TIP3    H244887   6.931   2.588   6.486  0.6951  0.5281  1.0486
 6898TIP3   OH244888   2.947   3.461   6.064  0.0339  0.3314  0.2177
 6898TIP3    H144889   2.890   3.511   6.122 -0.8005 -1.0800  0.6749
 6898TIP3    H244890   2.967   3.381   6.114  1.4296  0.2623 -0.4184
 6899TIP3   OH244891   2.407   1.386   5.546  0.1879 -0.0046  0.0106
 6899TIP3    H144892   2.491   1.420   5.515 -0.7883  1.8738 -0.7486
 6899TIP3    H244893   2.393   1.306   5.496  0.7960  0.5186 -1.0226
 6900TIP3   OH244894   6.854   5.430   5.490  0.2084 -0.4718 -0.5164
 6900TIP3    H144895   6.888   5.501   5.544 -1.4551 -0.2806  0.3264
 6900TIP3    H244896   6.804   5.474   5.421  1.1520 -0.7665 -1.4159
 6901TIP3   OH244897   3.377   1.388   5.798 -0.2174  0.0395 -0.5937
 6901TIP3    H144898   3.409   1.472   5.833  2.4070 -1.3002  0.4546
 6901TIP3    H244899   3.364   1.405   5.704  2.9897  0.9699 -0.9914
 6902TIP3   OH244900   0.525   1.306   5.067  0.0525 -0.2792  0.4878
 6902TIP3    H144901   0.441   1.268   5.038  0.4510 -1.0932  0.3654
 6902TIP3    H244902   0.572   1.323   4.985 -0.2048  0.7170  0.5297
 6903TIP3   OH244903   3.883   1.494   5.698  0.3478  0.0080 -0.0186
 6903TIP3    H144904   3.788   1.501   5.692  0.2322 -1.9799 -2.6322
 6903TIP3    H244905   3.915   1.584   5.697 -1.4596  0.6927  0.3878
 6904TIP3   OH244906   4.666   4.577   3.855  0.0531 -0.2489  0.7843
 6904TIP3    H144907   4.593   4.637   3.869  0.7366  0.4921  1.2642
 6904TIP3    H244908   4.625   4.490   3.854 -0.9041  0.1883  0.4161
 6905TIP3   OH244909   6.418   7.468   5.654 -0.7482 -0.4276  0.2943
 6905TIP3    H144910   6.383   7.553   5.679 -0.2445 -0.4881  1.2322
 6905TIP3    H244911   6.491   7.488   5.596 -0.1564 -0.1890  1.1084
 6906TIP3   OH244912   3.957   3.399   5.876  0.5141 -0.0464  0.4001
 6906TIP3    H144913   4.009   3.428   5.801  0.3450  1.2091  0.7322
 6906TIP3    H244914   4.018   3.399   5.949  0.1258  1.2418  0.7524
 6907TIP3   OH244915   5.450   4.994   6.011 -0.2166 -0.1766 -0.5619
 6907TIP3    H144916   5.472   4.946   5.931 -2.1668 -0.4914 -0.9591
 6907TIP3    H244917   5.479   5.083   5.994  2.1256 -0.8327 -0.3934
 6908TIP3   OH244918   3.464   0.541   5.680 -0.1533  0.4958  0.1954
 6908TIP3    H144919   3.444   0.512   5.769 -1.5723  1.9522  0.3936
 6908TIP3    H244920   3.542   0.596   5.690 -0.0036  0.2355  0.4693
 6909TIP3   OH244921   6.186   0.854   5.428 -0.3221  0.3932  0.0334
 6909TIP3    H144922   6.281   0.864   5.423 -0.4900  2.0455 -0.4154
 6909TIP3    H244923   6.163   0.890   5.513 -0.6611  1.1207 -0.3600
 6910TIP3   OH244924   6.635   5.739   5.803  0.3891  0.7051 -0.1992
 6910TIP3    H144925   6.650   5.751   5.709 -0.9128 -1.1795 -0.7111
 6910TIP3    H244926   6.592   5.654   5.810  2.0299 -0.0322  2.2984
 6911TIP3   OH244927   2.266   6.663   4.500 -0.3769  0.1499 -0.2129
 6911TIP3    H144928   2.296   6.722   4.431  0.1804 -1.6536 -1.6023
 6911TIP3    H244929   2.341   6.653   4.558 -0.3837  0.5871 -0.1292
 6912TIP3   OH244930   3.234   2.856   3.824 -0.0503 -0.0687 -0.2540
 6912TIP3    H144931   3.184   2.932   3.855  3.3100  2.0465  0.4942
 6912TIP3    H244932   3.325   2.877   3.845  1.2558 -3.5733 -1.6621
 6913TIP3   OH244933   0.139   0.358   5.665  0.0737  0.4221  0.2065
 6913TIP3    H144934   0.163   0.282   5.718  1.2696  2.3142  2.5768
 6913TIP3    H244935   0.111   0.424   5.729 -0.9620  1.9922 -1.7441
 6914TIP3   OH244936   1.113   3.597   4.615  0.1897 -0.2239  0.0471
 6914TIP3    H144937   1.026   3.624   4.645 -0.1187 -0.3560 -0.6919
 6914TIP3    H244938   1.127   3.512   4.656  0.4335  0.2756  1.0241
 6915TIP3   OH244939   7.306   4.856   4.247  0.2966  0.2830 -0.3080
 6915TIP3    H144940   7.386   4.903   4.272  0.5943 -0.6520  0.5159
 6915TIP3    H244941   7.249   4.863   4.323  0.5907 -1.2216  0.0762
 6916TIP3   OH244942   0.001   6.073   4.858 -0.4978  0.2199 -0.0451
 6916TIP3    H144943   0.063   6.000   4.866 -0.1331  0.5703  0.3466
 6916TIP3    H244944  -0.060   6.045   4.789  0.2463 -0.0237 -0.6174
 6917TIP3   OH244945   6.697   6.796   4.204  0.0087 -0.1634  0.2038
 6917TIP3    H144946   6.677   6.825   4.293 -1.2666  4.0888 -1.2473
 6917TIP3    H244947   6.656   6.861   4.148  3.5556 -0.7391 -3.4774
 6918TIP3   OH244948   6.338   3.193   3.689 -0.2358  0.0174 -0.2070
 6918TIP3    H144949   6.363   3.142   3.612  0.7596  0.6808 -0.3453
 6918TIP3    H244950   6.326   3.127   3.758 -0.0662 -0.4897 -0.6525
 6919TIP3   OH244951   3.263   4.284   4.246  0.1283 -0.5293  0.1353
 6919TIP3    H144952   3.283   4.361   4.192 -1.0307 -0.3852 -0.1013
 6919TIP3    H244953   3.217   4.225   4.188 -2.3189  0.1706  1.2504
 6920TIP3   OH244954   2.837   3.973   4.084 -0.7087  0.7556 -0.0021
 6920TIP3    H144955   2.782   4.007   4.015 -1.9122  0.8662  0.9847
 6920TIP3    H244956   2.866   3.887   4.052 -0.6110  1.1409 -0.9565
 6921TIP3   OH244957   1.307   4.696   3.972  0.1115 -0.0205  0.8396
 6921TIP3    H144958   1.276   4.766   3.914  1.7517 -0.4595 -0.6631
 6921TIP3    H244959   1.235   4.633   3.974 -0.7255  0.9160  0.8482
 6922TIP3   OH244960   2.990   0.739   4.985 -0.1770  0.3269  0.3556
 6922TIP3    H144961   2.924   0.795   5.026 -0.6459 -0.4389  0.6867
 6922TIP3    H244962   3.065   0.743   5.045 -0.4035  0.1913  0.6541
 6923TIP3   OH244963   7.579   1.958   4.239 -0.2133  0.3237  0.1811
 6923TIP3    H144964   7.577   2.007   4.321  2.1262 -0.2952  0.7008
 6923TIP3    H244965   7.582   1.866   4.267 -1.0055  0.0260 -0.6742
 6924TIP3   OH244966   0.845   3.694   5.957  0.2253  0.0395  0.3920
 6924TIP3    H144967   0.837   3.718   6.050 -0.1037  0.8733  0.1602
 6924TIP3    H244968   0.830   3.599   5.956  2.7925 -0.4511  1.5028
 6925TIP3   OH244969   1.779   2.194   4.842 -0.0378  0.0803  0.1689
 6925TIP3    H144970   1.837   2.247   4.897 -1.3558 -2.2539  4.2175
 6925TIP3    H244971   1.702   2.250   4.827  0.9472  1.2697 -0.7011
 6926TIP3   OH244972   2.589   0.666   3.885  0.1297  0.0996  0.5960
 6926TIP3    H144973   2.629   0.739   3.932  0.8257  0.6003 -0.7168
 6926TIP3    H244974   2.515   0.705   3.839  0.6250  0.0403 -0.2722
 6927TIP3   OH244975   7.606   1.450   4.116 -0.2210 -0.5400  0.2938
 6927TIP3    H144976   7.626   1.541   4.138 -0.8308 -0.5118  0.7501
 6927TIP3    H244977   7.518   1.454   4.077  1.0771 -0.4603 -3.0122
 6928TIP3   OH244978   1.415   3.667   5.134  0.3463  0.2765 -0.0672
 6928TIP3    H144979   1.488   3.690   5.077 -0.6692  0.1927 -1.4553
 6928TIP3    H244980   1.405   3.572   5.122  0.1599  0.2472  0.3023
 6929TIP3   OH244981   0.421   3.568   3.826  0.3572  0.2746  0.1479
 6929TIP3    H144982   0.479   3.513   3.773 -0.6516  1.8838 -2.8585
 6929TIP3    H244983   0.363   3.506   3.870  1.3583 -1.1890 -0.5139
 6930TIP3   OH244984   2.947   4.351   4.614 -0.1618 -0.2420 -0.1500
 6930TIP3    H144985   3.019   4.317   4.560  2.4945  0.3351  2.7107
 6930TIP3    H244986   2.956   4.303   4.697 -3.1862 -0.1575  0.3223
 6931TIP3   OH244987   5.353   2.583   6.003 -0.2092  0.0659  0.3521
 6931TIP3    H144988   5.351   2.670   5.964  1.6363  0.0258  0.0935
 6931TIP3    H244989   5.442   2.574   6.038 -1.6313  0.0910  4.6141
 6932TIP3   OH244990   2.989   4.242   6.272  0.7073 -0.1269  0.1261
 6932TIP3    H144991   2.909   4.197   6.300 -2.0296  2.3494 -3.0034
 6932TIP3    H244992   3.011   4.299   6.346  0.7531 -2.1471  1.7628
 6933TIP3   OH244993   2.834   0.447   5.015  0.0922  0.3255  0.1586
 6933TIP3    H144994   2.817   0.435   4.921  0.6503  2.3538 -0.2602
 6933TIP3    H244995   2.801   0.535   5.034 -0.7107 -0.3522  2.0703
 6934TIP3   OH244996   5.645   3.937   4.207  0.4755 -0.1926 -0.3716
 6934TIP3    H144997   5.639   3.883   4.128  1.0896  0.4318 -0.8559
 6934TIP3    H244998   5.702   4.010   4.182 -1.2322  1.2928 -0.0636
 6935TIP3   OH244999   3.633   7.029   5.525 -0.2186 -0.7545 -0.1099
 6935TIP3    H145000   3.590   7.010   5.441  0.5040 -0.4896 -0.5451
 6935TIP3    H245001   3.621   6.948   5.576 -0.8387 -0.8446 -0.3842
 6936TIP3   OH245002   7.536   0.216   4.686 -0.1405  0.0925  0.0284
 6936TIP3    H145003   7.589   0.246   4.760 -0.5381  0.1992  0.2750
 6936TIP3    H245004   7.450   0.258   4.700 -0.1272  0.3500 -0.6506
 6937TIP3   OH245005   2.818   7.584   5.484 -0.1815  0.7370  1.1484
 6937TIP3    H145006   2.839   7.644   5.412 -1.5046 -1.0798 -0.8735
 6937TIP3    H245007   2.754   7.632   5.536 -1.2621  1.1374 -0.4526
 6938TIP3   OH245008   4.770   6.059   6.176  0.4110  0.1221 -0.5182
 6938TIP3    H145009   4.838   6.057   6.108  0.2084  0.6687 -0.7420
 6938TIP3    H245010   4.806   6.113   6.245  0.4371 -0.0660 -0.3850
 6939TIP3   OH245011   6.477   1.084   4.411  0.7459 -0.1692  0.2814
 6939TIP3    H145012   6.440   1.099   4.498 -2.1918 -0.0131 -0.8920
 6939TIP3    H245013   6.517   0.997   4.416 -0.3783 -0.6448  1.4947
 6940TIP3   OH245014   2.755   1.663   6.298 -0.2426 -0.0873  0.3344
 6940TIP3    H145015   2.776   1.755   6.313  1.0071 -0.2492 -0.2822
 6940TIP3    H245016   2.662   1.663   6.275 -0.6328  0.8280  1.8162
 6941TIP3   OH245017   4.433   6.281   5.784  0.1609  0.5196 -0.5428
 6941TIP3    H145018   4.338   6.269   5.782  0.3365 -1.5756  0.4483
 6941TIP3    H245019   4.464   6.213   5.844  2.0194  3.2346  1.8470
 6942TIP3   OH245020   3.900   1.732   3.912  0.1030  0.0219 -0.4692
 6942TIP3    H145021   3.897   1.735   3.817 -2.4991 -1.3431 -0.5119
 6942TIP3    H245022   3.863   1.815   3.940 -0.7793 -0.2716 -0.7146
 6943TIP3   OH245023   5.582   1.605   5.231 -0.2389  0.1583 -0.0511
 6943TIP3    H145024   5.645   1.641   5.169  0.6717  1.1409  1.3862
 6943TIP3    H245025   5.634   1.584   5.309 -1.3881 -0.7755  0.4965
 6944TIP3   OH245026   5.128   5.750   5.467 -0.2752  0.1493 -0.3183
 6944TIP3    H145027   5.220   5.766   5.491 -0.6236  3.0137 -0.5610
 6944TIP3    H245028   5.129   5.664   5.426  2.0481 -0.5142  0.9218
 6945TIP3   OH245029   4.293   1.447   5.472  0.0338  0.3637 -0.2867
 6945TIP3    H145030   4.282   1.390   5.396 -0.7571 -0.8582  0.7178
 6945TIP3    H245031   4.382   1.430   5.502 -0.1841 -0.3240 -0.0163
 6946TIP3   OH245032   1.030   7.645   4.550  0.5979  0.4099 -0.3033
 6946TIP3    H145033   1.010   7.555   4.527  2.4280  0.1780 -1.1904
 6946TIP3    H245034   1.069   7.682   4.470  0.8487  1.6574  0.3697
 6947TIP3   OH245035   0.116   2.686   6.502  0.6503  0.1852  0.5453
 6947TIP3    H145036   0.023   2.707   6.490  0.7423 -0.7580 -2.9197
 6947TIP3    H245037   0.116   2.599   6.541  0.0069 -0.3410 -0.5665
 6948TIP3   OH245038   2.521   6.208   5.177 -0.2834  0.5148  0.1873
 6948TIP3    H145039   2.492   6.136   5.233 -0.6492  0.8788  0.4687
 6948TIP3    H245040   2.515   6.173   5.088  0.5454 -0.1476  0.3888
 6949TIP3   OH245041   6.635   1.876   6.245 -0.0740 -0.0342  0.1265
 6949TIP3    H145042   6.702   1.942   6.234  2.2943 -2.3516 -0.4200
 6949TIP3    H245043   6.565   1.919   6.294  1.1004  2.9319 -0.6372
 6950TIP3   OH245044   2.198   3.780   3.649 -0.4669  0.1718  0.0911
 6950TIP3    H145045   2.156   3.732   3.720 -0.0341 -0.3822 -0.0158
 6950TIP3    H245046   2.157   3.746   3.570 -0.3293  0.1589  0.0259
 6951TIP3   OH245047   2.977   3.695   5.841 -0.6766 -0.1681  0.6170
 6951TIP3    H145048   2.969   3.616   5.895 -0.5146 -0.8538 -0.3291
 6951TIP3    H245049   3.065   3.729   5.861 -0.1943 -1.0157  0.0313
 6952TIP3   OH245050   5.068   1.745   4.316  0.5134 -0.0020  0.0822
 6952TIP3    H145051   5.083   1.652   4.333  0.4490  0.0567  0.4895
 6952TIP3    H245052   5.154   1.781   4.295  0.5042 -0.1946 -0.2840
 6953TIP3   OH245053   5.866   1.713   6.103 -0.3684  0.1586  0.0705
 6953TIP3    H145054   5.943   1.757   6.068  0.1570  0.2107  1.2723
 6953TIP3    H245055   5.799   1.782   6.108  0.3755  0.8025  1.7078
 6954TIP3   OH245056   3.494   0.360   3.748  0.0737  0.0314 -0.4411
 6954TIP3    H145057   3.567   0.392   3.696  1.1703 -0.0029  1.0146
 6954TIP3    H245058   3.473   0.432   3.808  1.1431 -1.0958  1.3880
 6955TIP3   OH245059   1.875   5.003   4.988  0.2355 -0.4060  0.1817
 6955TIP3    H145060   1.874   4.965   4.901 -0.7889  1.0509 -0.4979
 6955TIP3    H245061   1.856   4.930   5.047  1.2856 -1.4738 -0.7646
 6956TIP3   OH245062   6.940   3.918   5.100 -0.7562  0.0560  0.5337
 6956TIP3    H145063   6.935   3.848   5.034  0.7346  1.9371 -1.7373
 6956TIP3    H245064   7.019   3.897   5.150 -1.8596 -1.3506  1.7728
 6957TIP3   OH245065   5.522   2.134   5.400 -0.0229 -0.1178  0.4205
 6957TIP3    H145066   5.457   2.071   5.430  0.5438 -1.0848 -0.2960
 6957TIP3    H245067   5.485   2.169   5.319 -0.1204  0.1070  0.5628
 6958TIP3   OH245068   3.462   4.647   4.811  0.3601  0.1885  0.0462
 6958TIP3    H145069   3.451   4.702   4.733 -3.2129  0.6170  0.6698
 6958TIP3    H245070   3.510   4.571   4.780  0.7593  1.2464 -2.1060
 6959TIP3   OH245071   3.197   2.922   5.843 -0.3169 -0.0697  0.1019
 6959TIP3    H145072   3.242   2.845   5.809 -0.3916  0.4643 -1.2866
 6959TIP3    H245073   3.182   2.902   5.935 -4.3007 -3.6755 -1.0176
 6960TIP3   OH245074   6.680   2.187   5.459  0.6549 -0.0631  0.0566
 6960TIP3    H145075   6.717   2.103   5.484  0.9185 -0.8098 -2.5557
 6960TIP3    H245076   6.635   2.170   5.377 -0.9785  1.9672  0.4258
 6961TIP3   OH245077   5.055   2.703   5.447 -0.0792  0.1580 -0.0418
 6961TIP3    H145078   5.087   2.640   5.383 -0.1563  0.1995 -0.1225
 6961TIP3    H245079   5.052   2.655   5.529  0.3073  0.1895 -0.0087
 6962TIP3   OH245080   1.042   5.366   5.459  0.4182 -0.2152 -0.1900
 6962TIP3    H145081   0.992   5.287   5.438 -0.5841  0.4981 -0.5724
 6962TIP3    H245082   0.978   5.437   5.450  1.0976  0.5595  0.9351
 6963TIP3   OH245083   1.659   0.711   6.469  0.2125 -0.0012  0.2500
 6963TIP3    H145084   1.578   0.760   6.481  0.2820  0.3522 -0.6576
 6963TIP3    H245085   1.726   0.777   6.457  0.5460 -0.3048  0.4204
 6964TIP3   OH245086   2.200   3.436   5.827  0.0121  0.5130 -0.3500
 6964TIP3    H145087   2.240   3.484   5.756 -0.7369 -1.0128 -1.8901
 6964TIP3    H245088   2.250   3.460   5.905  1.6026  1.3443 -1.5870
 6965TIP3   OH245089   4.081   5.178   4.202 -0.0730 -0.4115 -0.6604
 6965TIP3    H145090   4.033   5.105   4.163 -0.6056 -1.6849  2.1439
 6965TIP3    H245091   4.137   5.137   4.269  0.1561  1.6619  0.4980
 6966TIP3   OH245092   1.071   6.914   6.541  0.1141  0.0989 -0.0089
 6966TIP3    H145093   1.134   6.920   6.469  0.2426 -0.4552  0.0481
 6966TIP3    H245094   1.070   6.821   6.563 -0.0803  0.2356  0.5698
 6967TIP3   OH245095   6.582   4.601   5.187 -0.4709 -0.0050  0.5026
 6967TIP3    H145096   6.622   4.679   5.149 -0.7948  0.5336  1.2458
 6967TIP3    H245097   6.585   4.615   5.282 -3.1333  0.4880  0.6158
 6968TIP3   OH245098   0.286   3.980   5.028 -0.2027  0.1582 -0.0177
 6968TIP3    H145099   0.313   4.072   5.023 -1.0991  0.4020 -0.4404
 6968TIP3    H245100   0.355   3.938   5.080  0.0128  1.1418  0.5129
 6969TIP3   OH245101   4.450   1.606   6.576  0.6678  0.6009 -0.4385
 6969TIP3    H145102   4.518   1.666   6.545 -0.1500  1.8289  0.0622
 6969TIP3    H245103   4.381   1.663   6.611  0.4988 -0.6547  1.4215
 6970TIP3   OH245104   1.030   3.188   5.551 -0.1934  0.1493 -0.1432
 6970TIP3    H145105   0.984   3.234   5.621 -0.8174 -2.5408  1.3644
 6970TIP3    H245106   1.116   3.168   5.588  1.1054  2.3052 -1.7610
 6971TIP3   OH245107   2.556   0.117   4.712  0.0464 -0.4490  0.0372
 6971TIP3    H145108   2.579   0.032   4.751  1.3512 -0.5186 -0.8300
 6971TIP3    H245109   2.633   0.141   4.661  0.0237  1.6525  0.8963
 6972TIP3   OH245110   2.569   1.617   4.015  0.0853 -0.2713 -0.1952
 6972TIP3    H145111   2.498   1.558   3.990  0.1394 -0.0595 -0.8646
 6972TIP3    H245112   2.603   1.650   3.932  2.6793 -2.3199 -0.0975
 6973TIP3   OH245113   7.331   5.853   4.887  0.2242  0.0077  0.0740
 6973TIP3    H145114   7.320   5.762   4.860  0.1302  0.1747 -0.4621
 6973TIP3    H245115   7.370   5.847   4.974 -1.1006 -0.5596  0.6570
 6974TIP3   OH245116   6.665   7.465   4.915  0.6640 -0.0049  0.3925
 6974TIP3    H145117   6.669   7.484   4.821 -0.0385 -1.2954  0.0825
 6974TIP3    H245118   6.641   7.548   4.955 -0.6526  0.1944 -0.7384
 6975TIP3   OH245119   4.730   1.277   6.086  0.1261  0.3040 -0.0602
 6975TIP3    H145120   4.745   1.192   6.127 -0.8969 -0.5134 -1.3202
 6975TIP3    H245121   4.669   1.322   6.144 -1.6293 -0.9964 -0.8342
 6976TIP3   OH245122   4.244   1.326   4.242  0.1289  0.1854  0.0743
 6976TIP3    H145123   4.162   1.328   4.193  0.8575 -2.8772 -1.5036
 6976TIP3    H245124   4.282   1.413   4.229 -2.3857  1.3698  0.0818
 6977TIP3   OH245125   7.368   5.793   6.556 -0.4888 -0.8238  0.2209
 6977TIP3    H145126   7.305   5.858   6.588 -0.6872 -0.4527 -0.8970
 6977TIP3    H245127   7.444   5.803   6.614 -1.0382 -0.5326  0.9028
 6978TIP3   OH245128   6.258   7.572   4.472  0.3320  0.5118  0.0712
 6978TIP3    H145129   6.291   7.588   4.561  0.2061  0.0047  0.2106
 6978TIP3    H245130   6.280   7.481   4.454 -3.6188 -0.8984  1.3584
 6979TIP3   OH245131   0.132   0.897   4.765  0.3560  0.7276 -0.4613
 6979TIP3    H145132   0.077   0.937   4.833 -0.5381  2.9126 -2.3370
 6979TIP3    H245133   0.129   0.803   4.785 -0.1520  1.2234  2.2556
 6980TIP3   OH245134   6.764   7.238   4.703 -0.0822 -0.0724 -0.4527
 6980TIP3    H145135   6.812   7.320   4.711 -0.7213  0.2387  0.2899
 6980TIP3    H245136   6.770   7.197   4.789 -1.1034 -0.0464 -0.3555
 6981TIP3   OH245137   0.273   7.596   6.293  0.6233  0.0076  0.2999
 6981TIP3    H145138   0.205   7.529   6.282  1.3572 -0.6096 -0.6023
 6981TIP3    H245139   0.349   7.548   6.325  1.2749  0.3399 -0.7207
 6982TIP3   OH245140   2.033   4.391   6.016  0.4383 -0.7563 -0.4607
 6982TIP3    H145141   2.024   4.432   5.929 -1.3697 -2.4555 -1.1399
 6982TIP3    H245142   2.114   4.340   6.010  0.3367 -0.8447 -1.1372
 6983TIP3   OH245143   0.490   5.637   4.676  0.7927  0.0733 -0.6049
 6983TIP3    H145144   0.564   5.577   4.663 -0.1975 -1.3829  0.2293
 6983TIP3    H245145   0.494   5.696   4.600  1.6878 -1.1585 -1.5630
 6984TIP3   OH245146   2.261   0.990   5.201  0.4595 -0.7290 -0.4844
 6984TIP3    H145147   2.292   0.951   5.120 -1.3271 -1.0515 -1.0478
 6984TIP3    H245148   2.168   0.966   5.206 -0.0833  1.3157  0.4135
 6985TIP3   OH245149   2.262   7.026   3.855 -0.3173  0.2644 -0.0619
 6985TIP3    H145150   2.347   7.024   3.899 -0.2309  1.1823 -0.1798
 6985TIP3    H245151   2.283   7.037   3.762 -0.5541  0.0821 -0.1392
 6986TIP3   OH245152   0.173   0.862   5.997 -0.6344 -0.2058 -0.3921
 6986TIP3    H145153   0.091   0.838   6.041 -0.1454  2.2799  2.2386
 6986TIP3    H245154   0.149   0.932   5.937 -0.5185  0.5682  0.4266
 6987TIP3   OH245155   5.796   7.605   4.491 -0.1963 -0.4047  0.1950
 6987TIP3    H145156   5.784   7.535   4.555 -0.1321 -0.9625 -0.3878
 6987TIP3    H245157   5.874   7.579   4.441 -1.5880 -1.2501 -1.6916
 6988TIP3   OH245158   4.704   3.482   5.222  0.2060 -0.3125  0.0172
 6988TIP3    H145159   4.754   3.423   5.165  0.6904 -0.7600  0.8878
 6988TIP3    H245160   4.715   3.445   5.310 -0.1259  0.6480  0.4679
 6989TIP3   OH245161   5.591   7.029   5.163  0.4740  0.1827  0.2321
 6989TIP3    H145162   5.532   7.053   5.091  1.2738  0.8397 -0.2234
 6989TIP3    H245163   5.661   7.094   5.159  1.2460 -0.5948  0.7394
 6990TIP3   OH245164   3.622   3.043   4.861 -0.1106 -0.4805  0.0526
 6990TIP3    H145165   3.564   3.029   4.936 -1.6888 -1.0009 -1.2019
 6990TIP3    H245166   3.702   2.994   4.883 -0.7054 -0.9739  1.2029
 6991TIP3   OH245167   6.703   5.434   6.821  0.8088  0.1013 -0.4863
 6991TIP3    H145168   6.656   5.404   6.744 -0.6713  0.2119  0.3350
 6991TIP3    H245169   6.761   5.503   6.789  0.6978 -0.3162 -1.6018
 6992TIP3   OH245170   4.728   1.473   4.639  0.3897 -0.5872 -0.2012
 6992TIP3    H145171   4.764   1.551   4.598 -0.1542  0.3065  0.9699
 6992TIP3    H245172   4.780   1.460   4.718 -0.1798 -0.7881  0.1544
 6993TIP3   OH245173   3.500   4.874   4.276  0.1584  0.5597 -0.3042
 6993TIP3    H145174   3.550   4.854   4.197  0.3140  2.1665 -0.6307
 6993TIP3    H245175   3.497   4.790   4.323 -0.8435 -0.7293 -2.4769
 6994TIP3   OH245176   3.050   2.353   6.068 -0.2994 -0.5039 -0.6883
 6994TIP3    H145177   3.058   2.318   6.156  3.3838  1.7387  0.0796
 6994TIP3    H245178   3.066   2.447   6.078 -2.3216  0.2661 -3.4966
 6995TIP3   OH245179   5.410   6.075   6.174  0.4614 -0.4385 -0.3608
 6995TIP3    H145180   5.315   6.085   6.185  0.2597 -0.5034 -1.7797
 6995TIP3    H245181   5.448   6.140   6.232 -0.4500 -0.4281  0.2494
 6996TIP3   OH245182   5.256   4.579   5.347  0.3781  0.1451 -0.1487
 6996TIP3    H145183   5.213   4.646   5.293 -1.1647 -1.6293 -1.2218
 6996TIP3    H245184   5.337   4.560   5.300  0.4810  0.7208 -0.2205
 6997TIP3   OH245185   5.579   4.836   5.318 -0.2023  0.3016  0.5742
 6997TIP3    H145186   5.570   4.875   5.231 -1.1461 -0.1772  0.4357
 6997TIP3    H245187   5.549   4.746   5.307  1.1955 -0.2455  1.0602
 6998TIP3   OH245188   2.215   3.997   4.268  0.0107 -0.1463  0.7234
 6998TIP3    H145189   2.222   4.019   4.361 -0.9551  2.9276  0.1896
 6998TIP3    H245190   2.123   4.012   4.247  0.0229 -1.6540 -0.5735
 6999TIP3   OH245191   4.300   5.719   5.890 -0.8258 -0.6386 -0.3170
 6999TIP3    H145192   4.238   5.738   5.960 -1.3060  1.2435 -1.1888
 6999TIP3    H245193   4.371   5.671   5.933 -1.2497  0.1980  1.3975
 7000TIP3   OH245194   0.645   6.056   4.507  0.3393 -0.2751  0.0283
 7000TIP3    H145195   0.705   6.084   4.437 -0.6673  0.3067 -0.6244
 7000TIP3    H245196   0.560   6.049   4.464 -0.5343  1.1573  1.4085
 7001TIP3   OH245197   2.712   5.200   4.498 -0.3201  0.0849  0.4265
 7001TIP3    H145198   2.737   5.162   4.414  1.2319  1.4299  0.2319
 7001TIP3    H245199   2.617   5.215   4.490 -0.2748 -0.2356 -0.9056
 7002TIP3   OH245200   6.148   6.746   6.062 -0.3365  0.1622  0.1468
 7002TIP3    H145201   6.240   6.737   6.036 -0.2614  0.5757  0.2631
 7002TIP3    H245202   6.109   6.802   5.995 -0.5486 -0.1568  0.0007
 7003TIP3   OH245203   1.348   0.570   5.145  0.5423  0.5579  0.3508
 7003TIP3    H145204   1.329   0.663   5.136 -1.3801  0.2674  0.9828
 7003TIP3    H245205   1.291   0.540   5.216 -0.4656 -1.4957 -1.2112
 7004TIP3   OH245206   7.445   7.029   5.957  0.0404  0.3964  0.3326
 7004TIP3    H145207   7.471   7.033   6.049 -2.6512  0.5942  1.1805
 7004TIP3    H245208   7.407   6.941   5.947  2.9423 -0.8049 -1.4747
 7005TIP3   OH245209   5.400   3.479   5.540  0.5770 -0.3011  0.2786
 7005TIP3    H145210   5.393   3.439   5.453  0.1753 -1.2403  0.7365
 7005TIP3    H245211   5.310   3.489   5.569  0.7333 -2.1522  1.5479
 7006TIP3   OH245212   1.955   0.260   5.378 -0.0808 -1.1234  0.4216
 7006TIP3    H145213   1.981   0.215   5.297  0.7110 -1.9683  1.1194
 7006TIP3    H245214   1.997   0.209   5.448  1.0472  0.8563  1.2477
 7007TIP3   OH245215   2.447   3.989   6.771 -0.5240 -0.3916 -0.1794
 7007TIP3    H145216   2.432   4.064   6.828  2.4775  0.0162  0.2404
 7007TIP3    H245217   2.462   4.028   6.684 -0.2731 -0.6007 -0.2320
 7008TIP3   OH245218   3.504   1.921   5.440 -0.4587 -0.1410 -0.2928
 7008TIP3    H145219   3.523   2.002   5.487 -3.3046  1.0046 -0.8709
 7008TIP3    H245220   3.448   1.872   5.501  1.0327 -1.5953 -0.0521
 7009TIP3   OH245221   1.628   3.196   6.717 -0.3967 -0.0281  0.0451
 7009TIP3    H145222   1.706   3.177   6.770 -0.6905  1.1187  0.9347
 7009TIP3    H245223   1.647   3.281   6.676 -1.4981  0.6822  0.9546
 7010TIP3   OH245224   5.339   1.536   5.102 -0.3394  0.6327 -0.4059
 7010TIP3    H145225   5.396   1.600   5.146  0.6683 -0.7065  0.3409
 7010TIP3    H245226   5.396   1.495   5.037 -0.4627 -0.6285  0.2514
 7011TIP3   OH245227   4.514   5.936   5.394 -0.1776  0.4718  0.5671
 7011TIP3    H145228   4.577   5.949   5.465  0.7211  2.4388 -0.5052
 7011TIP3    H245229   4.501   6.023   5.357 -1.4879 -0.3204 -0.9853
 7012TIP3   OH245230   3.445   1.084   5.631  0.0331 -0.0770 -0.0925
 7012TIP3    H145231   3.472   0.994   5.648 -0.6558 -0.2041  0.3727
 7012TIP3    H245232   3.455   1.129   5.715  1.4078  0.5756 -0.5602
 7013TIP3   OH245233   6.183   6.370   5.319 -0.2936 -0.4574 -0.1123
 7013TIP3    H145234   6.195   6.336   5.231  1.9116 -0.0533 -0.0126
 7013TIP3    H245235   6.166   6.463   5.306  0.7333 -0.2606 -0.0987
 7014TIP3   OH245236   2.041   4.712   5.408  0.3782  0.3189  0.2591
 7014TIP3    H145237   2.090   4.719   5.490 -0.1492 -2.0743  0.8483
 7014TIP3    H245238   2.103   4.672   5.347  0.1817  0.3253  0.0540
 7015TIP3   OH245239   5.675   3.006   5.295 -0.0021 -0.4054  0.3414
 7015TIP3    H145240   5.706   3.046   5.213 -1.2238  1.7249  0.8290
 7015TIP3    H245241   5.677   3.078   5.358 -2.6289 -1.0252  1.2324
 7016TIP3   OH245242   3.880   6.594   5.403 -0.9026  0.5675 -0.3034
 7016TIP3    H145243   3.897   6.661   5.470  2.0308 -0.6259  0.3146
 7016TIP3    H245244   3.880   6.643   5.321 -1.5411  1.6618  0.3165
 7017TIP3   OH245245   2.556   4.664   4.295  0.7398 -0.7106  0.0325
 7017TIP3    H145246   2.602   4.586   4.325  0.8015 -1.6953 -2.3814
 7017TIP3    H245247   2.505   4.634   4.220  0.5842  1.5237 -0.8276
 7018TIP3   OH245248   4.247   3.623   5.046  0.0001 -0.0133  0.1835
 7018TIP3    H145249   4.216   3.650   5.132 -0.0286 -2.2221  0.9302
 7018TIP3    H245250   4.305   3.549   5.063 -0.4797 -0.9042 -1.7089
 7019TIP3   OH245251   5.424   2.184   5.141 -0.5292 -0.0125 -0.4270
 7019TIP3    H145252   5.333   2.166   5.118 -0.9927 -0.1395  1.3698
 7019TIP3    H245253   5.468   2.196   5.057 -1.9379 -1.1925 -1.3768
 7020TIP3   OH245254   0.584   2.965   5.420  0.2384 -0.7297  0.4502
 7020TIP3    H145255   0.559   2.924   5.503 -3.4121  0.0018 -0.1519
 7020TIP3    H245256   0.510   2.950   5.361  1.9841  0.2192 -2.2014
 7021TIP3   OH245257   1.179   5.915   6.303  0.1210 -0.6227 -0.4130
 7021TIP3    H145258   1.211   5.826   6.289 -0.2294 -0.7704 -0.2760
 7021TIP3    H245259   1.235   5.951   6.372  0.6796 -0.5145 -0.9140
 7022TIP3   OH245260   1.623   1.453   4.256  0.1180  0.5814  0.1277
 7022TIP3    H145261   1.661   1.505   4.326  0.7419 -0.4092  0.5426
 7022TIP3    H245262   1.693   1.442   4.192  0.1603 -0.1586  0.2859
 7023TIP3   OH245263   0.796   2.240   5.623  0.3481 -0.1612 -0.1982
 7023TIP3    H145264   0.782   2.258   5.530 -0.7847  0.0381  0.0006
 7023TIP3    H245265   0.757   2.315   5.668 -0.2099 -0.8520  0.4836
 7024TIP3   OH245266   3.080   3.281   3.919  0.1573  0.1474  0.6305
 7024TIP3    H145267   3.158   3.335   3.933  1.7100 -1.1114 -2.3489
 7024TIP3    H245268   3.021   3.336   3.868  0.3531  0.1325  0.3852
 7025TIP3   OH245269   0.928   6.368   5.231  0.4127  0.2425 -0.0738
 7025TIP3    H145270   1.005   6.323   5.197  0.3886  0.5958 -0.6085
 7025TIP3    H245271   0.949   6.461   5.224 -0.6802  0.4165 -1.8031
 7026TIP3   OH245272   0.956   6.681   4.604  0.2474  0.1414 -0.5768
 7026TIP3    H145273   0.961   6.587   4.584  0.4181  0.0100  0.0436
 7026TIP3    H245274   0.865   6.704   4.584 -0.2351 -0.5188  0.6723
 7027TIP3   OH245275   1.156   2.671   5.357 -0.0854 -0.2392 -0.5547
 7027TIP3    H145276   1.209   2.591   5.360  0.8437  0.1872 -2.7502
 7027TIP3    H245277   1.086   2.651   5.294 -1.7199 -0.3002  1.2128
 7028TIP3   OH245278   0.412   6.467   3.672  0.2261 -0.0820 -0.5997
 7028TIP3    H145279   0.374   6.539   3.723 -0.7324 -0.4294 -0.7984
 7028TIP3    H245280   0.388   6.488   3.581  0.5822 -0.2707 -0.7367
 7029TIP3   OH245281   0.910   4.664   5.952  0.2130 -0.0916  0.1557
 7029TIP3    H145282   0.824   4.680   5.913 -0.4827 -1.7769  0.8914
 7029TIP3    H245283   0.892   4.647   6.044  1.6775  2.3928  0.9951
 7030TIP3   OH245284   4.846   7.498   3.882  0.4007 -0.0019 -0.4545
 7030TIP3    H145285   4.888   7.420   3.845 -0.4374 -0.8862  0.3677
 7030TIP3    H245286   4.916   7.543   3.930  0.5274 -1.2557  0.6002
 7031TIP3   OH245287   3.958   4.306   5.334  0.1634  0.0883  0.6324
 7031TIP3    H145288   3.884   4.352   5.372 -0.6158  0.3227 -1.0469
 7031TIP3    H245289   3.921   4.260   5.259  1.2682 -1.8476  1.2229
 7032TIP3   OH245290   6.020   5.050   4.441 -0.1480  0.4128  0.9452
 7032TIP3    H145291   6.063   5.032   4.358 -0.8947  0.1728  0.6021
 7032TIP3    H245292   6.078   5.112   4.485 -0.2683  1.4157 -0.2343
 7033TIP3   OH245293   3.722   4.924   3.884  0.2399 -0.0273 -0.0751
 7033TIP3    H145294   3.761   4.958   3.964  1.0888  0.6437 -0.7609
 7033TIP3    H245295   3.765   4.839   3.870  2.9252  1.4772 -1.7962
 7034TIP3   OH245296   2.936   7.000   3.724 -0.0635 -0.4264 -0.4551
 7034TIP3    H145297   2.875   7.042   3.663  0.8957  0.8277 -0.5877
 7034TIP3    H245298   2.931   6.907   3.703 -1.0733 -0.2110 -1.2393
 7035TIP3   OH245299   0.261   4.204   4.517  0.0997  0.3345  0.8831
 7035TIP3    H145300   0.234   4.226   4.606 -0.7420  2.3378  0.1997
 7035TIP3    H245301   0.193   4.242   4.461 -0.3902 -2.4484 -0.6006
 7036TIP3   OH245302   6.048   4.330   6.106  0.1977  0.0313  0.8735
 7036TIP3    H145303   6.078   4.408   6.060  1.1688 -0.7591  0.1188
 7036TIP3    H245304   6.110   4.319   6.178  1.1489 -1.0073 -0.0626
 7037TIP3   OH245305   7.042   0.170   4.261 -0.0423  0.3618  0.4162
 7037TIP3    H145306   7.108   0.211   4.316  0.5584  0.5142 -0.3866
 7037TIP3    H245307   7.071   0.079   4.252 -1.3663 -0.2911  2.1877
 7038TIP3   OH245308   5.458   6.939  10.767  0.0851 -0.0143 -0.2658
 7038TIP3    H145309   5.418   6.960  10.851  0.0477 -0.1870 -0.2399
 7038TIP3    H245310   5.481   6.847  10.773 -3.0086 -1.0324 -1.6420
 7039TIP3   OH245311   2.894   6.496   5.121 -0.4725 -0.2597 -0.0870
 7039TIP3    H145312   2.983   6.462   5.119 -0.5844 -0.5605 -0.0118
 7039TIP3    H245313   2.901   6.584   5.083 -0.2740 -0.5715 -0.7836
 7040TIP3   OH245314   1.205   0.490   6.201 -0.4463  0.3063 -0.3528
 7040TIP3    H145315   1.235   0.559   6.260  0.8618 -1.8643  1.7028
 7040TIP3    H245316   1.128   0.528   6.157  0.2721  3.0597  0.5531
 7041TIP3   OH245317   2.601   4.922   4.162  0.3986 -0.5843  0.1316
 7041TIP3    H145318   2.577   4.855   4.226 -1.9331  0.0258 -0.0314
 7041TIP3    H245319   2.611   4.874   4.080  0.4557 -0.9538  0.3522
 7042TIP3   OH245320   6.636   3.386   5.549  0.2593 -0.9422  0.1375
 7042TIP3    H145321   6.625   3.387   5.454 -1.6187 -0.4807  0.3290
 7042TIP3    H245322   6.644   3.293   5.571  0.7856 -1.0433 -0.4707
 7043TIP3   OH245323   3.289   7.406   5.497  0.2374  0.1903 -0.0943
 7043TIP3    H145324   3.368   7.367   5.535  0.5718  0.2611 -0.7100
 7043TIP3    H245325   3.285   7.494   5.535  0.0584 -0.0626  0.4850
 7044TIP3   OH245326   7.345   3.813   4.506 -0.2297  0.2310 -0.0933
 7044TIP3    H145327   7.357   3.904   4.478 -1.6787 -0.1392 -2.2561
 7044TIP3    H245328   7.418   3.765   4.467  0.5730  0.4438  1.1054
 7045TIP3   OH245329   4.276   1.920   4.144  0.2494 -0.4342  0.1058
 7045TIP3    H145330   4.329   1.998   4.162 -0.0059 -0.4344  0.9060
 7045TIP3    H245331   4.189   1.943   4.177 -0.2514 -0.4572 -1.1336
 7046TIP3   OH245332   5.392   0.851   4.464 -0.1797 -0.4030  0.0747
 7046TIP3    H145333   5.298   0.872   4.461 -0.0270  0.3133  0.0551
 7046TIP3    H245334   5.420   0.881   4.550  0.0534 -0.5031  0.0332
 7047TIP3   OH245335   6.794   5.018   4.679  0.3461  0.3083 -0.3122
 7047TIP3    H145336   6.715   4.969   4.703 -0.8866  1.9633 -0.7947
 7047TIP3    H245337   6.803   5.004   4.585 -0.1202  1.1238 -0.4868
 7048TIP3   OH245338   6.236   2.466   4.815  0.0726  0.3494 -1.1912
 7048TIP3    H145339   6.199   2.428   4.895  0.4877  0.8705 -0.7392
 7048TIP3    H245340   6.286   2.394   4.775 -0.5334 -0.0486 -1.2416
 7049TIP3   OH245341   4.790   5.797   6.459  0.1468 -0.0438  0.1040
 7049TIP3    H145342   4.791   5.863   6.528 -1.5305  0.1222  0.0233
 7049TIP3    H245343   4.840   5.724   6.495  2.4686  1.4063  0.0063
 7050TIP3   OH245344   0.530   7.054   6.756  0.0783  0.2467  0.4304
 7050TIP3    H145345   0.442   7.035   6.726 -0.8867  2.9293  1.2910
 7050TIP3    H245346   0.533   7.149   6.764  2.5219  0.1306  2.0013
 7051TIP3   OH245347   6.301   7.081   6.262  0.2673 -0.7510  0.2291
 7051TIP3    H145348   6.379   7.058   6.312 -0.6003 -2.8221  0.7428
 7051TIP3    H245349   6.257   7.148   6.315  3.1268  2.9053 -1.5605
 7052TIP3   OH245350   4.699   0.703   6.024 -0.1180  0.3784 -0.5058
 7052TIP3    H145351   4.788   0.684   6.053 -0.2902  0.7653  0.3307
 7052TIP3    H245352   4.672   0.625   5.976  1.2869  0.9487 -2.3194
 7053TIP3   OH245353   0.057   5.354   4.445  0.7399 -0.0634 -0.1848
 7053TIP3    H145354   0.050   5.339   4.350 -0.7912 -0.5637 -0.0296
 7053TIP3    H245355   0.080   5.269   4.482 -0.7012 -0.3761  0.0509
 7054TIP3   OH245356   5.632   1.859   5.526  0.0630  0.0168 -0.0384
 7054TIP3    H145357   5.689   1.913   5.472  0.2500  0.3338  0.4652
 7054TIP3    H245358   5.554   1.845   5.472  0.3134  0.1969 -0.4480
 7055TIP3   OH245359   3.566   0.879   5.831 -0.4790  0.6173  0.0174
 7055TIP3    H145360   3.634   0.909   5.893 -1.0432  1.3999  0.2777
 7055TIP3    H245361   3.615   0.841   5.758  0.2110  0.1216  0.7270
 7056TIP3   OH245362   6.385   2.283   5.403  0.2485 -0.1619 -0.0999
 7056TIP3    H145363   6.362   2.216   5.468  0.5909 -0.6675 -0.4904
 7056TIP3    H245364   6.429   2.352   5.454  2.0931 -1.3394 -0.0064
 7057TIP3   OH245365   3.101   5.023   4.464 -0.1956  0.3110 -0.0657
 7057TIP3    H145366   3.116   4.942   4.415 -1.1606  0.3675 -0.4677
 7057TIP3    H245367   3.176   5.078   4.442  1.2086 -0.9465  1.2766
 7058TIP3   OH245368   1.927   6.758   5.693  0.0182  0.2588 -0.4387
 7058TIP3    H145369   1.903   6.791   5.780 -1.1134  0.6910 -0.8947
 7058TIP3    H245370   1.961   6.835   5.648 -0.3166  0.2567 -0.6976
 7059TIP3   OH245371   7.211   3.910   5.176 -0.3734 -0.4973 -0.0091
 7059TIP3    H145372   7.305   3.894   5.182 -0.1139  1.1579  0.8513
 7059TIP3    H245373   7.188   3.951   5.259 -1.6280  0.2383 -0.6937
 7060TIP3   OH245374   5.908   3.996   5.568  0.5527  0.5210 -0.0368
 7060TIP3    H145375   5.824   3.978   5.526  0.6654  0.1556 -0.1045
 7060TIP3    H245376   5.971   3.942   5.521  1.0622  1.8013 -0.8774
 7061TIP3   OH245377   3.568   3.588   6.054 -0.2141 -0.1809 -0.1397
 7061TIP3    H145378   3.582   3.519   6.120 -1.2661 -1.4400 -1.1679
 7061TIP3    H245379   3.545   3.666   6.106  0.8516 -0.6277  1.0504
 7062TIP3   OH245380   1.478   7.319   6.103  0.6895 -0.4674 -0.3498
 7062TIP3    H145381   1.534   7.283   6.034  0.3135 -0.7900 -0.4908
 7062TIP3    H245382   1.538   7.343   6.173  1.3599  1.9054 -1.6050
 7063TIP3   OH245383   0.879   1.495   6.480 -0.0096  0.1374  0.3849
 7063TIP3    H145384   0.905   1.450   6.561 -0.5740 -0.0782  0.4506
 7063TIP3    H245385   0.802   1.447   6.450  0.6461 -0.2727 -0.7093
 7064TIP3   OH245386   1.764   2.927   6.627  0.0586  0.0726  0.1358
 7064TIP3    H145387   1.703   2.971   6.687  0.0854 -1.9719  1.7801
 7064TIP3    H245388   1.708   2.870   6.575  0.3253 -0.1612  0.1047
 7065TIP3   OH245389   5.360   7.147   5.786  0.0644 -0.0544  0.5260
 7065TIP3    H145390   5.369   7.052   5.794  2.5312  0.0199 -0.4717
 7065TIP3    H245391   5.430   7.173   5.725 -1.8295  2.1753 -0.8897
 7066TIP3   OH245392   2.768   5.337   5.824 -0.1776 -0.1324  0.0760
 7066TIP3    H145393   2.801   5.249   5.809  1.1499  0.2853  0.3768
 7066TIP3    H245394   2.674   5.327   5.832 -0.2348 -1.2849 -1.5969
 7067TIP3   OH245395   7.183   3.837   6.229 -0.4817 -0.4708  0.2911
 7067TIP3    H145396   7.165   3.831   6.136  1.4588 -2.0390 -0.0629
 7067TIP3    H245397   7.237   3.760   6.248 -1.1354 -0.4043  2.7945
 7068TIP3   OH245398   3.585   6.920   4.457 -0.3963 -0.0308  0.2936
 7068TIP3    H145399   3.532   6.945   4.382 -0.6302  1.9860  1.0488
 7068TIP3    H245400   3.663   6.977   4.451 -0.1367 -0.2698  1.2346
 7069TIP3   OH245401   6.846   4.201   3.952 -0.5702  0.0317  0.3975
 7069TIP3    H145402   6.760   4.200   3.910 -0.5191  1.2154  0.2410
 7069TIP3    H245403   6.872   4.293   3.952  0.1570 -0.1494  1.5507
 7070TIP3   OH245404   5.656   5.385   4.515  0.5636 -0.3038 -0.4472
 7070TIP3    H145405   5.699   5.332   4.581  0.1714 -0.1179 -0.0362
 7070TIP3    H245406   5.564   5.383   4.538  0.6323  1.2990  0.1417
 7071TIP3   OH245407   6.410   2.384   6.301  0.2064  0.3509  0.1713
 7071TIP3    H145408   6.369   2.465   6.269  0.8964 -0.2386 -2.4350
 7071TIP3    H245409   6.362   2.363   6.381 -2.9093  1.0737 -1.3263
 7072TIP3   OH245410   5.537   1.192   5.233  0.0896  0.0233  0.1539
 7072TIP3    H145411   5.452   1.162   5.201  1.5871 -2.3717 -1.9453
 7072TIP3    H245412   5.517   1.231   5.319 -3.3829  1.7578 -1.2148
 7073TIP3   OH245413   3.813   4.166   5.077 -0.2879  0.4442  0.5130
 7073TIP3    H145414   3.869   4.207   5.011 -0.3999  2.3779  1.5542
 7073TIP3    H245415   3.724   4.179   5.044 -0.2878  0.2416  0.4286
 7074TIP3   OH245416   0.016   4.494   4.160 -0.3958  0.1347 -0.5059
 7074TIP3    H145417   0.012   4.444   4.079  1.3286  0.0447 -0.5654
 7074TIP3    H245418  -0.072   4.532   4.169 -1.3372 -1.7696 -1.1590
 7075TIP3   OH245419   4.992   4.772   6.465 -0.4149 -0.0526  0.2180
 7075TIP3    H145420   4.944   4.706   6.514  0.1756  1.0136  2.3897
 7075TIP3    H245421   5.072   4.728   6.436 -0.5359 -0.5929  0.6939
 7076TIP3   OH245422   7.524   7.591   4.794 -0.0317  0.5293 -0.2196
 7076TIP3    H145423   7.436   7.567   4.823  0.4093 -0.1017  0.6565
 7076TIP3    H245424   7.510   7.652   4.722 -1.1794  1.5763  0.8527
 7077TIP3   OH245425   6.058   1.590   5.833  0.2707  0.3039 -0.0530
 7077TIP3    H145426   5.972   1.623   5.808  0.4992  1.2216  0.3490
 7077TIP3    H245427   6.110   1.595   5.752  0.4071  1.2818  0.0864
 7078TIP3   OH245428   6.942   5.716   4.409  0.0852 -0.2059  0.4874
 7078TIP3    H145429   6.915   5.671   4.328  0.1485  1.3668 -0.4332
 7078TIP3    H245430   6.985   5.647   4.461 -0.1873 -1.3049 -0.6911
 7079TIP3   OH245431   7.098   6.082   5.253 -0.2821 -0.1799  0.4219
 7079TIP3    H145432   7.090   5.987   5.239 -0.6299  0.0907 -1.5573
 7079TIP3    H245433   7.016   6.107   5.294 -0.2314 -0.7187  0.8676
 7080TIP3   OH245434   2.575   2.638   6.370  0.5309 -0.2881 -0.9042
 7080TIP3    H145435   2.592   2.724   6.408  0.6174 -0.5677 -0.2988
 7080TIP3    H245436   2.591   2.650   6.277 -1.0535  0.7740 -1.0852
 7081TIP3   OH245437   2.296   1.621   5.697  0.0661 -0.2307 -0.3451
 7081TIP3    H145438   2.300   1.553   5.630  1.2617  1.0880 -1.6906
 7081TIP3    H245439   2.346   1.694   5.660  1.1906  0.3913  2.1867
 7082TIP3   OH245440   6.558   6.767   5.472 -0.1573  0.4372 -0.1142
 7082TIP3    H145441   6.629   6.714   5.434  0.4724  0.9176  0.3596
 7082TIP3    H245442   6.561   6.849   5.422 -0.5095  0.3898 -0.2163
 7083TIP3   OH245443   5.557   7.620   4.331  0.0862  0.0356 -0.4944
 7083TIP3    H145444   5.591   7.574   4.254  0.1021 -0.9909  0.1003
 7083TIP3    H245445   5.627   7.612   4.396 -0.4260 -0.2135  0.0339
 7084TIP3   OH245446   1.714   2.791   6.154 -0.6239 -0.2768  0.7556
 7084TIP3    H145447   1.660   2.819   6.229 -2.3394 -1.7835  0.1601
 7084TIP3    H245448   1.657   2.731   6.105  1.1066 -0.7529 -0.7646
 7085TIP3   OH245449   6.153   2.356   5.625 -0.3616 -0.3859  0.3479
 7085TIP3    H145450   6.077   2.377   5.570  0.5644  1.0437 -0.4388
 7085TIP3    H245451   6.221   2.417   5.597  0.4271 -0.1813  2.5163
 7086TIP3   OH245452   4.558   2.994   5.408  0.6276 -0.5290  0.0334
 7086TIP3    H145453   4.628   3.052   5.377 -0.2100  0.1018 -0.7248
 7086TIP3    H245454   4.547   3.018   5.500 -1.5202  2.5570 -0.8311
 7087TIP3   OH245455   6.873   6.152   5.531  0.3537 -0.2022  0.1915
 7087TIP3    H145456   6.861   6.242   5.499  0.4278 -0.3547 -0.2754
 7087TIP3    H245457   6.790   6.130   5.573  0.0685 -0.1757 -0.3455
 7088TIP3   OH245458   3.621   3.372   5.594  0.0579 -0.2228  0.3115
 7088TIP3    H145459   3.706   3.360   5.551 -0.3407 -0.0677 -0.5462
 7088TIP3    H245460   3.637   3.351   5.686  0.7503 -1.4407 -0.0631
 7089TIP3   OH245461   6.903   5.088   4.921 -0.1163 -0.1786 -0.2230
 7089TIP3    H145462   6.848   5.164   4.941  1.3180  0.7043  0.5607
 7089TIP3    H245463   6.875   5.061   4.834 -0.2999  1.6090 -0.7710
 7090TIP3   OH245464   2.744   0.672   5.533 -0.0027 -0.1051  0.3849
 7090TIP3    H145465   2.709   0.583   5.521  1.6142 -0.7924  0.5051
 7090TIP3    H245466   2.839   0.661   5.528  0.2455  1.5417  0.9656
 7091TIP3   OH245467   7.317   6.942   4.128  0.4446  0.4214  0.3321
 7091TIP3    H145468   7.370   6.933   4.049 -0.1334  1.9209 -0.2608
 7091TIP3    H245469   7.261   6.864   4.129  1.9878 -0.7272  0.4830
 7092TIP3   OH245470   5.612   0.267   5.836  0.2380  0.1545 -0.4040
 7092TIP3    H145471   5.639   0.177   5.819 -1.2435 -0.1212 -1.4477
 7092TIP3    H245472   5.691   0.319   5.822  0.8335 -0.8651 -0.8931
 7093TIP3   OH245473   4.467   5.199   5.879  0.1134  0.1638 -0.2287
 7093TIP3    H145474   4.402   5.139   5.915  1.2661 -1.1049 -0.1341
 7093TIP3    H245475   4.512   5.235   5.955  0.5448 -0.1851 -0.3099
 7094TIP3   OH245476   3.620   3.912   4.959  0.9892  0.1163 -0.1529
 7094TIP3    H145477   3.715   3.912   4.964  0.9085 -0.1394  2.6767
 7094TIP3    H245478   3.594   3.824   4.988 -0.1419  0.5248  0.1248
 7095TIP3   OH245479   5.542   3.752   4.572 -0.0479 -0.1192 -0.0188
 7095TIP3    H145480   5.457   3.778   4.536  0.7608 -0.1376 -2.0594
 7095TIP3    H245481   5.578   3.833   4.610 -0.1886  0.3409 -0.8367
 7096TIP3   OH245482   5.975   1.267   5.373  0.3135  0.3466 -0.4248
 7096TIP3    H145483   5.887   1.284   5.339 -1.2092 -2.1443  1.8988
 7096TIP3    H245484   5.978   1.313   5.456  1.1891  0.3554 -0.4563
 7097TIP3   OH245485   7.190   1.216   4.952  0.2345  0.8997 -0.9442
 7097TIP3    H145486   7.114   1.238   4.900 -0.4530 -0.6847 -0.6564
 7097TIP3    H245487   7.188   1.278   5.025 -0.3757  1.3105 -1.3047
 7098TIP3   OH245488   2.518   6.475   4.675 -1.0581 -0.2133 -0.1836
 7098TIP3    H145489   2.610   6.486   4.649 -1.1733 -0.9577 -0.9382
 7098TIP3    H245490   2.493   6.561   4.710  0.1363 -0.2135  0.7201
 7099TIP3   OH245491   0.946   4.014   4.436 -0.6600 -0.0534  0.0010
 7099TIP3    H145492   0.928   3.922   4.455 -0.0848  0.1940  1.9752
 7099TIP3    H245493   0.950   4.019   4.341 -0.5572 -2.0958 -0.1352
 7100TIP3   OH245494   5.171   4.943   5.702  0.3671  0.4613 -0.2440
 7100TIP3    H145495   5.246   4.971   5.651 -0.2558  0.6644 -1.0679
 7100TIP3    H245496   5.149   5.019   5.757  0.0003  0.8429 -0.9119
 7101TIP3   OH245497   4.617   6.845   6.702  0.3984  0.7414 -0.4742
 7101TIP3    H145498   4.626   6.758   6.662 -0.2882  1.0697 -1.3663
 7101TIP3    H245499   4.703   6.885   6.693  1.2298 -0.4652  1.4850
 7102TIP3   OH245500   3.089   6.238   3.708  0.5426 -0.1123  0.0647
 7102TIP3    H145501   3.049   6.158   3.675  2.1818 -1.7757  1.8362
 7102TIP3    H245502   3.049   6.251   3.795  0.4107  0.9260 -0.1319
 7103TIP3   OH245503   2.808   5.959   4.937  0.0512  0.2533  0.4270
 7103TIP3    H145504   2.781   5.957   5.029  2.2540 -1.7111  1.1477
 7103TIP3    H245505   2.877   6.026   4.934  0.0013  0.2937  0.2140
 7104TIP3   OH245506   0.138   5.909   4.391  0.1352  0.0557 -0.6476
 7104TIP3    H145507   0.121   5.870   4.477  1.2501 -0.2500 -0.5511
 7104TIP3    H245508   0.155   6.001   4.410 -0.5575  0.1913 -0.6558
 7105TIP3   OH245509   2.108   6.850   4.104  0.1474  0.1297  0.1090
 7105TIP3    H145510   2.052   6.776   4.079  1.1179 -0.7385  0.4000
 7105TIP3    H245511   2.054   6.927   4.089 -0.8853 -0.6328 -0.2598
 7106TIP3   OH245512   0.385   6.205   5.889 -0.3726 -0.2925  0.2010
 7106TIP3    H145513   0.442   6.241   5.957 -1.9023  1.4159  0.6853
 7106TIP3    H245514   0.376   6.113   5.910  3.8880 -1.2409 -1.1734
 7107TIP3   OH245515   7.428   0.536   5.545  0.0445  0.3549 -0.4228
 7107TIP3    H145516   7.381   0.539   5.462  0.9659 -2.2218 -1.1430
 7107TIP3    H245517   7.520   0.543   5.521  0.2399  2.5196  0.7186
 7108TIP3   OH245518   2.248   4.607   5.262  0.4645 -0.2371 -0.7778
 7108TIP3    H145519   2.336   4.602   5.298  0.4918  0.3251 -0.7592
 7108TIP3    H245520   2.200   4.537   5.307  0.5437  0.3288  0.2124
 7109TIP3   OH245521   1.125   2.414   5.620 -0.3868  0.0528 -0.3108
 7109TIP3    H145522   1.167   2.352   5.561 -0.7636  0.2537 -0.8060
 7109TIP3    H245523   1.125   2.371   5.705 -1.8180 -1.1964 -0.9020
 7110TIP3   OH245524   6.220   3.556   5.807  0.4367  0.1312 -0.5114
 7110TIP3    H145525   6.232   3.644   5.843  1.7904 -1.3006  3.0145
 7110TIP3    H245526   6.307   3.532   5.775  0.6728 -0.6964  0.6851
 7111TIP3   OH245527   2.892   1.739   4.154  0.4822 -0.4186  0.0545
 7111TIP3    H145528   2.980   1.704   4.169  0.8318 -0.6158 -2.0902
 7111TIP3    H245529   2.902   1.798   4.079 -0.7122  1.8464  1.5907
 7112TIP3   OH245530   4.501   1.575   4.755  0.2963  0.1960  0.3021
 7112TIP3    H145531   4.419   1.575   4.706 -0.3973 -0.8204  1.4001
 7112TIP3    H245532   4.555   1.510   4.712  1.2763  2.0907 -1.5194
 7113TIP3   OH245533   5.134   4.669   6.209 -0.2559  0.3118  0.6064
 7113TIP3    H145534   5.157   4.583   6.243 -0.0059  0.5097  0.9398
 7113TIP3    H245535   5.062   4.652   6.148 -0.1239 -0.1458  0.5739
 7114TIP3   OH245536   2.615   4.784   5.036 -0.3426  0.5812 -0.3022
 7114TIP3    H145537   2.681   4.816   5.098 -0.7373  0.5596  0.1413
 7114TIP3    H245538   2.655   4.707   4.996 -0.2207  0.3802  0.1974
 7115TIP3   OH245539   2.053   1.813   5.467  0.1577  0.2065  0.3473
 7115TIP3    H145540   2.049   1.905   5.440  1.0510  0.3645  0.6935
 7115TIP3    H245541   2.098   1.815   5.551  0.3997 -0.5680  0.2475
 7116TIP3   OH245542   0.599   0.496   4.406  0.0704  0.2077  0.6912
 7116TIP3    H145543   0.672   0.465   4.351 -0.7141  0.7590 -0.7015
 7116TIP3    H245544   0.584   0.425   4.468  0.4043 -0.8189 -0.3782
 7117TIP3   OH245545   6.552   3.718   4.559  0.4094 -0.2685 -0.3301
 7117TIP3    H145546   6.634   3.723   4.511  0.9589  0.6261  0.6626
 7117TIP3    H245547   6.538   3.624   4.574  1.0956 -0.4415 -0.7363
 7118TIP3   OH245548   1.552   7.035   5.358 -0.0388 -0.6567  0.1572
 7118TIP3    H145549   1.463   7.028   5.393  0.5101 -1.0900  1.5267
 7118TIP3    H245550   1.606   7.052   5.435  1.2907 -2.1032 -0.4114
 7119TIP3   OH245551   0.797   6.322   5.999 -0.0447  0.1493 -0.1892
 7119TIP3    H145552   0.841   6.361   6.074 -1.3219  0.9783  0.1572
 7119TIP3    H245553   0.816   6.228   6.006  2.8730  0.5761 -0.9029
 7120TIP3   OH245554   1.072   0.391   4.908 -0.5601  0.2225 -0.2464
 7120TIP3    H145555   1.116   0.320   4.954 -1.6916 -0.4087 -0.1132
 7120TIP3    H245556   1.059   0.459   4.974  1.2178  0.9200 -0.5492
 7121TIP3   OH245557   4.561   4.408   4.446  0.2327  0.1287  0.2449
 7121TIP3    H145558   4.465   4.404   4.446  0.1005  1.9868 -1.2411
 7121TIP3    H245559   4.586   4.371   4.530 -1.7908 -0.3295  0.7065
 7122TIP3   OH245560   3.010   5.822   4.434  0.1578 -0.1856  0.1373
 7122TIP3    H145561   3.050   5.767   4.502 -0.4582  0.8598  1.4052
 7122TIP3    H245562   2.916   5.820   4.454 -0.0084  0.3083 -0.5530
 7123TIP3   OH245563   4.918   4.053   4.746 -0.1121 -0.2569  0.2601
 7123TIP3    H145564   4.879   4.128   4.791  0.3201 -0.0126  0.2313
 7123TIP3    H245565   4.844   3.996   4.726 -0.8307  1.2803 -1.8801
 7124TIP3   OH245566   7.382   0.244   5.840  0.0327 -0.0948 -0.7470
 7124TIP3    H145567   7.332   0.316   5.803 -0.8417 -2.1206 -3.8694
 7124TIP3    H245568   7.346   0.231   5.927 -1.9530  1.2390 -1.3169
 7125TIP3   OH245569   0.242   7.524   5.549 -0.4224  0.7736 -0.5671
 7125TIP3    H145570   0.320   7.574   5.523  0.0719  1.0872  1.2986
 7125TIP3    H245571   0.249   7.442   5.502  0.5561  1.1687 -1.1391
 7126TIP3   OH245572   5.973   3.311   5.649 -0.3322 -0.0205  0.2773
 7126TIP3    H145573   6.003   3.281   5.735  1.5465 -2.4474 -1.1034
 7126TIP3    H245574   6.053   3.338   5.605 -0.4837 -3.1880 -2.2632
 7127TIP3   OH245575   7.162   0.460   6.030 -0.5397 -0.0023  0.4380
 7127TIP3    H145576   7.199   0.372   6.020 -0.4784 -0.1596  1.8835
 7127TIP3    H245577   7.224   0.517   5.984 -0.0079 -0.5955  0.4054
 7128TIP3   OH245578   0.929   2.273   4.301 -0.0673 -0.0781 -0.4599
 7128TIP3    H145579   0.918   2.356   4.254 -0.2255  0.5457  0.6461
 7128TIP3    H245580   0.977   2.217   4.240 -1.8115  0.0741 -2.0888
 7129TIP3   OH245581   0.358   0.127   6.455  0.1965  0.5463  0.5222
 7129TIP3    H145582   0.322   0.063   6.394 -0.7350  2.0886 -0.6276
 7129TIP3    H245583   0.419   0.077   6.509 -0.3948 -1.2606 -0.4016
 7130TIP3   OH245584   0.090   1.785   4.587  0.2845  0.2925 -0.3804
 7130TIP3    H145585   0.184   1.771   4.582  0.8270  3.1026  0.1933
 7130TIP3    H245586   0.077   1.832   4.670 -1.7767 -0.9658  0.0800
 7131TIP3   OH245587   0.608   1.392   4.221 -0.1218 -0.5341  0.4807
 7131TIP3    H145588   0.690   1.370   4.177 -0.5440  2.1225 -1.9647
 7131TIP3    H245589   0.543   1.335   4.179 -0.6010  2.2447 -3.1550
 7132TIP3   OH245590   2.732   4.514   5.098 -0.7689  0.1329 -0.2498
 7132TIP3    H145591   2.765   4.493   5.011  1.4931  1.1608  0.2837
 7132TIP3    H245592   2.800   4.481   5.158 -1.4016  1.0224  1.0098
 7133TIP3   OH245593   1.616   1.379   5.746 -0.3623  0.4640 -0.2407
 7133TIP3    H145594   1.709   1.400   5.734 -0.1536 -1.2126 -2.0150
 7133TIP3    H245595   1.617   1.298   5.797 -0.9211  1.1047  0.8166
 7134TIP3   OH245596   2.407   6.143   4.472  1.1844 -0.2658  0.6170
 7134TIP3    H145597   2.406   6.123   4.379  2.7210  2.5710 -0.0913
 7134TIP3    H245598   2.467   6.079   4.510  3.3284  0.6986 -0.9719
 7135TIP3   OH245599   0.524   7.317   4.343 -0.3192  0.3590  0.4376
 7135TIP3    H145600   0.585   7.286   4.276 -1.1399  1.3307 -0.8100
 7135TIP3    H245601   0.477   7.389   4.301  1.4566  3.3446  3.1086
 7136TIP3   OH245602   3.780   1.902   5.859  0.2858  0.1452  0.2534
 7136TIP3    H145603   3.696   1.928   5.822  0.6530  0.7445 -0.1786
 7136TIP3    H245604   3.757   1.840   5.928 -0.6050  1.4012  1.1355
 7137TIP3   OH245605   6.196   6.277   5.057  0.0242  0.3906  0.0221
 7137TIP3    H145606   6.199   6.193   5.011  0.9554  0.6263 -0.3753
 7137TIP3    H245607   6.162   6.339   4.993  0.9540  0.6431 -0.2380
 7138TIP3   OH245608   6.064   1.599   4.564  0.1965  0.3247  0.0577
 7138TIP3    H145609   6.049   1.566   4.652 -1.7466  0.1883 -0.2909
 7138TIP3    H245610   6.032   1.689   4.566  2.1284  1.0609  0.0309
 7139TIP3   OH245611   4.687   6.688   5.891  0.1273  0.2715  0.0370
 7139TIP3    H145612   4.592   6.683   5.885  0.2528 -0.6921 -1.9950
 7139TIP3    H245613   4.708   6.780   5.873 -0.4059  0.5588  0.8247
 7140TIP3   OH245614   6.241   5.027   5.373 -0.2362 -0.2659  0.3630
 7140TIP3    H145615   6.160   5.076   5.384  0.8137  1.3146  1.4914
 7140TIP3    H245616   6.262   4.995   5.461  1.0451  0.5471  0.3837
 7141TIP3   OH245617   4.947   2.354   5.862 -0.0487 -0.2004  0.5583
 7141TIP3    H145618   4.941   2.260   5.847  1.6383 -0.1053 -1.1320
 7141TIP3    H245619   5.026   2.364   5.915 -0.9118  0.1853  1.7876
 7142TIP3   OH245620   7.674   5.033   5.704 -0.0637 -0.1027 -0.3216
 7142TIP3    H145621   7.725   4.951   5.705 -0.8548 -0.5998  0.2658
 7142TIP3    H245622   7.679   5.065   5.794 -0.7956 -0.1700 -0.2518
 7143TIP3   OH245623   3.393   5.674   4.027  0.1797  0.0779  0.1074
 7143TIP3    H145624   3.484   5.655   4.047  0.7340 -2.0186 -3.5044
 7143TIP3    H245625   3.345   5.594   4.052 -0.4342  0.5678  0.5414
 7144TIP3   OH245626   1.963   4.049   4.180  0.0991  0.4346 -0.2261
 7144TIP3    H145627   1.955   4.081   4.090 -0.5361 -1.4772 -0.8936
 7144TIP3    H245628   1.898   4.098   4.229 -2.3860 -1.1847 -1.6519
 7145TIP3   OH245629   5.367   4.675   4.586 -0.3183  0.4451 -0.0190
 7145TIP3    H145630   5.353   4.667   4.492 -0.3018 -0.7036  0.0631
 7145TIP3    H245631   5.300   4.618   4.625  0.9202 -0.6385  0.5865
 7146TIP3   OH245632   6.099   5.241   5.701  0.4917  0.0843 -0.1887
 7146TIP3    H145633   6.161   5.168   5.708 -0.9094 -1.0629  0.9005
 7146TIP3    H245634   6.147   5.316   5.735  1.1586 -0.8692  1.0691
 7147TIP3   OH245635   7.253   7.596   4.175  0.6044 -0.1098 -0.1227
 7147TIP3    H145636   7.322   7.663   4.180 -0.6039  1.1881 -0.2768
 7147TIP3    H245637   7.299   7.513   4.190  2.4029  0.5841 -1.4944
 7148TIP3   OH245638   4.466   5.518   5.998 -0.2953  0.1002 -0.1312
 7148TIP3    H145639   4.561   5.521   5.997 -0.2559  1.1945  2.3891
 7148TIP3    H245640   4.445   5.446   6.058 -1.0672  0.1096 -0.3809
 7149TIP3   OH245641   4.473   0.045   4.067  0.2522  0.4388  0.1352
 7149TIP3    H145642   4.537   0.027   4.135  0.4341 -0.2250 -0.2102
 7149TIP3    H245643   4.466  -0.036   4.017  0.6083  1.1164 -1.0488
 7150TIP3   OH245644   2.735   5.977   3.851  0.3759 -0.1009  0.3757
 7150TIP3    H145645   2.682   6.031   3.910  1.1528 -0.7598  1.7386
 7150TIP3    H245646   2.688   5.893   3.848 -0.5131  0.4137 -1.2642
 7151TIP3   OH245647   4.337   5.448   4.976 -0.6196  0.2439 -0.1652
 7151TIP3    H145648   4.306   5.360   4.998 -1.0795  0.3201 -0.4836
 7151TIP3    H245649   4.293   5.506   5.039 -0.8855  0.3205 -0.4195
 7152TIP3   OH245650   7.273   1.568   4.138  0.1522 -0.2385 -0.0272
 7152TIP3    H145651   7.214   1.524   4.199 -0.2014 -1.1679 -1.0268
 7152TIP3    H245652   7.294   1.502   4.072 -1.3550  1.3919 -2.2726
 7153TIP3   OH245653   4.161   5.051   3.526 -0.2549  0.4074  1.2114
 7153TIP3    H145654   4.084   5.061   3.583 -1.3512  1.9950 -0.3996
 7153TIP3    H245655   4.133   5.090   3.443  1.0757 -2.2780 -0.6064
 7154TIP3   OH245656   7.680   3.527   4.863 -1.0315 -0.0714 -0.2113
 7154TIP3    H145657   7.741   3.595   4.889  0.1906 -2.0640  2.7150
 7154TIP3    H245658   7.595   3.570   4.863 -0.2024  1.6822  0.5027
 7155TIP3   OH245659   4.199   6.062   4.932  0.1984  0.0368 -0.2900
 7155TIP3    H145660   4.221   6.153   4.953  0.3426  0.2503 -1.2890
 7155TIP3    H245661   4.128   6.040   4.991 -1.3881  1.5686 -1.5049
 7156TIP3   OH245662   5.858   5.581   4.594  0.4865 -0.1324  0.0327
 7156TIP3    H145663   5.893   5.562   4.681  1.0949 -2.8648 -0.7323
 7156TIP3    H245664   5.793   5.512   4.578 -0.2155  0.7977 -1.3905
 7157TIP3   OH245665   3.020   5.617   5.518 -0.3016  0.3380 -0.1504
 7157TIP3    H145666   2.928   5.594   5.526 -0.3447  0.7156  0.6332
 7157TIP3    H245667   3.056   5.602   5.606  0.4980 -0.2748 -0.5660
 7158TIP3   OH245668   0.689   2.275   3.858 -0.4905 -0.1409  0.3941
 7158TIP3    H145669   0.665   2.255   3.768 -0.0393  0.3338  0.1607
 7158TIP3    H245670   0.744   2.201   3.885  0.9221  0.5766 -0.3615
 7159TIP3   OH245671   6.712   4.242   4.216 -0.6373  0.0423 -0.3255
 7159TIP3    H145672   6.752   4.328   4.230 -1.5407  0.5293 -0.6578
 7159TIP3    H245673   6.630   4.260   4.170 -0.7693 -1.0121 -0.5409
 7160TIP3   OH245674   2.566   0.608   4.474  0.3482  0.0185 -0.5878
 7160TIP3    H145675   2.579   0.524   4.431 -0.8365 -1.0460  1.0511
 7160TIP3    H245676   2.591   0.673   4.407  1.1343 -1.5932 -1.9297
 7161TIP3   OH245677   6.909   0.027   4.640  0.7913 -0.0158  0.1867
 7161TIP3    H145678   7.002   0.030   4.619  0.9481  2.4260  0.8787
 7161TIP3    H245679   6.880   0.118   4.632 -1.7508 -0.8121 -0.8306
 7162TIP3   OH245680   2.061   6.518   5.707  0.0784  0.5192  0.1765
 7162TIP3    H145681   2.039   6.611   5.712 -1.3706  0.1333  2.0120
 7162TIP3    H245682   2.102   6.498   5.791 -2.2078 -1.0393  1.0479
 7163TIP3   OH245683   5.934   2.546   4.485  0.2513 -0.3228  0.3393
 7163TIP3    H145684   5.998   2.520   4.418 -0.3139  0.6061 -0.5764
 7163TIP3    H245685   5.985   2.599   4.546  0.7342 -1.0277  0.5622
 7164TIP3   OH245686   4.747   4.515   4.284  0.7144  0.2226 -0.2331
 7164TIP3    H145687   4.821   4.469   4.324  0.3890  1.1658  1.5237
 7164TIP3    H245688   4.672   4.491   4.338  0.0038  0.5241 -1.0619
 7165TIP3   OH245689   5.486   4.000   3.625 -0.4834 -0.2943 -0.0081
 7165TIP3    H145690   5.418   4.067   3.624 -1.2791 -1.0828  0.1101
 7165TIP3    H245691   5.473   3.953   3.707  1.5867  0.8880  1.0893
 7166TIP3   OH245692   1.548   6.127   4.100  0.0308 -0.0998  0.1936
 7166TIP3    H145693   1.502   6.189   4.157  2.3281  1.0368  0.9432
 7166TIP3    H245694   1.579   6.181   4.027  1.2477 -0.5517  0.3653
 7167TIP3   OH245695   4.462   0.442   6.420  0.5223 -0.1520  0.4461
 7167TIP3    H145696   4.423   0.357   6.441 -0.6048  0.5256  1.2080
 7167TIP3    H245697   4.410   0.475   6.347  0.1676  0.4079  0.9447
 7168TIP3   OH245698   3.564   3.666   5.060 -0.0851 -0.3327 -0.5452
 7168TIP3    H145699   3.498   3.597   5.055 -0.4331 -0.0859  0.3922
 7168TIP3    H245700   3.630   3.642   4.995 -0.9961 -0.6894 -1.3548
 7169TIP3   OH245701   1.765   3.607   3.965 -0.3438  0.0386  0.3582
 7169TIP3    H145702   1.831   3.655   4.016 -1.3953  1.1353  0.7304
 7169TIP3    H245703   1.689   3.665   3.964 -2.0158 -1.9970  1.6210
 7170TIP3   OH245704   5.317   4.304   3.963  0.2955 -0.2114 -0.2774
 7170TIP3    H145705   5.383   4.374   3.961 -1.1211  1.2292  0.7552
 7170TIP3    H245706   5.244   4.339   3.912 -1.3212  0.0601  2.0632
 7171TIP3   OH245707   0.985   5.606   4.835 -0.4769 -0.0850  0.0060
 7171TIP3    H145708   1.014   5.663   4.763  0.0772  0.3112  0.5342
 7171TIP3    H245709   0.892   5.624   4.843 -0.8463 -1.1263 -1.5035
 7172TIP3   OH245710   4.103   1.985   6.075 -0.3268 -0.6072 -0.3192
 7172TIP3    H145711   4.106   2.064   6.128  0.1818 -0.7337 -0.1507
 7172TIP3    H245712   4.171   1.928   6.112  0.8988 -0.2174 -1.8486
 7173TIP3   OH245713   6.440   5.225   4.828  0.0922 -0.1241 -0.1803
 7173TIP3    H145714   6.394   5.209   4.746 -0.1655  0.2942 -0.1205
 7173TIP3    H245715   6.422   5.317   4.848  1.3960  0.2155 -0.4476
 7174TIP3   OH245716   6.452   6.429   5.228 -0.5042  0.1490 -0.7166
 7174TIP3    H145717   6.484   6.502   5.175 -1.8171  0.2613 -1.3675
 7174TIP3    H245718   6.365   6.457   5.257 -1.3265 -1.4372 -1.5641
 7175TIP3   OH245719   5.827   5.847   6.823 -0.5601  0.3486  0.1590
 7175TIP3    H145720   5.832   5.751   6.827 -0.9223  0.3477  0.7301
 7175TIP3    H245721   5.899   5.872   6.766 -0.8603 -0.3093 -0.5395
 7176TIP3   OH245722   4.336   6.700   6.388  0.2247  0.8522  0.2690
 7176TIP3    H145723   4.261   6.654   6.426  0.7344 -1.8481 -1.7043
 7176TIP3    H245724   4.413   6.653   6.422  0.8968  1.6611 -0.0889
 7177TIP3   OH245725   7.222   5.545   6.090 -0.4094  0.0406  0.5703
 7177TIP3    H145726   7.136   5.567   6.126 -1.3112 -1.3672 -0.5999
 7177TIP3    H245727   7.240   5.613   6.025 -0.3223  0.6914  1.2609
 7178TIP3   OH245728   4.545   4.719   6.124 -0.2161 -0.0521  0.2689
 7178TIP3    H145729   4.578   4.715   6.034 -0.9116 -0.3075  0.0215
 7178TIP3    H245730   4.562   4.632   6.159  1.8779  0.6144  1.0568
 7179TIP3   OH245731   5.443   1.296   4.526 -0.0774 -0.0044 -0.0688
 7179TIP3    H145732   5.425   1.389   4.539 -2.2850 -0.3550 -0.2627
 7179TIP3    H245733   5.398   1.274   4.445 -1.7313 -1.7741  1.2438
 7180TIP3   OH245734   2.207   1.784   3.891 -0.2667  0.2456  0.4132
 7180TIP3    H145735   2.139   1.742   3.838 -0.2647  1.1761 -0.3516
 7180TIP3    H245736   2.198   1.744   3.977  0.3142 -1.9727 -0.4761
 7181TIP3   OH245737   7.619   0.793   5.311  0.7135 -0.8066  0.0867
 7181TIP3    H145738   7.702   0.749   5.329  1.4375  0.5930  0.3395
 7181TIP3    H245739   7.593   0.760   5.225  1.2109 -1.7259  0.2785
 7182TIP3   OH245740   7.341   1.974   5.727  0.4868 -0.2200 -0.0216
 7182TIP3    H145741   7.322   2.053   5.778  3.4209  1.6235 -1.4865
 7182TIP3    H245742   7.313   1.996   5.638 -0.3452 -1.5763 -0.1098
 7183TIP3   OH245743   1.976   2.662   4.843  0.4088 -0.6077 -0.1051
 7183TIP3    H145744   1.985   2.567   4.837 -0.7570 -0.8716  1.5608
 7183TIP3    H245745   1.897   2.675   4.895 -0.5514  1.3236 -1.9322
 7184TIP3   OH245746   5.743   4.820   4.437  0.3230  0.7284  1.0455
 7184TIP3    H145747   5.733   4.910   4.467  1.5891  0.5589  2.0678
 7184TIP3    H245748   5.829   4.793   4.469  0.1379 -0.7185  0.4206
 7185TIP3   OH245749   1.248   4.018   6.007 -0.3338 -0.0646  0.0976
 7185TIP3    H145750   1.224   3.979   6.090  0.8263 -0.1057  0.4273
 7185TIP3    H245751   1.208   4.105   6.008 -1.5625 -0.6197  0.0495
 7186TIP3   OH245752   5.365   3.225   4.724  0.2330 -0.2526  0.5169
 7186TIP3    H145753   5.449   3.204   4.683  0.7811  0.4042  1.2709
 7186TIP3    H245754   5.367   3.177   4.807 -1.2381 -2.2746 -0.5344
 7187TIP3   OH245755   3.965   0.258   5.688 -0.2127  0.2642  0.9846
 7187TIP3    H145756   3.873   0.264   5.713 -0.1553  1.0585  1.0226
 7187TIP3    H245757   3.994   0.174   5.724 -1.0440 -0.2226  0.5528
 7188TIP3   OH245758   6.508   7.174   4.312  0.4191  0.4699  0.2671
 7188TIP3    H145759   6.576   7.229   4.274  0.2551  0.2829 -0.3102
 7188TIP3    H245760   6.556   7.103   4.355  0.5798  0.1325 -0.4632
 7189TIP3   OH245761   2.770   7.308   5.934 -0.3640 -0.3372 -0.2058
 7189TIP3    H145762   2.731   7.379   5.985 -0.3171  0.1436 -0.8195
 7189TIP3    H245763   2.699   7.279   5.875  0.0890  0.3408 -1.1185
 7190TIP3   OH245764   2.273   5.706   5.083  0.7597  0.1562 -0.2158
 7190TIP3    H145765   2.269   5.674   4.993  1.1896 -0.1582 -0.1278
 7190TIP3    H245766   2.235   5.636   5.135  0.1834  0.4888 -0.1884
 7191TIP3   OH245767   7.458   6.530   5.102  0.1000  0.1473 -0.3301
 7191TIP3    H145768   7.470   6.442   5.068  0.7726 -0.3795  1.2046
 7191TIP3    H245769   7.363   6.541   5.107 -0.0011 -0.0043 -1.7028
 7192TIP3   OH245770   7.418   5.434   5.133  0.6912  0.3440  0.2295
 7192TIP3    H145771   7.447   5.459   5.220  2.4026 -1.1059  0.1233
 7192TIP3    H245772   7.331   5.396   5.148  0.5534  0.9738  1.1488
 7193TIP3   OH245773   1.616   6.447   4.760  0.1483 -0.4794 -0.5310
 7193TIP3    H145774   1.647   6.416   4.675  3.1556  0.5930  0.0610
 7193TIP3    H245775   1.692   6.440   4.817 -1.5697 -0.3905  1.8990
 7194TIP3   OH245776   3.416   3.428   4.731  0.4309 -0.6121 -0.0574
 7194TIP3    H145777   3.375   3.357   4.781 -0.0885 -0.9782 -0.9782
 7194TIP3    H245778   3.349   3.454   4.668  1.3448 -0.7075 -1.0999
 7195TIP3   OH245779   3.616   6.486   5.008  0.0734 -0.2533  0.1361
 7195TIP3    H145780   3.650   6.425   5.074  0.4517 -0.8951 -0.6369
 7195TIP3    H245781   3.681   6.483   4.938  0.4237  1.5130  0.3324
 7196TIP3   OH245782   4.390   5.988   5.966  0.2320  0.2478 -0.2117
 7196TIP3    H145783   4.388   5.931   5.888 -0.7866 -0.3590  0.2367
 7196TIP3    H245784   4.299   5.990   5.996  0.6014  0.5247  0.9253
 7197TIP3   OH245785   5.274   6.843   6.520  0.0303  0.5553  0.2778
 7197TIP3    H145786   5.355   6.819   6.565 -0.0720 -0.0774  0.1328
 7197TIP3    H245787   5.221   6.888   6.587  0.6857  1.4049  0.2442
 7198TIP3   OH245788   2.338   0.501   6.804 -0.7409  0.2744 -0.4449
 7198TIP3    H145789   2.282   0.569   6.841  0.2754  1.1142 -0.3916
 7198TIP3    H245790   2.414   0.549   6.770  0.3827 -0.8907  0.3226
 7199TIP3   OH245791   4.133   6.075   5.681  0.2809  0.0430  0.2522
 7199TIP3    H145792   4.094   5.990   5.664 -1.0385  0.7012 -0.1400
 7199TIP3    H245793   4.150   6.076   5.776  2.2976 -1.4284 -0.0232
 7200TIP3   OH245794   1.524   1.905   3.941 -0.1849 -0.0299 -0.1351
 7200TIP3    H145795   1.559   1.823   3.975  1.0924 -0.3398 -2.0244
 7200TIP3    H245796   1.591   1.971   3.962  0.1483 -0.0430 -1.0704
 7201TIP3   OH245797   3.977   4.371   5.835  0.2678 -0.1969 -0.4407
 7201TIP3    H145798   3.985   4.299   5.772  0.7800 -0.9393  0.4582
 7201TIP3    H245799   4.023   4.340   5.913 -0.1808  0.7942  0.2317
 7202TIP3   OH245800   4.993   2.894   5.011  0.4633  0.1762 -0.4605
 7202TIP3    H145801   5.076   2.942   5.001 -0.3039  1.6028 -0.2452
 7202TIP3    H245802   4.935   2.934   4.946 -0.3304 -0.1673  0.0308
 7203TIP3   OH245803   2.041   0.088   4.328 -0.5034 -0.1239 -0.0698
 7203TIP3    H145804   2.041   0.105   4.422 -0.2634  2.7898 -0.5093
 7203TIP3    H245805   2.103   0.016   4.317  1.0193  0.7923  1.8619
 7204TIP3   OH245806   4.147   7.193   5.640  0.1747  0.3850 -0.5203
 7204TIP3    H145807   4.069   7.210   5.588 -1.2630 -1.2035  1.0258
 7204TIP3    H245808   4.213   7.166   5.577 -0.5752  1.4642 -1.8148
 7205TIP3   OH245809   2.268   6.330   5.057  0.3339 -0.2021 -0.6691
 7205TIP3    H145810   2.232   6.418   5.045  1.6726  0.3354 -0.9354
 7205TIP3    H245811   2.289   6.326   5.151  0.5835 -0.1106 -0.7204
 7206TIP3   OH245812   2.428   4.098   4.129  0.3336  0.0603 -0.1611
 7206TIP3    H145813   2.358   4.084   4.192 -1.2605  0.3042 -1.7876
 7206TIP3    H245814   2.435   4.193   4.122 -0.7312  0.0617 -1.5905
 7207TIP3   OH245815   7.677   4.339   3.903 -0.4161 -0.2624 -0.1902
 7207TIP3    H145816   7.676   4.245   3.918 -0.2865 -0.4043 -1.0346
 7207TIP3    H245817   7.759   4.356   3.857  0.2919  0.4882  1.2780
 7208TIP3   OH245818   2.227   7.012   5.318 -0.0267 -0.3091  0.0984
 7208TIP3    H145819   2.293   7.011   5.388  2.1493 -1.8132 -1.8131
 7208TIP3    H245820   2.212   7.104   5.300  0.1370  0.0922  1.8206
 7209TIP3   OH245821   7.469   0.067   4.247  0.2394 -0.1327  0.4217
 7209TIP3    H145822   7.544   0.021   4.209 -0.4852 -0.5776 -0.5007
 7209TIP3    H245823   7.474   0.156   4.212  0.4517 -0.1017  0.5306
 7210TIP3   OH245824   3.215   6.130   5.499  0.0472 -0.1907  0.4838
 7210TIP3    H145825   3.193   6.178   5.419 -1.5859 -0.6103  0.6526
 7210TIP3    H245826   3.175   6.044   5.488  2.1060 -1.2276  0.6152
 7211TIP3   OH245827   6.759   7.443   4.100  0.7140  0.0917 -0.1000
 7211TIP3    H145828   6.854   7.431   4.104  0.5675 -0.8418  0.9704
 7211TIP3    H245829   6.743   7.520   4.155  0.6746 -0.9859  1.4648
 7212TIP3   OH245830   3.053   4.736   5.287  0.1023 -0.0392 -0.1297
 7212TIP3    H145831   3.087   4.685   5.360  1.3630 -0.4438 -0.9690
 7212TIP3    H245832   2.989   4.678   5.245 -2.6759  1.1254  2.1118
 7213TIP3   OH245833   5.662   7.069   4.131 -0.2059  0.2620  0.1311
 7213TIP3    H145834   5.668   7.142   4.070 -2.3952  0.8576  0.5513
 7213TIP3    H245835   5.711   6.998   4.089  1.1910  1.6579 -0.7079
 7214TIP3   OH245836   2.839   2.257   5.795  0.3859 -0.4985 -1.1567
 7214TIP3    H145837   2.921   2.299   5.770  1.3161 -0.3659  1.7345
 7214TIP3    H245838   2.860   2.164   5.802  1.1507 -0.2164  2.0589
 7215TIP3   OH245839   6.945   0.529   5.177 -0.0124 -0.2389  0.1039
 7215TIP3    H145840   6.974   0.533   5.268  1.0675  1.2401 -0.2698
 7215TIP3    H245841   7.020   0.558   5.127 -0.1743 -2.2101 -1.3940
 7216TIP3   OH245842   7.096   1.109   6.373  0.3311  0.5394  0.0448
 7216TIP3    H145843   7.138   1.064   6.447  0.0733 -0.0382 -0.1558
 7216TIP3    H245844   7.021   1.054   6.351  0.1237  0.9705 -0.3301
 7217TIP3   OH245845   3.369   6.986   4.308  0.1434  0.2289 -0.0833
 7217TIP3    H145846   3.336   6.899   4.286 -2.2800  1.3290 -1.1523
 7217TIP3    H245847   3.411   7.016   4.227  2.4134 -0.4766  0.7514
 7218TIP3   OH245848   7.236   2.565   5.494 -0.0909 -0.1768  0.6896
 7218TIP3    H145849   7.273   2.491   5.447  0.2748  0.7373 -0.4944
 7218TIP3    H245850   7.302   2.634   5.488 -0.7347  0.5005  1.1229
 7219TIP3   OH245851   1.082   1.903   4.369 -0.1172 -0.4146 -0.0616
 7219TIP3    H145852   1.016   1.839   4.342  0.3219 -0.2509 -1.6101
 7219TIP3    H245853   1.039   1.955   4.437 -0.9958 -1.3823  0.1387
 7220TIP3   OH245854   4.339   2.613   3.915 -0.2480  0.0018  0.2399
 7220TIP3    H145855   4.434   2.601   3.904 -0.0062 -0.5176  2.4610
 7220TIP3    H245856   4.309   2.530   3.951 -1.0745  1.0500  2.1015
 7221TIP3   OH245857   5.362   6.293   5.644  0.5795 -0.7439  0.2434
 7221TIP3    H145858   5.350   6.227   5.576  0.3717  0.4959 -0.9915
 7221TIP3    H245859   5.429   6.257   5.701  3.2534 -0.5172 -2.4702
 7222TIP3   OH245860   1.190   3.573   4.973  0.2662  0.4628  0.2015
 7222TIP3    H145861   1.126   3.557   4.904 -0.1373  0.5368  0.5582
 7222TIP3    H245862   1.145   3.550   5.054  0.4107  1.2904  0.5276
 7223TIP3   OH245863   7.339   3.033   5.974 -0.2453  0.3507  0.3595
 7223TIP3    H145864   7.429   3.033   6.006 -0.0739  0.8820 -0.1157
 7223TIP3    H245865   7.321   3.124   5.954 -1.1382  0.3652  1.1335
 7224TIP3   OH245866   5.288   1.761   6.231  0.0929  0.2828  0.3214
 7224TIP3    H145867   5.367   1.722   6.194 -1.4698 -1.8969 -0.9564
 7224TIP3    H245868   5.251   1.694   6.288 -1.1660  0.9877  0.3905
 7225TIP3   OH245869   7.666   6.193   5.939 -0.6356  0.1596 -0.2942
 7225TIP3    H145870   7.595   6.130   5.938 -0.6440  0.1181  1.2682
 7225TIP3    H245871   7.746   6.140   5.935 -0.6609  0.0794  0.1727
 7226TIP3   OH245872   5.138   6.576   4.443  0.2602  0.0948  0.5144
 7226TIP3    H145873   5.143   6.490   4.401  1.4117 -0.5257  1.8279
 7226TIP3    H245874   5.146   6.638   4.371  0.9785 -0.9129 -0.3116
 7227TIP3   OH245875   2.943   6.484   3.752 -0.4277 -0.1424 -0.3926
 7227TIP3    H145876   2.920   6.454   3.841  0.1637 -0.9465 -0.4964
 7227TIP3    H245877   2.976   6.405   3.709 -1.3540  0.0924 -1.5554
 7228TIP3   OH245878   6.240   3.218   5.202 -0.7381  0.8192  0.4623
 7228TIP3    H145879   6.291   3.168   5.265  0.5107 -0.8945 -1.7440
 7228TIP3    H245880   6.295   3.293   5.180 -1.2093  1.4613  1.4165
 7229TIP3   OH245881   1.427   3.908   3.648 -0.1293  0.2546  0.1769
 7229TIP3    H145882   1.372   3.929   3.723  0.8376  1.7644  0.5066
 7229TIP3    H245883   1.424   3.987   3.593 -0.6651 -0.7409 -1.3163
 7230TIP3   OH245884   3.651   5.477   4.659 -0.1163 -0.2926  0.0370
 7230TIP3    H145885   3.666   5.437   4.573 -0.1426  0.6375 -0.4213
 7230TIP3    H245886   3.691   5.564   4.651 -0.3311 -0.1125  0.8910
 7231TIP3   OH245887   1.252   7.467   6.688  0.5470 -0.4609  0.5425
 7231TIP3    H145888   1.294   7.382   6.703  0.2717 -0.5724  0.7003
 7231TIP3    H245889   1.158   7.446   6.683  0.5508 -0.3097 -0.4536
 7232TIP3   OH245890   6.326   1.301   5.135  0.0253  0.1744 -0.2845
 7232TIP3    H145891   6.243   1.254   5.129  1.8529 -3.6852  1.6385
 7232TIP3    H245892   6.372   1.260   5.208  3.0020  3.3037 -0.1478
 7233TIP3   OH245893   7.509   4.839   6.573  0.1688  0.1446 -0.3177
 7233TIP3    H145894   7.462   4.882   6.645  2.0103 -0.1920  1.1538
 7233TIP3    H245895   7.581   4.898   6.553  1.3782 -1.1275  0.1536
 7234TIP3   OH245896   7.044   2.945   6.553 -0.0779 -0.3851  0.2801
 7234TIP3    H145897   7.013   2.990   6.474  1.4942  0.6773  0.2047
 7234TIP3    H245898   6.965   2.912   6.595 -1.0957  0.5110 -0.8542
 7235TIP3   OH245899   6.104   3.926   4.751 -0.6068  0.6599  0.9007
 7235TIP3    H145900   6.050   3.848   4.736  0.3479  0.3701 -1.4073
 7235TIP3    H245901   6.194   3.897   4.732 -0.2163  2.2731  0.1316
 7236TIP3   OH245902   4.618   1.291   5.748 -0.7858  0.3917  0.5658
 7236TIP3    H145903   4.589   1.341   5.824  0.7649 -0.5883  1.8740
 7236TIP3    H245904   4.713   1.285   5.757 -0.5428  0.3134 -1.5188
 7237TIP3   OH245905   1.132   0.857   4.332  0.1181 -0.1134 -0.0195
 7237TIP3    H145906   1.157   0.824   4.419 -1.5948 -0.9272  0.1989
 7237TIP3    H245907   1.124   0.778   4.278 -0.9097  0.1916 -0.3384
 7238TIP3   OH245908   1.650   6.564   4.052  0.3587 -0.1713 -0.1579
 7238TIP3    H145909   1.610   6.612   3.979 -0.9531  1.1536  1.3408
 7238TIP3    H245910   1.576   6.521   4.096  1.2907 -2.0468 -0.3469
 7239TIP3   OH245911   3.879   6.398   5.837 -0.7997  0.2977  0.5114
 7239TIP3    H145912   3.798   6.352   5.816 -0.7698  0.3347  0.3109
 7239TIP3    H245913   3.859   6.448   5.916 -0.1638 -1.8503  2.1162
 7240TIP3   OH245914   3.958   0.767   4.432  0.2884 -0.3688 -0.0969
 7240TIP3    H145915   3.942   0.804   4.519 -0.5691  0.5235 -0.6127
 7240TIP3    H245916   4.021   0.826   4.391  1.1233 -1.0972  0.1025
 7241TIP3   OH245917   1.558   6.713   4.869  0.1996  0.1353  0.5981
 7241TIP3    H145918   1.492   6.666   4.920  0.8405 -0.1904  1.1409
 7241TIP3    H245919   1.619   6.644   4.840  2.5340  0.7818  3.4148
 7242TIP3   OH245920   0.528   6.123   5.300  0.4652  0.7670 -0.3852
 7242TIP3    H145921   0.482   6.107   5.382  0.4647 -2.3129 -0.8749
 7242TIP3    H245922   0.571   6.208   5.313 -0.4196  0.8939  2.3525
 7243TIP3   OH245923   2.715   1.389   5.513  0.6983 -0.1102  0.2545
 7243TIP3    H145924   2.732   1.473   5.555  1.1987  0.8970 -1.8056
 7243TIP3    H245925   2.699   1.412   5.421 -0.9215 -2.1089 -0.0340
 7244TIP3   OH245926   7.357   3.148   5.025 -0.5683 -0.5134 -0.6996
 7244TIP3    H145927   7.428   3.190   5.073 -0.8125 -1.4756  0.5715
 7244TIP3    H245928   7.279   3.162   5.079 -1.3471  0.4017 -1.9966
 7245TIP3   OH245929   4.019   2.060   5.832  0.1975 -0.4519  0.3264
 7245TIP3    H145930   3.939   2.012   5.852 -0.8312  0.8107 -0.5409
 7245TIP3    H245931   4.083   2.031   5.897 -0.6958 -2.1271  0.5027
 7246TIP3   OH245932   2.180   3.105   4.478  0.2714  0.4325  0.2206
 7246TIP3    H145933   2.182   3.059   4.394 -0.0903 -0.2450  0.5708
 7246TIP3    H245934   2.268   3.141   4.488  0.0707  1.2555 -0.8453
 7247TIP3   OH245935   1.534   4.237   4.768 -0.4009 -0.0123 -0.0032
 7247TIP3    H145936   1.619   4.277   4.791 -0.2210 -1.6255  2.6348
 7247TIP3    H245937   1.556   4.147   4.747 -1.1508  0.3788 -2.8914
 7248TIP3   OH245938   3.013   3.924   5.604 -0.9424  0.4918 -0.2866
 7248TIP3    H145939   3.060   3.870   5.541 -1.3355  1.1561 -1.1723
 7248TIP3    H245940   2.945   3.867   5.639 -1.8111  0.5834 -1.7391
 7249TIP3   OH245941   7.463   2.517   5.092 -0.2084  0.1224 -0.1654
 7249TIP3    H145942   7.530   2.559   5.147 -1.6534  1.3688  0.7184
 7249TIP3    H245943   7.497   2.525   5.003  0.6168  1.1384  0.2167
 7250TIP3   OH245944   1.415   0.555   4.873  0.1517  0.6670 -0.5492
 7250TIP3    H145945   1.385   0.536   4.962  1.0008  1.7346 -0.0065
 7250TIP3    H245946   1.436   0.470   4.836  0.9072  0.2820  0.6976
 7251TIP3   OH245947   7.006   7.556   5.353 -0.0020  0.6625 -0.0395
 7251TIP3    H145948   7.081   7.616   5.349  0.7989 -0.2985  0.2245
 7251TIP3    H245949   6.990   7.544   5.447  0.3928 -0.1951 -0.0753
 7252TIP3   OH245950   2.829   6.012   4.588 -0.0957 -0.0881  0.1990
 7252TIP3    H145951   2.755   5.952   4.591 -0.9632  0.9880  0.6723
 7252TIP3    H245952   2.810   6.078   4.655  0.6603  0.9167 -0.5474
 7253TIP3   OH245953   2.476   1.731   4.704  0.6982 -0.0247 -0.5914
 7253TIP3    H145954   2.494   1.662   4.640  1.2791  1.0183 -1.5956
 7253TIP3    H245955   2.558   1.738   4.754 -0.0632 -1.4901  0.9652
 7254TIP3   OH245956   6.004   3.361   4.028 -0.2376  0.0038 -0.5403
 7254TIP3    H145957   5.945   3.365   4.103  0.6257 -0.5683  0.2029
 7254TIP3    H245958   6.082   3.316   4.062  0.2002 -0.1966 -1.7645
 7255TIP3   OH245959   3.773   5.021   4.143  0.3786  0.1070 -0.1084
 7255TIP3    H145960   3.806   4.932   4.152  3.9464  1.2156 -0.5245
 7255TIP3    H245961   3.748   5.046   4.232  1.4025 -0.6551  0.4192
 7256TIP3   OH245962   4.441   1.522   4.135  0.1008 -0.4865  0.3452
 7256TIP3    H145963   4.372   1.559   4.079 -0.6100  0.3364  1.7038
 7256TIP3    H245964   4.508   1.590   4.137 -1.6313  1.3655  3.6324
 7257TIP3   OH245965   1.889   1.287   3.772 -0.0220 -0.4943  0.0640
 7257TIP3    H145966   1.850   1.351   3.831  0.5444  0.2506 -0.3520
 7257TIP3    H245967   1.981   1.314   3.765  0.1428 -1.1539 -0.3834
 7258TIP3   OH245968   2.621   1.469   5.267  0.0848  0.8005 -0.3855
 7258TIP3    H145969   2.550   1.450   5.205  0.1745  0.3439 -0.3521
 7258TIP3    H245970   2.701   1.445   5.220  0.0488 -1.3885  0.5567
 7259TIP3   OH245971   2.352   2.372   4.745 -0.1490 -0.3769  0.9424
 7259TIP3    H145972   2.397   2.338   4.668 -1.9839 -0.9863  0.0864
 7259TIP3    H245973   2.372   2.466   4.745 -0.4865 -0.2767 -0.5511
 7260TIP3   OH245974   6.176   2.263   4.500 -0.2226  0.7317  0.1666
 7260TIP3    H145975   6.268   2.272   4.523  0.0398  2.7527 -1.3381
 7260TIP3    H245976   6.171   2.294   4.410 -2.4619  1.2928  0.4264
 7261TIP3   OH245977   6.552   6.253   4.192 -0.0877  0.1158  0.9418
 7261TIP3    H145978   6.493   6.328   4.184 -0.5770 -0.4429 -3.0401
 7261TIP3    H245979   6.610   6.260   4.116  0.2384 -3.1756  0.7206
 7262TIP3   OH245980   7.478   3.553   4.203 -0.0599 -0.0802 -0.2127
 7262TIP3    H145981   7.417   3.552   4.130  1.3093 -0.1917 -1.4155
 7262TIP3    H245982   7.481   3.462   4.234 -0.3486 -0.1102 -0.2725
 7263TIP3   OH245983   4.062   6.440   4.786  0.0373 -0.5311  0.6768
 7263TIP3    H145984   4.084   6.409   4.874  2.1220 -2.9433 -0.5738
 7263TIP3    H245985   4.146   6.449   4.742 -0.8485  2.2466 -0.6637
 7264TIP3   OH245986   1.295   4.775   5.912  0.0889 -0.6376 -0.7980
 7264TIP3    H145987   1.363   4.842   5.921 -2.4491  2.1804 -1.0235
 7264TIP3    H245988   1.299   4.726   5.994  0.7813  1.0796  0.2558
 7265TIP3   OH245989   6.723   7.298  12.252  0.3798 -0.0001  0.6493
 7265TIP3    H145990   6.760   7.380  12.284  0.0845  0.2119  0.4522
 7265TIP3    H245991   6.778   7.230  12.292 -0.9845  0.1588  2.9563
 7266TIP3   OH245992   6.866   4.435   4.338  0.0515 -0.3896  0.1018
 7266TIP3    H145993   6.869   4.362   4.400 -0.2594  0.9530  1.7808
 7266TIP3    H245994   6.950   4.479   4.348 -0.4917  0.5863  0.5620
 7267TIP3   OH245995   7.628   1.562   5.807 -0.3796 -0.2530 -0.5226
 7267TIP3    H145996   7.541   1.579   5.771 -1.1939  0.1942  1.5611
 7267TIP3    H245997   7.627   1.600   5.894  1.3484 -1.7066  0.2154
 7268TIP3   OH245998   0.526   6.278   4.346 -0.1838  0.2672  0.3704
 7268TIP3    H145999   0.441   6.281   4.301  0.2944 -1.3540 -0.7575
 7268TIP3    H246000   0.582   6.228   4.286  1.4048  0.8092  1.3659
 7269TIP3   OH246001   3.240   0.205   6.095  0.1074 -0.2232  0.3250
 7269TIP3    H146002   3.329   0.169   6.085  0.1715 -0.3597  1.3019
 7269TIP3    H246003   3.202   0.155   6.167 -0.5802  0.2113  0.2742
 7270TIP3   OH246004   4.734   6.636   5.441 -0.3317 -0.2047  0.3600
 7270TIP3    H146005   4.735   6.576   5.516 -1.1018 -1.6386 -0.7431
 7270TIP3    H246006   4.790   6.595   5.376  0.1341  0.9177  0.0209
 7271TIP3   OH246007   5.797   3.372   3.849  0.1129  0.1650 -0.1874
 7271TIP3    H146008   5.820   3.406   3.763 -1.3134 -2.5431 -1.7905
 7271TIP3    H246009   5.875   3.386   3.902  0.6366  3.0063 -1.4856
 7272TIP3   OH246010   2.020   4.553   5.781  0.3611 -0.5642  0.2786
 7272TIP3    H146011   2.086   4.611   5.745 -0.6375  1.7752  1.9260
 7272TIP3    H246012   1.946   4.560   5.720  0.5882 -0.9015 -0.0397
 7273TIP3   OH246013   1.794   7.238   4.495  0.3919  0.2591 -0.6051
 7273TIP3    H146014   1.791   7.333   4.498 -0.1384  0.2092  0.7925
 7273TIP3    H246015   1.886   7.217   4.477  0.6308  1.0089 -0.2659
 7274TIP3   OH246016   5.772   4.596   6.099  0.5325  0.3701 -0.2580
 7274TIP3    H146017   5.704   4.572   6.162  0.4513  1.5147  0.1194
 7274TIP3    H246018   5.770   4.526   6.034  1.1665 -1.2792  1.3957
 7275TIP3   OH246019   7.249   7.216   4.036  0.0222 -0.2974 -0.2220
 7275TIP3    H146020   7.341   7.243   4.045  0.4908 -1.9988  0.6325
 7275TIP3    H246021   7.254   7.121   4.029 -1.7946 -0.6690  2.2291
 7276TIP3   OH246022   6.684   5.885   5.315  0.1780  0.7385  0.4272
 7276TIP3    H146023   6.605   5.934   5.292  0.0545 -0.1938 -1.3390
 7276TIP3    H246024   6.754   5.950   5.314 -0.1770  1.1322 -0.6662
 7277TIP3   OH246025   5.607   7.358   6.626 -0.1233  0.1734  0.6809
 7277TIP3    H146026   5.554   7.424   6.669 -0.5740 -0.9288  1.8617
 7277TIP3    H246027   5.555   7.331   6.550  0.3279  1.5558 -0.1621
 7278TIP3   OH246028   1.519   0.754   5.354  0.1325 -0.5368  0.2560
 7278TIP3    H146029   1.434   0.776   5.315  0.6531  1.1328 -0.0066
 7278TIP3    H246030   1.497   0.692   5.424 -1.3349  0.0304  0.3512
 7279TIP3   OH246031   0.416   7.161   6.114  0.1182 -0.1953 -0.4714
 7279TIP3    H146032   0.428   7.113   6.032 -1.5037 -0.4037 -0.6209
 7279TIP3    H246033   0.324   7.186   6.114  0.2874  0.5340  0.9046
 7280TIP3   OH246034   3.904   3.130   5.831  0.3887  0.1647  0.5722
 7280TIP3    H146035   3.811   3.116   5.812  0.9728 -1.7044 -1.2026
 7280TIP3    H246036   3.905   3.211   5.883 -2.3454 -0.6050  2.0469
 7281TIP3   OH246037   3.905   3.971   4.702  0.0033  0.0742  0.5207
 7281TIP3    H146038   3.991   3.948   4.665 -0.8517 -1.2667 -0.7468
 7281TIP3    H246039   3.864   4.026   4.635 -1.4546 -2.1462 -0.5290
 7282TIP3   OH246040   6.950   4.885   6.217 -0.0432  0.5022  0.1092
 7282TIP3    H146041   6.992   4.846   6.293  0.2591 -0.2593 -0.4379
 7282TIP3    H246042   6.867   4.919   6.250 -0.3014 -0.5914  0.6148
 7283TIP3   OH246043   1.362   5.674   5.620  0.1392 -0.1293 -0.0474
 7283TIP3    H146044   1.436   5.614   5.613  0.7355  0.3938  1.4606
 7283TIP3    H246045   1.285   5.616   5.626  0.8175 -0.9176  3.0419
 7284TIP3   OH246046   5.681   6.779   5.107 -0.2330  0.6081  0.0989
 7284TIP3    H146047   5.626   6.705   5.080 -1.7738  0.8234  2.3806
 7284TIP3    H246048   5.619   6.846   5.137  1.1985  1.4039  1.4442
 7285TIP3   OH246049   3.265   4.290   5.825  0.1957 -0.1260  0.2153
 7285TIP3    H146050   3.198   4.323   5.885 -1.6455 -1.6432 -0.8818
 7285TIP3    H246051   3.251   4.339   5.744  1.4447  0.6033  0.4189
 7286TIP3   OH246052   7.409   5.958   4.155  0.3597 -0.0830 -0.2480
 7286TIP3    H146053   7.336   6.002   4.199 -0.5608 -1.8332  0.0591
 7286TIP3    H246054   7.475   6.026   4.144 -0.4417  1.0363  1.4647
 7287TIP3   OH246055   1.066   3.289   4.052 -0.5541  0.2834  0.5096
 7287TIP3    H146056   1.040   3.235   4.126  0.9819  1.6087  2.0895
 7287TIP3    H246057   1.133   3.236   4.007 -2.4280 -1.0948 -0.7993
 7288TIP3   OH246058   1.091   1.726   5.437 -0.5190  0.4125  0.0059
 7288TIP3    H146059   1.038   1.715   5.358 -2.1354  1.3118  0.8952
 7288TIP3    H246060   1.143   1.804   5.420 -1.8423  1.4004  0.2854
 7289TIP3   OH246061   0.654   4.480   3.591  0.5346 -0.5174  0.0634
 7289TIP3    H146062   0.615   4.400   3.554  2.0749 -1.1563 -0.2576
 7289TIP3    H246063   0.633   4.476   3.684  0.0602 -0.9693 -0.0578
 7290TIP3   OH246064   6.710   3.493   4.424 -0.1111 -0.0910 -0.8875
 7290TIP3    H146065   6.683   3.476   4.334 -0.9548  0.3220 -0.7193
 7290TIP3    H246066   6.773   3.423   4.443  0.7755  0.3522 -2.0848
 7291TIP3   OH246067   5.403   4.790   6.209  0.3389  0.9276  0.2230
 7291TIP3    H146068   5.412   4.848   6.134 -1.4707  0.6853 -0.2180
 7291TIP3    H246069   5.312   4.761   6.207  0.8192 -0.8339  1.2355
 7292TIP3   OH246070   3.511   1.949   5.836  0.1124  0.4887 -0.0946
 7292TIP3    H146071   3.455   1.954   5.914  0.2216  2.1066 -0.0960
 7292TIP3    H246072   3.472   2.011   5.774  0.9672  0.4283 -0.7134
 7293TIP3   OH246073   3.480   2.460   5.683 -0.1577  0.0558 -0.3337
 7293TIP3    H146074   3.451   2.465   5.592 -1.0632 -0.2010 -0.0659
 7293TIP3    H246075   3.436   2.533   5.727 -0.1809 -0.1678  0.0179
 7294TIP3   OH246076   3.460   0.348   5.478  0.0049  0.4803  0.3462
 7294TIP3    H146077   3.474   0.408   5.551 -2.3340 -2.2992  3.3283
 7294TIP3    H246078   3.497   0.265   5.507 -2.5843 -1.2013 -0.7810
 7295TIP3   OH246079   5.035   0.462   5.815 -0.2319  0.5457 -0.3327
 7295TIP3    H146080   5.090   0.474   5.892  0.2686  0.4321 -0.6675
 7295TIP3    H246081   4.946   0.457   5.850 -0.0820  1.2264  0.1652
 7296TIP3   OH246082   3.507   3.776   3.694  0.3457 -0.1021 -0.7944
 7296TIP3    H146083   3.550   3.852   3.657  0.5973  0.0721 -0.1556
 7296TIP3    H246084   3.425   3.768   3.645  0.4601  0.3978 -1.0691
 7297TIP3   OH246085   4.163   3.534   4.381 -0.0930 -0.2377 -0.3723
 7297TIP3    H146086   4.207   3.614   4.352 -0.4604  0.4950  0.9790
 7297TIP3    H246087   4.228   3.490   4.437  0.3211 -1.2195 -1.5699
 7298TIP3   OH246088   2.675   0.734   4.885 -0.0527  0.0930 -0.6075
 7298TIP3    H146089   2.701   0.776   4.967  1.5054 -0.5261 -0.7480
 7298TIP3    H246090   2.699   0.797   4.817  2.9428 -1.1819 -0.8712
 7299TIP3   OH246091   3.287   5.398   4.077  0.2456  0.2687  0.6750
 7299TIP3    H146092   3.376   5.379   4.106 -0.0293 -1.5152  0.4655
 7299TIP3    H246093   3.278   5.351   3.994 -1.2039 -0.4191  1.1844
 7300TIP3   OH246094   6.654   6.461   3.686  0.9969 -0.1702 -0.5386
 7300TIP3    H146095   6.737   6.473   3.639  0.6063 -0.0912 -1.2052
 7300TIP3    H246096   6.623   6.375   3.658 -0.6642  1.0424 -2.6759
 7301TIP3   OH246097   3.483   7.400   4.583  0.0976 -0.2543 -0.3925
 7301TIP3    H146098   3.425   7.456   4.635  0.0209 -0.3635 -0.3602
 7301TIP3    H246099   3.564   7.451   4.574 -0.4137  0.4016 -1.4445
 7302TIP3   OH246100   2.945   2.971   4.390 -0.1236  0.1478  0.5068
 7302TIP3    H146101   2.995   2.927   4.321 -0.7052  0.4807 -0.1395
 7302TIP3    H246102   2.881   3.025   4.342 -0.5374  0.3753  1.3068
 7303TIP3   OH246103   2.980   3.966   4.714  0.5339 -0.2627  0.3079
 7303TIP3    H146104   3.021   4.041   4.757 -3.4683  2.9382 -0.8690
 7303TIP3    H246105   2.987   3.986   4.620 -2.0131 -0.4548  0.0321
 7304TIP3   OH246106   5.944   2.508   5.089  0.2397 -0.0726 -0.2143
 7304TIP3    H146107   6.002   2.584   5.094 -0.9783  0.9456 -0.8331
 7304TIP3    H246108   5.873   2.536   5.032 -0.4385 -1.5695 -0.1621
 7305TIP3   OH246109   7.256   6.820   5.913 -0.6237 -0.0301 -0.6502
 7305TIP3    H146110   7.188   6.883   5.939  0.3014  0.9287 -0.4784
 7305TIP3    H246111   7.309   6.807   5.992  0.3683  0.5214 -1.2053
 7306TIP3   OH246112   7.647   5.821   5.023 -0.3981 -0.2536 -0.3155
 7306TIP3    H146113   7.667   5.729   5.004  1.1386 -0.1676  0.6969
 7306TIP3    H246114   7.723   5.869   4.992 -1.1818  0.7056 -0.8173
 7307TIP3   OH246115   2.999   7.487   4.708 -0.0614 -0.1795 -0.1704
 7307TIP3    H146116   2.979   7.407   4.660  0.4384 -1.2852  1.4218
 7307TIP3    H246117   3.060   7.461   4.776 -1.0315  1.2641  1.3342
 7308TIP3   OH246118   1.535   2.041   5.551 -0.3518 -0.2406  0.4670
 7308TIP3    H146119   1.470   1.973   5.536  1.0995 -1.3160 -1.3768
 7308TIP3    H246120   1.617   1.994   5.568  0.6763  0.9697 -0.7659
 7309TIP3   OH246121   1.078   2.946   4.652  0.0535  0.0220  0.5441
 7309TIP3    H146122   1.155   2.949   4.708 -0.1127  1.3950  0.7297
 7309TIP3    H246123   1.083   3.027   4.600 -1.4444  0.3302  0.8333
 7310TIP3   OH246124   3.217   1.137   5.119  0.5581 -0.4007 -0.3569
 7310TIP3    H146125   3.305   1.136   5.082  1.3504  3.8093  0.9462
 7310TIP3    H246126   3.227   1.098   5.206  1.2695  0.5790  0.0068
 7311TIP3   OH246127   1.423   6.167   4.875  0.4381  0.0105  0.4779
 7311TIP3    H146128   1.478   6.241   4.849 -1.1136  1.3560  0.8754
 7311TIP3    H246129   1.414   6.175   4.970  1.8614 -1.8881  0.8296
 7312TIP3   OH246130   7.529   5.244   3.944 -0.0213  0.2623  0.3080
 7312TIP3    H146131   7.532   5.192   3.864 -1.7148 -0.6066  0.7634
 7312TIP3    H246132   7.461   5.203   3.997  0.2450  1.5292  1.7068
 7313TIP3   OH246133   0.444   2.798   5.230 -0.5536  0.3745 -0.0393
 7313TIP3    H146134   0.520   2.814   5.174 -0.7958  2.6054  0.1694
 7313TIP3    H246135   0.390   2.876   5.219 -2.1223 -0.5221  0.9423
 7314TIP3   OH246136   4.354   1.805   5.412  0.0867  0.1185  0.1141
 7314TIP3    H146137   4.264   1.783   5.385  0.0203  2.0931 -1.5595
 7314TIP3    H246138   4.352   1.900   5.424  1.6652  0.0246  1.3344
 7315TIP3   OH246139   3.783   3.363   4.854 -0.7734 -0.0448 -0.0214
 7315TIP3    H146140   3.846   3.314   4.908 -0.4555  0.5095  0.1258
 7315TIP3    H246141   3.697   3.339   4.889 -0.5595  0.5411  0.9453
 7316TIP3   OH246142   2.923   5.458   4.557  0.1857  0.1601  0.0829
 7316TIP3    H146143   2.878   5.538   4.530  0.5066 -0.1831 -1.6365
 7316TIP3    H246144   2.854   5.402   4.593 -0.9287 -0.4295 -2.6425
 7317TIP3   OH246145   2.736   4.452   4.824  0.5093  0.0816 -0.4745
 7317TIP3    H146146   2.725   4.366   4.783 -0.7401 -0.2809  0.5667
 7317TIP3    H246147   2.731   4.514   4.751  0.9848 -0.6864 -1.1867
 7318TIP3   OH246148   3.043   2.073   4.239  0.3836  0.0589  0.3739
 7318TIP3    H146149   3.133   2.094   4.261  0.2635 -1.1609  2.3061
 7318TIP3    H246150   3.046   2.039   4.149  2.3276 -2.4955  1.2853
 7319TIP3   OH246151   3.364   2.246   6.324 -0.5182  0.0193  0.1905
 7319TIP3    H146152   3.269   2.251   6.337 -0.5928 -1.0875  0.1785
 7319TIP3    H246153   3.392   2.173   6.380  0.5323  1.1560  1.1992
 7320TIP3   OH246154   3.056   5.557   3.869 -0.1291 -0.0976  0.1507
 7320TIP3    H146155   3.050   5.464   3.848  0.2318 -0.0305 -0.2876
 7320TIP3    H246156   3.049   5.561   3.964  1.2018 -0.7055  0.3028
 7321TIP3   OH246157   4.446   4.685   4.404  0.2005 -0.3445 -0.2071
 7321TIP3    H146158   4.502   4.611   4.425  1.0019  0.7977  1.9911
 7321TIP3    H246159   4.359   4.646   4.390  0.9907 -1.8624 -1.1212
 7322TIP3   OH246160   2.699   6.263   3.746 -0.2302 -0.1116  0.2727
 7322TIP3    H146161   2.690   6.183   3.693  1.7964 -0.4743  0.3745
 7322TIP3    H246162   2.739   6.233   3.828  0.4295  0.9747  0.3725
 7323TIP3   OH246163   6.884   5.523   4.216  0.0759  0.3216 -0.7506
 7323TIP3    H146164   6.819   5.494   4.152 -0.3025  0.0364 -0.2464
 7323TIP3    H246165   6.866   5.470   4.294  0.2827  0.9315 -0.2782
 7324TIP3   OH246166   7.427   5.717   6.225  0.2835  0.1938  0.2439
 7324TIP3    H146167   7.446   5.722   6.132 -1.2126 -0.8470 -0.1453
 7324TIP3    H246168   7.350   5.661   6.232 -1.1582  2.2159  1.8990
 7325TIP3   OH246169   4.090   2.877   4.351  0.1696  0.4204 -0.0438
 7325TIP3    H146170   4.043   2.869   4.434 -2.8072  2.7122 -1.3318
 7325TIP3    H246171   4.161   2.940   4.370  1.6329 -1.5393  1.4309
 7326TIP3   OH246172   5.933   3.361   4.781 -0.0708  0.4448 -0.5071
 7326TIP3    H146173   5.991   3.417   4.832  0.7505 -0.6013 -0.2655
 7326TIP3    H246174   5.845   3.382   4.813  0.4144 -0.1532  1.3462
 7327TIP3   OH246175   5.954   6.351   5.726 -0.5025 -0.3416 -1.1907
 7327TIP3    H146176   5.996   6.325   5.644  1.1162  1.0850 -0.8855
 7327TIP3    H246177   5.986   6.440   5.741 -1.4221 -0.2774  0.5815
 7328TIP3   OH246178   7.254   4.778   5.072  0.1214  0.1144  0.1115
 7328TIP3    H146179   7.249   4.754   4.980  0.7145 -2.6415  0.7324
 7328TIP3    H246180   7.344   4.808   5.085 -0.0661  0.8701 -0.2377
 7329TIP3   OH246181   4.120   2.846   6.495  0.3769 -0.0950 -0.2581
 7329TIP3    H146182   4.029   2.826   6.473  0.3147 -0.2032  0.1017
 7329TIP3    H246183   4.171   2.777   6.451  0.2125 -0.6359  0.3867
 7330TIP3   OH246184   4.780   3.157   4.959 -0.0272  0.0349 -0.7691
 7330TIP3    H146185   4.721   3.083   4.972  1.1387 -0.8626 -0.5200
 7330TIP3    H246186   4.725   3.224   4.918 -0.7654 -1.4414 -2.2860
 7331TIP3   OH246187   5.282   3.997   5.665 -0.2369 -0.5911 -0.6205
 7331TIP3    H146188   5.277   3.976   5.759  0.2641 -1.5639 -0.7998
 7331TIP3    H246189   5.352   4.062   5.659 -0.9645  0.2651 -0.2095
 7332TIP3   OH246190   7.287   6.125   4.326  0.1843 -0.4766 -0.3812
 7332TIP3    H146191   7.201   6.153   4.358  1.5030  2.2555  1.1312
 7332TIP3    H246192   7.332   6.093   4.404  0.8950 -0.8742 -0.9484
 7333TIP3   OH246193   6.549   6.482   4.836 -0.0870  0.5211 -0.0461
 7333TIP3    H146194   6.454   6.479   4.822 -0.2632 -1.5370  1.0945
 7333TIP3    H246195   6.563   6.559   4.890 -1.3476  0.0382  1.0339
 7334TIP3   OH246196   0.444   4.845   5.259 -0.3009  0.5058  0.1955
 7334TIP3    H146197   0.477   4.795   5.184 -0.0847  0.6917  0.1652
 7334TIP3    H246198   0.358   4.876   5.230  0.1511  1.3210 -0.3169
 7335TIP3   OH246199   0.213   1.917   4.223  0.2466 -0.0301  0.1095
 7335TIP3    H146200   0.174   2.002   4.243 -0.3915  0.3824 -2.5499
 7335TIP3    H246201   0.139   1.856   4.221  0.4459 -0.2752  0.1213
 7336TIP3   OH246202   1.264   0.080   6.087  0.4196  0.4939  0.1667
 7336TIP3    H146203   1.219   0.145   6.141 -1.4564 -0.5506 -0.0671
 7336TIP3    H246204   1.264   0.119   5.999 -0.4723  0.3285  0.0788
 7337TIP3   OH246205   1.821   5.482   5.095  0.3185  0.1751  0.6645
 7337TIP3    H146206   1.731   5.484   5.126 -0.2004 -2.5125 -0.3969
 7337TIP3    H246207   1.817   5.519   5.006 -0.7104 -3.7719 -1.1491
 7338TIP3   OH246208   3.713   2.123   6.195  0.1087 -0.5551 -0.5516
 7338TIP3    H146209   3.666   2.091   6.272 -1.2935  0.8553 -0.7626
 7338TIP3    H246210   3.644   2.155   6.137  1.2714  0.8379 -1.2342
 7339TIP3   OH246211   2.200   0.457   3.991  0.3032 -0.5078 -0.1528
 7339TIP3    H146212   2.202   0.386   3.927 -0.0883 -0.2821 -0.4247
 7339TIP3    H246213   2.192   0.536   3.939  3.1430 -0.0305  0.0198
 7340TIP3   OH246214   6.082   7.042   6.098 -0.5717 -0.7467 -0.3794
 7340TIP3    H146215   6.026   7.099   6.150  1.0201 -1.4299  2.2734
 7340TIP3    H246216   6.165   7.040   6.145  0.7133 -2.1293 -2.5275
 7341TIP3   OH246217   2.071   3.458   5.172 -0.0990  0.2507  0.4246
 7341TIP3    H146218   2.041   3.437   5.261  1.1364 -2.0750  0.3585
 7341TIP3    H246219   2.091   3.374   5.133  2.1824  1.3736 -1.0598
 7342TIP3   OH246220   6.292   3.983   4.521 -0.6310 -0.4088 -0.1493
 7342TIP3    H146221   6.210   4.003   4.476 -0.8368 -0.6482  0.1140
 7342TIP3    H246222   6.360   4.009   4.459 -0.8936  0.3457 -0.1394
 7343TIP3   OH246223   6.944   7.152   3.898  0.2346 -0.1097 -0.4533
 7343TIP3    H146224   6.983   7.093   3.963  1.3689 -0.3843 -1.3364
 7343TIP3    H246225   6.985   7.236   3.914 -1.2037  0.4220  0.6466
 7344TIP3   OH246226   5.858   7.053   3.730 -0.5001  0.2859  0.3367
 7344TIP3    H146227   5.770   7.081   3.704 -0.2306  1.4947  0.6900
 7344TIP3    H246228   5.843   6.985   3.796 -1.1657 -0.2879 -0.3821
 7345TIP3   OH246229   0.103   2.227   4.420  0.6120  0.2195 -0.6359
 7345TIP3    H146230   0.017   2.185   4.413  1.1492 -1.0014 -0.1789
 7345TIP3    H246231   0.102   2.269   4.506  0.0161  1.3080 -1.1562
 7346TIP3   OH246232   3.732   1.001   5.196  0.0879 -0.0445 -0.1033
 7346TIP3    H146233   3.822   1.000   5.161  0.0650  0.0496 -0.1657
 7346TIP3    H246234   3.680   0.960   5.127  0.0017  0.3747 -0.2954
 7347TIP3   OH246235   4.188   4.175   5.481  0.1460  0.4890  0.2633
 7347TIP3    H146236   4.100   4.179   5.444  0.0359  0.9259  0.5532
 7347TIP3    H246237   4.231   4.254   5.448  0.1809  0.6637  0.7150
 7348TIP3   OH246238   2.609   6.888   4.915 -0.3824  0.1686 -0.2298
 7348TIP3    H146239   2.548   6.866   4.985 -1.4121 -0.9883 -1.4461
 7348TIP3    H246240   2.607   6.984   4.911 -0.1581  0.2757  1.4074
 7349TIP3   OH246241   2.425   4.716   4.587 -0.3581 -0.4221  0.0238
 7349TIP3    H146242   2.410   4.684   4.676  1.1065  0.0029  0.4552
 7349TIP3    H246243   2.355   4.677   4.535 -1.1641 -0.7866  1.3321
 7350TIP3   OH246244   5.132   6.898   5.252 -0.0217 -0.6979  0.0798
 7350TIP3    H146245   5.072   6.855   5.312 -0.4643 -0.5056 -0.2198
 7350TIP3    H246246   5.209   6.919   5.305 -0.4910 -0.3381  0.6273
 7351TIP3   OH246247   1.161   6.164   5.450  0.0723  0.3734  0.3388
 7351TIP3    H146248   1.167   6.074   5.419 -0.3604  0.4867 -0.0823
 7351TIP3    H246249   1.250   6.186   5.477  0.5259  0.3639 -1.0923
 7352TIP3   OH246250   1.853   1.096   5.653 -0.7273  0.3004  0.1807
 7352TIP3    H146251   1.824   1.167   5.596 -0.5735 -0.2806 -0.6445
 7352TIP3    H246252   1.779   1.080   5.712 -1.2814  0.2504 -0.5138
 7353TIP3   OH246253   6.856   3.657   4.993 -0.3980 -0.0536  0.2024
 7353TIP3    H146254   6.860   3.658   5.089  0.3959 -1.2593  0.2074
 7353TIP3    H246255   6.768   3.626   4.973 -0.8374  0.9485  0.5154
 7354TIP3   OH246256   4.422   5.946   4.329  0.2430  0.6184 -0.2016
 7354TIP3    H146257   4.461   6.006   4.392  0.0525 -0.7516  1.3096
 7354TIP3    H246258   4.486   5.939   4.259  0.6952  1.8009  0.0652
 7355TIP3   OH246259   2.586   2.282   5.001 -0.2789  0.3500 -0.1075
 7355TIP3    H146260   2.491   2.291   4.992 -0.9472 -2.9584  1.9926
 7355TIP3    H246261   2.605   2.311   5.090  0.1612 -1.5902  0.4761
 7356TIP3   OH246262   5.014   5.942   5.121  0.3048  0.2167  0.0505
 7356TIP3    H146263   5.093   5.990   5.147 -0.1675  0.7426  0.5536
 7356TIP3    H246264   5.030   5.852   5.148  0.6876  0.3439  0.2510
 7357TIP3   OH246265   1.579   3.275   5.573  0.5345  0.0237  0.5789
 7357TIP3    H146266   1.599   3.185   5.547  1.1334 -0.1407  1.5469
 7357TIP3    H246267   1.611   3.328   5.500 -2.0452 -0.6342 -1.1513
 7358TIP3   OH246268   6.419   5.923   5.533 -0.4103 -0.1488 -0.2933
 7358TIP3    H146269   6.424   5.958   5.444  0.6219  0.3644 -0.0452
 7358TIP3    H246270   6.418   6.001   5.589 -0.5909 -0.4780  0.1660
 7359TIP3   OH246271   5.719   7.404   6.351 -0.0173  0.0387 -0.2278
 7359TIP3    H146272   5.632   7.364   6.347 -0.2494  0.4674  0.3625
 7359TIP3    H246273   5.708   7.479   6.410  0.8618 -0.1867  0.2396
 7360TIP3   OH246274   1.301   7.219   3.991  0.2512 -0.0152  0.0406
 7360TIP3    H146275   1.306   7.193   3.899 -0.8864  2.2971 -0.7724
 7360TIP3    H246276   1.208   7.213   4.013  0.8046 -3.4781  2.0920
 7361TIP3   OH246277   0.683   6.355   5.367  0.2538 -0.0882  0.0733
 7361TIP3    H146278   0.758   6.381   5.314  0.0368 -0.4742 -0.4388
 7361TIP3    H246279   0.688   6.409   5.446 -0.0673  1.3594 -0.8610
 7362TIP3   OH246280   6.661   3.113   5.695  0.4122  0.1842 -0.5023
 7362TIP3    H146281   6.656   3.018   5.680 -0.6283  0.3571 -1.4111
 7362TIP3    H246282   6.743   3.139   5.654  0.2894 -0.1991 -1.0021
 7363TIP3   OH246283   4.637   7.124   5.484  0.0050 -0.2194  0.5454
 7363TIP3    H146284   4.684   7.127   5.401  0.0323 -1.1930  0.5152
 7363TIP3    H246285   4.642   7.032   5.511 -0.9148 -0.1194  1.0930
 7364TIP3   OH246286   1.525   1.066   3.885 -0.1855 -0.1399  0.2400
 7364TIP3    H146287   1.607   1.102   3.918 -0.7690  1.2331  0.2550
 7364TIP3    H246288   1.458   1.128   3.915 -1.0166 -0.2216 -1.3500
 7365TIP3   OH246289   2.424   1.705   6.117  0.1384  0.0774  0.0845
 7365TIP3    H146290   2.430   1.712   6.213  0.2196  1.1576  0.0196
 7365TIP3    H246291   2.359   1.772   6.093 -0.5661 -0.8159 -0.5462
 7366TIP3   OH246292   3.540   4.192   4.235 -0.4380  0.5190 -0.6439
 7366TIP3    H146293   3.575   4.171   4.148 -1.4466  0.9204 -1.1676
 7366TIP3    H246294   3.447   4.210   4.220 -0.5313  1.0602  0.4490
 7367TIP3   OH246295   1.845   1.859   4.467  0.0674  0.3592  0.0531
 7367TIP3    H146296   1.766   1.816   4.436  1.0944 -1.7700  0.2615
 7367TIP3    H246297   1.916   1.797   4.450  1.9807  2.7223 -1.4020
 7368TIP3   OH246298   7.512   2.591   4.422 -0.4613  0.0769 -0.6929
 7368TIP3    H146299   7.463   2.621   4.499  1.3290  0.1487  0.4844
 7368TIP3    H246300   7.454   2.529   4.379 -2.5951  2.0165 -0.8253
 7369TIP3   OH246301   4.394   3.481   6.096 -0.5904 -0.2269  0.0852
 7369TIP3    H146302   4.456   3.494   6.168 -0.3477 -0.7527 -0.0287
 7369TIP3    H246303   4.448   3.452   6.023 -0.6260  1.6218 -0.7424
 7370TIP3   OH246304   4.631   6.004   4.915  0.8807 -0.2852  0.7242
 7370TIP3    H146305   4.635   5.940   4.843 -0.9202  0.4560 -0.0893
 7370TIP3    H246306   4.567   5.967   4.976 -0.6607  0.9834 -0.0589
 7371TIP3   OH246307   1.414   4.295   6.690  0.0946 -0.3556  0.5777
 7371TIP3    H146308   1.357   4.364   6.656 -2.0864 -2.2026  0.2367
 7371TIP3    H246309   1.376   4.214   6.657  2.5001 -1.7734  1.0310
 7372TIP3   OH246310   1.678   1.982   4.969 -0.0559 -0.3439  0.1188
 7372TIP3    H146311   1.722   2.062   4.943 -1.1320  0.2962  0.2074
 7372TIP3    H246312   1.661   1.992   5.062  1.8305 -1.6874  0.6644
 7373TIP3   OH246313   1.519   7.621   6.123 -0.1708  0.1066 -0.7005
 7373TIP3    H146314   1.568   7.666   6.191  0.0772  2.5266 -2.3684
 7373TIP3    H246315   1.434   7.665   6.122 -1.3012 -1.9135 -0.0065
 7374TIP3   OH246316   0.478   5.485   4.383 -0.2642  0.0770 -0.0337
 7374TIP3    H146317   0.424   5.563   4.401  1.0537  0.9246  0.3882
 7374TIP3    H246318   0.516   5.502   4.297 -0.2736 -0.2857 -0.1107
 7375TIP3   OH246319   5.699   7.179   6.071 -0.2421  0.5242  0.0051
 7375TIP3    H146320   5.615   7.223   6.061 -0.3491  0.4453  0.5118
 7375TIP3    H246321   5.755   7.217   6.004 -0.9790 -0.1707 -1.0367
 7376TIP3   OH246322   3.686   5.994   5.514 -0.5436 -0.0558  0.1984
 7376TIP3    H146323   3.599   6.019   5.483 -0.2425  1.1479  0.2838
 7376TIP3    H246324   3.723   6.074   5.550  0.2268 -0.7817  1.0842
 7377TIP3   OH246325   0.251   5.010   4.391 -0.0034  0.2829  0.1522
 7377TIP3    H146326   0.266   5.078   4.457 -2.0359  0.3030  0.6652
 7377TIP3    H246327   0.264   5.054   4.307 -0.5434  1.1090  0.4934
 7378TIP3   OH246328   2.684   6.319   5.995  0.0245 -0.1128 -0.2557
 7378TIP3    H146329   2.779   6.326   5.992 -0.0490  0.6202 -2.6444
 7378TIP3    H246330   2.660   6.348   6.083  1.9054  1.1205 -0.1119
 7379TIP3   OH246331   0.091   5.410   3.866 -0.2994  0.5580  0.0982
 7379TIP3    H146332  -0.004   5.408   3.876 -0.4052 -0.9838 -0.8781
 7379TIP3    H246333   0.117   5.318   3.863  1.2498  0.9510  0.4677
 7380TIP3   OH246334   7.154   6.111   4.610  0.1572  0.4225 -0.0830
 7380TIP3    H146335   7.172   6.034   4.556 -3.7630 -0.5641 -0.2387
 7380TIP3    H246336   7.093   6.163   4.558  0.2854  2.0888  1.3337
 7381TIP3   OH246337   3.443   5.312   5.047 -0.0602 -0.2192  0.2929
 7381TIP3    H146338   3.386   5.236   5.055 -0.9655  0.4613  0.5043
 7381TIP3    H246339   3.443   5.351   5.135  0.7805 -0.2382  0.3080
 7382TIP3   OH246340   7.101   4.676   4.181 -0.0387  0.1188  0.1596
 7382TIP3    H146341   7.106   4.618   4.257  0.4497  1.2621  1.0404
 7382TIP3    H246342   7.169   4.741   4.197 -0.4621  0.8349 -0.8702
 7383TIP3   OH246343   5.196   4.658   3.908  0.2224 -0.2025  0.0777
 7383TIP3    H146344   5.278   4.648   3.956  0.8176 -0.4883 -0.9677
 7383TIP3    H246345   5.178   4.752   3.911 -0.7914 -0.4211  2.4932
 7384TIP3   OH246346   7.500   2.611   4.805 -0.2388  0.2156  0.0082
 7384TIP3    H146347   7.569   2.676   4.792  1.3188 -1.7238 -2.1889
 7384TIP3    H246348   7.439   2.625   4.733 -0.2934 -0.2597 -0.0421
 7385TIP3   OH246349   0.029   2.203   5.232 -0.0107  0.2403  0.6984
 7385TIP3    H146350   0.089   2.132   5.208 -0.7924 -0.3697  0.4909
 7385TIP3    H246351  -0.058   2.168   5.212 -0.4074  1.2810  0.5615
 7386TIP3   OH246352   3.532   6.960   5.894 -1.3170 -0.1741  0.0655
 7386TIP3    H146353   3.572   6.921   5.973  0.7896  1.3740 -0.1640
 7386TIP3    H246354   3.570   6.910   5.822 -0.1473  0.9613 -0.1290
 7387TIP3   OH246355   1.420   6.744   5.528  0.2064  0.0471  0.0398
 7387TIP3    H146356   1.516   6.746   5.522  0.1093  0.6540 -1.9384
 7387TIP3    H246357   1.393   6.833   5.505 -0.8681 -0.2814  0.0175
 7388TIP3   OH246358   0.365   6.483   4.691  0.6291  0.2289 -0.0401
 7388TIP3    H146359   0.339   6.491   4.783  0.4072  0.8989 -0.1604
 7388TIP3    H246360   0.450   6.527   4.687  1.1844 -0.8017  0.0755
 7389TIP3   OH246361   1.948   2.102   4.345  0.5301  0.1441 -0.0593
 7389TIP3    H146362   1.922   2.020   4.388 -0.8183  0.9344  0.7050
 7389TIP3    H246363   1.897   2.170   4.390  0.9442  1.3087 -1.2746
 7390TIP3   OH246364   2.357   7.340   5.520 -1.0558  0.0487 -0.1199
 7390TIP3    H146365   2.359   7.436   5.515  1.8803  0.1417  0.9120
 7390TIP3    H246366   2.271   7.320   5.557 -1.8572  2.2578 -0.6278
 7391TIP3   OH246367   0.721   4.636   4.523  0.2852  0.1091  0.5387
 7391TIP3    H146368   0.764   4.560   4.563  1.1360 -0.0714 -0.6446
 7391TIP3    H246369   0.770   4.711   4.557  1.7100 -0.1026 -0.9071
 7392TIP3   OH246370   0.110   2.086   6.462  0.1020  0.0972 -0.6056
 7392TIP3    H146371   0.135   1.999   6.431 -1.0746 -0.6528  0.4721
 7392TIP3    H246372   0.193   2.127   6.486  0.5587 -1.4102  0.5673
 7393TIP3   OH246373   3.268   1.321   6.746  0.0202 -0.6218  0.3094
 7393TIP3    H146374   3.265   1.226   6.758  0.5743 -0.4057  2.7690
 7393TIP3    H246375   3.353   1.338   6.706 -0.2004 -1.1620 -0.4172
 7394TIP3   OH246376   6.895   6.732   3.769 -0.0278 -0.3465  0.5776
 7394TIP3    H146377   6.908   6.663   3.704 -0.8452 -2.0648  2.1553
 7394TIP3    H246378   6.976   6.734   3.819  0.9150  1.5259 -0.8967
 7395TIP3   OH246379   6.993   7.469   4.814 -0.3156  0.2140 -0.1877
 7395TIP3    H146380   6.968   7.553   4.775 -1.8429  0.5790  1.4269
 7395TIP3    H246381   7.001   7.488   4.908  3.5417 -0.5346 -0.2036
 7396TIP3   OH246382   5.214   5.744   4.149  0.1837  0.5804  0.3444
 7396TIP3    H146383   5.159   5.770   4.075  1.1282  1.7436  0.0335
 7396TIP3    H246384   5.152   5.715   4.216 -0.6875 -0.3522 -0.8369
 7397TIP3   OH246385   3.335   4.389   5.462  0.8999  0.3033  0.3216
 7397TIP3    H146386   3.314   4.297   5.480  1.5309  0.1008  0.0222
 7397TIP3    H246387   3.425   4.400   5.493  1.2973  0.4710 -0.8556
 7398TIP3   OH246388   5.715   5.216   4.732  0.2628 -0.1162 -0.0657
 7398TIP3    H146389   5.757   5.130   4.741  0.7957  0.1731  0.2522
 7398TIP3    H246390   5.752   5.268   4.803 -1.0487 -0.0121  0.5706
 7399TIP3   OH246391   3.398   1.469   5.492 -0.7403 -0.5874 -0.1073
 7399TIP3    H146392   3.450   1.389   5.485  0.3870  0.2494 -2.5738
 7399TIP3    H246393   3.350   1.473   5.409  0.6718  2.1421 -0.9245
 7400TIP3   OH246394   7.296   7.104   4.354 -0.1475  0.0782 -0.4352
 7400TIP3    H146395   7.302   7.059   4.270 -1.3699  1.2674 -1.2016
 7400TIP3    H246396   7.246   7.046   4.410 -1.3539  0.2728 -1.2805
 7401TIP3   OH246397   7.277   0.296   4.751  0.0388 -0.5995  0.1656
 7401TIP3    H146398   7.227   0.231   4.800 -3.7692  0.3167 -2.0505
 7401TIP3    H246399   7.232   0.378   4.768  0.6970  0.3027 -2.1011
 7402TIP3   OH246400   1.966   7.242   5.053 -0.2873 -0.1865 -0.0876
 7402TIP3    H146401   2.010   7.265   4.971  0.9480 -0.2488  0.5233
 7402TIP3    H246402   1.946   7.149   5.045  0.7817 -0.4539  0.0604
 7403TIP3   OH246403   0.814   5.136   4.653  0.6208  0.6401 -0.1646
 7403TIP3    H146404   0.834   5.217   4.606  0.7828  0.5924 -0.1791
 7403TIP3    H246405   0.819   5.161   4.746  0.6796  0.6448 -0.1689
 7404TIP3   OH246406   4.270   1.329   5.825  0.2094 -0.1842 -0.0331
 7404TIP3    H146407   4.316   1.409   5.797 -0.0216  0.2377  0.7807
 7404TIP3    H246408   4.180   1.358   5.840 -0.0679 -0.7762 -0.5109
 7405TIP3   OH246409   3.796   5.782   4.949  0.1645 -0.6507 -0.3830
 7405TIP3    H146410   3.822   5.796   4.858 -1.1582  0.5613 -0.6108
 7405TIP3    H246411   3.779   5.688   4.955 -2.1336 -0.4413 -2.1146
 7406TIP3   OH246412   2.286   0.181   5.866 -0.3616  0.8446  0.1675
 7406TIP3    H146413   2.300   0.114   5.933  1.3443  0.8945 -0.0921
 7406TIP3    H246414   2.357   0.243   5.880 -0.3492  1.1834 -1.2960
 7407TIP3   OH246415   3.623   6.116   4.602  0.5770 -0.1462 -0.1933
 7407TIP3    H146416   3.716   6.134   4.616  0.2459  1.7068 -0.1567
 7407TIP3    H246417   3.618   6.093   4.509  1.0180  0.1896 -0.3084
 7408TIP3   OH246418   4.168   1.344   4.729 -0.0849  0.0221  0.1233
 7408TIP3    H146419   4.237   1.278   4.732 -0.0156  0.0640 -0.5382
 7408TIP3    H246420   4.087   1.293   4.716 -0.0988  0.0295  0.1788
 7409TIP3   OH246421   2.313   4.241   5.767  0.0977 -0.4417 -0.1957
 7409TIP3    H146422   2.309   4.306   5.837 -2.2991  1.3411 -1.8485
 7409TIP3    H246423   2.256   4.170   5.797  2.1649 -1.6042  1.2912
 7410TIP3   OH246424   4.261   2.370   5.182  0.5008  0.5203 -0.0945
 7410TIP3    H146425   4.290   2.458   5.161  1.5966  0.1399 -0.2461
 7410TIP3    H246426   4.230   2.375   5.272  1.0989  0.9433  0.0916
 7411TIP3   OH246427   5.684   3.943   4.948  0.3344  0.1567 -0.2022
 7411TIP3    H146428   5.653   3.942   4.857 -1.3232  0.6717  0.3047
 7411TIP3    H246429   5.646   4.023   4.984  1.3946  0.2182  0.8128
 7412TIP3   OH246430   3.565   0.829   4.754 -0.3871 -0.3536  0.5987
 7412TIP3    H146431   3.558   0.819   4.849 -0.1036  0.0271  0.6626
 7412TIP3    H246432   3.617   0.753   4.727 -0.3076 -0.3650  0.7750
 7413TIP3   OH246433   3.059   0.371   4.387 -0.3454 -1.2769  0.2302
 7413TIP3    H146434   3.130   0.435   4.384 -0.6877 -0.9184 -0.9930
 7413TIP3    H246435   3.055   0.343   4.478  0.0523  0.1829  0.7205
 7414TIP3   OH246436   3.781   6.421   4.801 -0.4401 -0.1179  0.1995
 7414TIP3    H146437   3.753   6.415   4.710 -0.5079 -2.4232  0.2987
 7414TIP3    H246438   3.876   6.433   4.796 -0.4458 -0.2099 -0.1953
 7415TIP3   OH246439   0.657   5.619   7.014  0.3468  0.3836  0.1764
 7415TIP3    H146440   0.654   5.527   7.042 -0.2227 -0.0368 -1.1839
 7415TIP3    H246441   0.670   5.615   6.920 -0.5621  1.6985 -0.0241
 7416TIP3   OH246442   3.418   6.661   4.936  0.2033 -0.1133 -0.2578
 7416TIP3    H146443   3.471   6.728   4.893  0.1104  0.7293  0.8993
 7416TIP3    H246444   3.480   6.591   4.956  0.8379  0.7255  0.7962
 7417TIP3   OH246445   0.655   3.213   4.393 -0.1382 -0.2400  0.1269
 7417TIP3    H146446   0.599   3.137   4.406 -1.1269  0.6962  1.6282
 7417TIP3    H246447   0.630   3.274   4.463  0.0962  1.7779 -1.4665
 7418TIP3   OH246448   5.228   0.260   5.370  0.1196 -0.5829 -0.7130
 7418TIP3    H146449   5.164   0.276   5.439  0.8835  0.9010 -0.2993
 7418TIP3    H246450   5.195   0.309   5.294  0.6498  0.0420 -0.5516
 7419TIP3   OH246451   1.276   0.004   4.992  0.2473  0.1129  0.7812
 7419TIP3    H146452   1.348  -0.052   4.965 -1.3912 -1.6187 -0.2201
 7419TIP3    H246453   1.278   0.001   5.088  1.9909  0.8343  0.8076
 7420TIP3   OH246454   3.873   1.963   6.787 -0.2364 -0.0453 -0.0461
 7420TIP3    H146455   3.857   1.929   6.875  0.6260  2.7730  1.3190
 7420TIP3    H246456   3.968   1.972   6.781 -0.3906  1.7587 -0.4088
 7421TIP3   OH246457   6.356   6.639   3.883  0.3550  0.4920  0.7373
 7421TIP3    H146458   6.283   6.690   3.847 -0.2859 -0.6788  0.3244
 7421TIP3    H246459   6.433   6.694   3.869 -0.4416  1.7831  1.2314
 7422TIP3   OH246460   5.502   7.343   6.039  0.5212 -0.4117  0.3805
 7422TIP3    H146461   5.532   7.434   6.043  1.2046 -0.5521 -1.0159
 7422TIP3    H246462   5.444   7.340   5.963  1.4545 -1.3950 -0.3187
 7423TIP3   OH246463   0.623   6.739   5.210 -0.2786 -0.3841 -0.2846
 7423TIP3    H146464   0.546   6.682   5.205  0.1137 -1.0423  0.9045
 7423TIP3    H246465   0.625   6.770   5.300  1.0960 -0.7620 -0.1536
 7424TIP3   OH246466   4.244   0.788   6.236 -0.2619  0.3638 -0.1175
 7424TIP3    H146467   4.259   0.764   6.328 -0.3037  0.1775 -0.1603
 7424TIP3    H246468   4.213   0.708   6.194  2.0857 -0.2043 -0.8642
 7425TIP3   OH246469   1.421   0.533   5.940 -0.7864 -0.4777 -0.1991
 7425TIP3    H146470   1.446   0.505   6.028 -0.2054 -0.4923 -0.3640
 7425TIP3    H246471   1.410   0.628   5.948  0.6862 -0.2675 -0.4265
 7426TIP3   OH246472   3.949   6.065   5.369 -0.1125 -0.2987  0.4376
 7426TIP3    H146473   3.913   6.130   5.430 -2.0969 -0.1453 -0.8085
 7426TIP3    H246474   3.950   5.983   5.419  1.3080  0.3874  1.6453
 7427TIP3   OH246475   0.421   4.403   6.286 -0.2013 -0.0407 -0.0500
 7427TIP3    H146476   0.408   4.308   6.280  1.2539 -0.3935  1.5074
 7427TIP3    H246477   0.479   4.424   6.213  0.0936 -0.5023  0.0448
 7428TIP3   OH246478   4.894   5.307   5.468 -0.6084 -0.3651 -0.1055
 7428TIP3    H146479   4.932   5.246   5.406 -2.8517 -1.5509 -0.4273
 7428TIP3    H246480   4.828   5.355   5.418  0.7351  2.0362  0.2658
 7429TIP3   OH246481   7.450   2.109   5.418 -0.1097  0.2287  0.2672
 7429TIP3    H146482   7.512   2.041   5.442  1.0324  1.1448 -0.0216
 7429TIP3    H246483   7.375   2.061   5.382  1.6667 -0.8538 -2.2867
 7430TIP3   OH246484   1.245   3.412   5.325 -0.0239 -0.0798 -0.2462
 7430TIP3    H146485   1.329   3.382   5.359 -0.9092 -0.3130  1.9058
 7430TIP3    H246486   1.205   3.460   5.398 -0.6972  2.2924 -2.0272
 7431TIP3   OH246487   2.965   3.275   4.910 -0.1234  0.2132  0.1659
 7431TIP3    H146488   3.019   3.196   4.909 -1.2700 -0.6397  1.4901
 7431TIP3    H246489   2.956   3.298   4.818  0.3104 -1.1579 -0.2564
 7432TIP3   OH246490   3.918   6.178   4.223 -0.1528 -0.0177 -0.1752
 7432TIP3    H146491   3.989   6.235   4.192  0.4207 -0.7429 -0.2188
 7432TIP3    H246492   3.859   6.170   4.148  0.5919 -0.7613 -0.7000
 7433TIP3   OH246493   6.937   1.321   4.525  0.2665 -0.4230 -0.1662
 7433TIP3    H146494   6.844   1.326   4.500  0.0629  0.3271  0.6988
 7433TIP3    H246495   6.944   1.375   4.604  1.3146 -1.0198  0.1702
 7434TIP3   OH246496   6.436   4.415   5.374 -0.0743 -0.4336  0.1853
 7434TIP3    H146497   6.384   4.336   5.385 -0.7566 -0.2057 -1.2692
 7434TIP3    H246498   6.377   4.486   5.397  0.4759 -0.3091  1.2875
 7435TIP3   OH246499   6.393   0.418   5.990  0.1966  0.1294 -0.1220
 7435TIP3    H146500   6.407   0.324   5.995  0.1837  0.1008 -0.6152
 7435TIP3    H246501   6.331   0.436   6.061  1.7217  0.0799  1.2926
 7436TIP3   OH246502   3.207   3.851   4.447 -0.5529 -0.0564 -0.0289
 7436TIP3    H146503   3.247   3.858   4.534 -0.6966 -2.3708  0.2973
 7436TIP3    H246504   3.151   3.928   4.440  0.1431  0.6430  1.5569
 7437TIP3   OH246505   6.083   2.229   6.284  0.0014 -0.1416  0.8797
 7437TIP3    H146506   6.010   2.170   6.264  1.5971 -1.9603  0.0529
 7437TIP3    H246507   6.060   2.312   6.243 -0.2292 -1.6016 -2.1907
 7438TIP3   OH246508   6.647   1.958   5.817  0.5817 -0.0109  0.1326
 7438TIP3    H146509   6.689   1.876   5.841  0.4330  0.1995  1.1602
 7438TIP3    H246510   6.682   1.978   5.730 -0.0643 -1.5985 -0.5329
 7439TIP3   OH246511   3.147   7.279   5.045  0.2984 -0.4330  0.4432
 7439TIP3    H146512   3.083   7.230   4.992 -0.4791 -0.5300  1.4391
 7439TIP3    H246513   3.215   7.303   4.983  0.4702 -2.3540 -0.1937
 7440TIP3   OH246514   0.807   6.169   3.977 -0.1235 -0.4573 -0.1824
 7440TIP3    H146515   0.750   6.213   3.914  0.9458  1.5480  0.1619
 7440TIP3    H246516   0.881   6.229   3.988  1.1906 -2.1617  0.7113
 7441TIP3   OH246517   1.183   7.680   4.251 -0.0018  0.2601 -0.1326
 7441TIP3    H146518   1.264   7.670   4.201 -0.7000 -2.0461 -0.9474
 7441TIP3    H246519   1.179   7.602   4.306 -2.6269 -0.8768 -1.6987
 7442TIP3   OH246520   5.880   3.712   6.400 -0.0902 -0.4191 -0.3686
 7442TIP3    H146521   5.869   3.618   6.388  1.7928 -0.5643 -1.5005
 7442TIP3    H246522   5.800   3.750   6.366 -0.2029 -1.5646 -1.4704
 7443TIP3   OH246523   6.203   2.799   6.396 -0.5222 -0.0330  0.1574
 7443TIP3    H146524   6.251   2.783   6.477  0.7045 -0.0263 -0.5399
 7443TIP3    H246525   6.132   2.735   6.397 -0.6018  0.0577  1.2890
 7444TIP3   OH246526   5.156   5.754   6.652 -0.0016  0.3722 -0.3241
 7444TIP3    H146527   5.180   5.744   6.744 -2.2138  3.1312  0.6907
 7444TIP3    H246528   5.071   5.710   6.644 -0.2146  0.8626 -0.8225
 7445TIP3   OH246529   0.340   4.110   4.196 -0.2248  0.4411  0.5067
 7445TIP3    H146530   0.281   4.180   4.226 -0.1284  0.7566 -0.0345
 7445TIP3    H246531   0.400   4.153   4.136  1.3208  0.3644  1.9310
 7446TIP3   OH246532   3.766   2.372   6.097  0.3781  0.5849  0.0921
 7446TIP3    H146533   3.717   2.317   6.159 -0.0485 -0.3604 -1.0555
 7446TIP3    H246534   3.857   2.362   6.125  0.2354 -0.1468  0.3399
 7447TIP3   OH246535   5.874   0.459   5.354 -0.0317  0.3757 -0.0195
 7447TIP3    H146536   5.920   0.394   5.407 -0.8289  0.5957  0.9785
 7447TIP3    H246537   5.911   0.449   5.267  0.5398 -0.7578  0.3279
 7448TIP3   OH246538   1.864   5.902   4.975  0.2545  0.0425  0.3328
 7448TIP3    H146539   1.839   5.873   5.063 -0.2182  1.2394  0.6085
 7448TIP3    H246540   1.955   5.931   4.985  0.0690  0.5673  0.5299
 7449TIP3   OH246541   2.444   0.948   5.528 -0.0676  0.3917 -0.4240
 7449TIP3    H146542   2.406   1.031   5.500 -0.3852 -0.0668 -1.4236
 7449TIP3    H246543   2.383   0.882   5.495  0.2744 -0.2460  0.1978
 7450TIP3   OH246544   2.534   6.454   4.373 -0.2132  0.1684  0.1662
 7450TIP3    H146545   2.517   6.406   4.454  0.9635  1.7464  1.4175
 7450TIP3    H246546   2.550   6.386   4.308  0.8100 -1.1449  1.7209
 7451TIP3   OH246547   0.469   6.490   6.107 -0.5581  0.6074  0.1774
 7451TIP3    H146548   0.438   6.406   6.140 -1.0886  1.0119  0.7237
 7451TIP3    H246549   0.549   6.506   6.156  0.3911 -0.2777 -1.0000
 7452TIP3   OH246550   4.294   4.176   4.379  0.5488 -0.1518 -0.2046
 7452TIP3    H146551   4.208   4.138   4.362 -0.0576  1.3404 -0.5833
 7452TIP3    H246552   4.281   4.270   4.373  2.4742  0.0924 -1.6319
 7453TIP3   OH246553   3.722   1.602   4.275  0.3307 -0.5516 -0.3028
 7453TIP3    H146554   3.729   1.586   4.181 -0.3893  1.0131 -0.6511
 7453TIP3    H246555   3.810   1.584   4.309  0.8841 -0.1023 -1.4496
 7454TIP3   OH246556   1.402   0.433   4.436  0.1727 -1.0478  0.9788
 7454TIP3    H146557   1.382   0.414   4.528  0.9319  1.5056  1.7691
 7454TIP3    H246558   1.491   0.400   4.424 -0.2510 -2.1835  0.8743
 7455TIP3   OH246559   5.434   4.183   4.884 -0.7203  0.0451 -0.0280
 7455TIP3    H146560   5.484   4.166   4.964 -1.7657 -0.0492  0.6342
 7455TIP3    H246561   5.359   4.124   4.890 -0.9062  0.1678 -0.9975
 7456TIP3   OH246562   3.266   0.997   4.108  0.5193  0.7359 -0.0556
 7456TIP3    H146563   3.186   0.946   4.096  1.9541 -2.0706  1.2754
 7456TIP3    H246564   3.262   1.065   4.041 -1.9133 -0.6404 -1.4419
 7457TIP3   OH246565   2.647   1.746   5.285  0.6439  0.0431  0.4097
 7457TIP3    H146566   2.613   1.741   5.196  0.7785 -0.3354  0.3771
 7457TIP3    H246567   2.623   1.661   5.324  0.8619  0.0846  0.6334
 7458TIP3   OH246568   1.218   4.230   6.313  0.0925 -0.1689 -0.0472
 7458TIP3    H146569   1.310   4.205   6.317  0.8770  2.5207  1.3621
 7458TIP3    H246570   1.206   4.263   6.224  0.8141  0.4697  0.0847
 7459TIP3   OH246571   3.778   2.136   4.600 -0.1807  0.0176  0.0253
 7459TIP3    H146572   3.840   2.171   4.665  0.7491 -0.0700 -0.7777
 7459TIP3    H246573   3.699   2.187   4.612  0.2937  0.6385  0.6080
 7460TIP3   OH246574   5.931   0.183   4.334 -0.2519 -0.4529  0.1398
 7460TIP3    H146575   5.860   0.189   4.398 -0.9359  0.5499 -0.6743
 7460TIP3    H246576   5.888   0.156   4.253  0.4379 -0.7238 -0.1427
 7461TIP3   OH246577   1.660   1.084   4.309  0.5934  0.5188  0.6975
 7461TIP3    H146578   1.703   1.111   4.228 -0.2815  0.7625  0.2980
 7461TIP3    H246579   1.601   1.013   4.282 -0.0216  0.8937  1.0371
 7462TIP3   OH246580   5.373   3.868   5.013  0.3672 -0.0294  0.3870
 7462TIP3    H146581   5.411   3.782   5.032  0.7059  0.1193  0.3966
 7462TIP3    H246582   5.327   3.856   4.930 -0.2880 -0.4310  0.7996
 7463TIP3   OH246583   4.961   4.548   4.016  0.2626  0.1849  0.4079
 7463TIP3    H146584   4.996   4.466   4.049  0.2645 -0.9769 -2.2565
 7463TIP3    H246585   5.036   4.589   3.971 -0.4617  0.1677 -0.8549
 7464TIP3   OH246586   2.871   7.656   5.203  0.5722 -0.3228 -0.1277
 7464TIP3    H146587   2.966   7.665   5.215  0.5269  0.2510 -0.1402
 7464TIP3    H246588   2.848   7.728   5.144 -0.1220  0.5924  1.1887
 7465TIP3   OH246589   0.146   0.631   4.825  0.2386  0.6073  0.1527
 7465TIP3    H146590   0.146   0.588   4.740 -0.3876  1.8151 -0.4842
 7465TIP3    H246591   0.092   0.575   4.881 -2.0256  1.3898 -1.1249
 7466TIP3   OH246592   5.312   5.052   5.217 -0.5498  0.0571 -0.3109
 7466TIP3    H146593   5.371   5.119   5.251 -1.1795  0.0891  0.7862
 7466TIP3    H246594   5.249   5.037   5.288 -1.1157 -0.8639 -0.9739
 7467TIP3   OH246595   4.924   2.898   5.359 -0.2392  0.0941  0.3102
 7467TIP3    H146596   4.983   2.826   5.381 -0.9167  0.1086  2.3681
 7467TIP3    H246597   4.885   2.924   5.442 -4.8315 -1.3234 -1.0764
 7468TIP3   OH246598   7.610   6.649   4.102  0.1321  0.4473  0.4598
 7468TIP3    H146599   7.581   6.581   4.163 -0.3082  0.1733 -0.0392
 7468TIP3    H246600   7.705   6.653   4.112  0.0649  0.3906  1.1429
 7469TIP3   OH246601   2.961   2.168   5.437 -0.1854 -0.3403  0.9753
 7469TIP3    H146602   2.930   2.080   5.414 -1.3549 -0.3092  2.3119
 7469TIP3    H246603   3.048   2.173   5.399  0.2439 -2.3913  1.5647
 7470TIP3   OH246604   4.360   1.899   4.918  0.2369 -0.2082 -0.4596
 7470TIP3    H146605   4.279   1.894   4.970 -0.1034  2.0564 -0.6867
 7470TIP3    H246606   4.422   1.843   4.964 -1.3703 -1.8388 -0.1577
 7471TIP3   OH246607   5.765   1.584   5.442  0.1913 -0.1287  0.4386
 7471TIP3    H146608   5.764   1.583   5.538  0.0224 -0.1616  0.4370
 7471TIP3    H246609   5.856   1.569   5.419 -0.2765 -4.3451  0.5370
 7472TIP3   OH246610   1.256   0.451   4.153 -0.5007 -0.4335  0.2034
 7472TIP3    H146611   1.298   0.438   4.238 -0.4964  0.6991  0.3947
 7472TIP3    H246612   1.324   0.486   4.097 -0.7324 -0.3246 -0.0144
 7473TIP3   OH246613   6.120   2.334   5.013 -0.2386 -0.0377 -0.8238
 7473TIP3    H146614   6.139   2.305   5.102  1.5759 -1.2694 -1.5713
 7473TIP3    H246615   6.044   2.393   5.023  1.5438  2.0548  1.8617
 7474TIP3   OH246616   2.852   2.660   4.007 -0.3892 -0.2362  0.0226
 7474TIP3    H146617   2.836   2.723   3.937 -1.4988 -0.0671  0.3900
 7474TIP3    H246618   2.764   2.627   4.029  0.1881 -2.1116 -0.3279
 7475TIP3   OH246619   2.008   0.127   5.628  0.0055 -1.2782  0.6357
 7475TIP3    H146620   1.967   0.050   5.666  2.1272 -2.5301  0.5152
 7475TIP3    H246621   2.045   0.174   5.703 -0.6411 -0.7254  0.6279
 7476TIP3   OH246622   2.347   1.977   5.198 -0.1897 -0.3060 -0.1032
 7476TIP3    H146623   2.260   1.950   5.171 -1.3253  1.9717  0.9841
 7476TIP3    H246624   2.352   2.069   5.175  1.3540 -0.0176  1.1853
 7477TIP3   OH246625   4.538   3.028   5.694  0.2256  0.2069 -0.1595
 7477TIP3    H146626   4.444   3.028   5.677 -0.1981  2.5942  1.6008
 7477TIP3    H246627   4.546   3.059   5.784  2.7135  0.2475 -0.3264
 7478TIP3   OH246628   2.862   1.363   5.181  0.1001 -0.2496 -0.0127
 7478TIP3    H146629   2.880   1.300   5.251 -3.1503 -0.3234  0.8937
 7478TIP3    H246630   2.944   1.367   5.132  1.6088 -2.3534  2.0949
 7479TIP3   OH246631   0.464   6.027  11.071 -0.1748 -0.6010  0.3019
 7479TIP3    H146632   0.416   5.998  11.149 -1.7242 -0.7212 -0.6624
 7479TIP3    H246633   0.458   5.953  11.010 -1.5932  0.5429 -1.0409
 7480TIP3   OH246634   0.286   5.591   3.919  0.2468 -0.0275  0.4887
 7480TIP3    H146635   0.237   5.555   3.844 -0.2881  1.5934  0.0232
 7480TIP3    H246636   0.277   5.524   3.987 -0.4083 -0.9342 -0.4434
 7481TIP3   OH246637   4.901   5.857   4.862 -0.7071  0.1598 -0.1947
 7481TIP3    H146638   4.860   5.781   4.821  0.5626  0.8103 -2.8341
 7481TIP3    H246639   4.987   5.825   4.890 -1.1796 -0.0054  1.1917
 7482TIP3   OH246640   3.889   2.919   4.893  0.2324 -0.3536 -0.1080
 7482TIP3    H146641   3.868   2.827   4.910 -0.1426 -0.2548 -0.0362
 7482TIP3    H246642   3.974   2.933   4.935 -0.3251 -0.3086  1.0305
 7483TIP3   OH246643   4.731   5.607   5.997  0.2904  0.5757 -0.9428
 7483TIP3    H146644   4.689   5.690   5.974  2.7251  1.9810 -0.6825
 7483TIP3    H246645   4.776   5.624   6.080  0.9461 -0.9594 -0.9449
 7484TIP3   OH246646   2.276   1.188   5.391  0.6406 -0.3456  0.7399
 7484TIP3    H146647   2.286   1.131   5.315  2.8291 -0.0156  0.7160
 7484TIP3    H246648   2.254   1.274   5.353 -0.4088 -0.6551  0.6339
 7485TIP3   OH246649   3.160   3.186   5.146 -0.7931 -0.5991  0.4433
 7485TIP3    H146650   3.099   3.210   5.216 -0.1450 -0.9343  1.1367
 7485TIP3    H246651   3.198   3.104   5.175  0.0036 -0.3825  0.0230
 7486TIP3   OH246652   0.936   2.746   5.750  0.1782  0.1271  0.4686
 7486TIP3    H146653   0.907   2.703   5.831 -0.3425  1.2837  0.9235
 7486TIP3    H246654   0.859   2.745   5.694  0.2213  0.3026  0.4072
 7487TIP3   OH246655   5.399   1.186   6.003  0.1364  0.4014 -0.3831
 7487TIP3    H146656   5.305   1.198   6.004  0.0598 -0.0146  1.0480
 7487TIP3    H246657   5.432   1.248   6.068  0.8720  0.6726 -0.9977
 7488TIP3   OH246658   2.808   5.824   5.455 -0.3345 -0.1537 -0.3654
 7488TIP3    H146659   2.780   5.849   5.543  1.1214  0.5846 -0.0935
 7488TIP3    H246660   2.842   5.735   5.465  0.3453  0.1387 -0.0731
 7489TIP3   OH246661   1.068   4.805   5.339  0.2835  0.1614 -0.3886
 7489TIP3    H146662   0.995   4.798   5.401  0.5893  1.9087  0.2225
 7489TIP3    H246663   1.027   4.825   5.255 -0.0737 -1.3666 -0.6140
 7490TIP3   OH246664   0.048   5.829   4.713 -0.0177  0.5331  0.3702
 7490TIP3    H146665  -0.006   5.794   4.784  0.4375  1.4755  1.2001
 7490TIP3    H246666  -0.015   5.869   4.653 -0.3944 -0.1462  0.2979
 7491TIP3   OH246667   4.927   5.601   6.581 -0.1641  0.2568 -0.1652
 7491TIP3    H146668   4.873   5.555   6.645  0.9689 -1.2567 -0.2592
 7491TIP3    H246669   4.953   5.533   6.518 -0.6274  1.5460 -1.8353
 7492TIP3   OH246670   4.161   6.980   3.701 -0.3589 -0.0457 -0.2085
 7492TIP3    H146671   4.206   6.905   3.663  0.0126  0.0542  0.0279
 7492TIP3    H246672   4.096   6.941   3.760 -1.3098 -0.2144 -1.3300
 7493TIP3   OH246673   5.376   5.179   4.132  0.2784  0.4158  0.7790
 7493TIP3    H146674   5.461   5.139   4.152 -0.0352 -0.4896  0.3409
 7493TIP3    H246675   5.331   5.182   4.217  0.1004 -0.6795  0.7410
 7494TIP3   OH246676   0.951   4.964   4.066  0.1326  0.2281 -0.3458
 7494TIP3    H146677   0.984   5.054   4.073  0.2483  0.3268 -1.8795
 7494TIP3    H246678   0.983   4.921   4.145 -1.8137  2.0882  1.6096
 7495TIP3   OH246679   5.315   7.648   5.011 -0.2060 -0.3708  0.1233
 7495TIP3    H146680   5.296   7.742   5.016 -0.2163 -0.3875  0.4279
 7495TIP3    H246681   5.349   7.627   5.098 -0.9093 -0.8073  0.2960
 7496TIP3   OH246682   7.411   7.069   4.682  0.3616  0.0921 -0.2141
 7496TIP3    H146683   7.366   7.092   4.764  2.8371 -0.8406  1.5276
 7496TIP3    H246684   7.350   7.009   4.638 -0.6211 -0.2322  1.4605
 7497TIP3   OH246685   2.295   3.809   6.033  0.2543 -0.1668 -0.0202
 7497TIP3    H146686   2.340   3.726   6.024  1.6676  0.5406  0.2957
 7497TIP3    H246687   2.302   3.851   5.947  1.0492  0.3517  0.2889
 7498TIP3   OH246688   7.052   3.652   6.681 -0.3624  0.1994 -0.3635
 7498TIP3    H146689   7.014   3.657   6.594 -0.6454  0.8604 -0.2082
 7498TIP3    H246690   7.117   3.581   6.675 -0.6091  0.0232 -1.0145
 7499TIP3   OH246691   5.111   6.784   4.640  0.0816  0.3304 -0.1801
 7499TIP3    H146692   5.136   6.704   4.595 -0.4445  0.3400 -0.4985
 7499TIP3    H246693   5.193   6.819   4.674  0.4028  0.0004 -0.6021
 7500TIP3   OH246694   3.258   0.199   4.550 -0.7909 -0.1373 -0.5001
 7500TIP3    H146695   3.191   0.262   4.579 -1.7379 -0.9913 -0.7652
 7500TIP3    H246696   3.309   0.248   4.486 -2.6862 -0.1339 -2.1300
 7501TIP3   OH246697   1.311   3.373   4.236 -0.4773  0.0545 -0.0696
 7501TIP3    H146698   1.232   3.394   4.287  0.3922  1.0673  0.9060
 7501TIP3    H246699   1.355   3.457   4.223  0.5737 -0.5214 -0.3793
 7502TIP3   OH246700   4.124   0.124   5.429 -0.0580 -0.1085  0.0810
 7502TIP3    H146701   4.070   0.142   5.353 -0.0335 -0.0006  0.0886
 7502TIP3    H246702   4.069   0.071   5.486 -0.3127  0.3679  0.2843
 7503TIP3   OH246703   5.354   0.346   5.757 -0.3271  0.0026 -0.0966
 7503TIP3    H146704   5.427   0.285   5.747 -0.3060 -0.7856  3.5873
 7503TIP3    H246705   5.276   0.293   5.740 -0.2326 -0.6575  1.4064
 7504TIP3   OH246706   1.489   2.717   4.846 -0.0842 -0.0536  0.0088
 7504TIP3    H146707   1.545   2.771   4.790 -0.5456  0.7692  0.3192
 7504TIP3    H246708   1.451   2.652   4.787  1.4346 -0.8460 -0.1559
 7505TIP3   OH246709   5.523   6.767   6.616  0.2451  0.1228 -0.0672
 7505TIP3    H146710   5.537   6.702   6.685 -0.0843  1.9868  1.9028
 7505TIP3    H246711   5.599   6.826   6.624  0.9810 -0.4103 -2.3654
 7506TIP3   OH246712   0.605   0.385   3.992 -0.4623 -0.2416  0.1278
 7506TIP3    H146713   0.683   0.339   3.961  0.5694  0.8445  1.0429
 7506TIP3    H246714   0.635   0.473   4.012 -1.2166 -0.6051  3.4132
 7507TIP3   OH246715   3.292   4.126   5.448  0.5650 -0.2644 -0.5764
 7507TIP3    H146716   3.367   4.089   5.400  1.1205 -1.5166  1.1389
 7507TIP3    H246717   3.249   4.050   5.488 -1.2396  0.5080 -0.9610
 7508TIP3   OH246718   4.992   5.103   4.730  0.6043  1.0333  0.3645
 7508TIP3    H146719   4.975   5.190   4.694  0.5990  0.6616 -0.5554
 7508TIP3    H246720   4.982   5.044   4.656  2.6667  0.4373  0.4857
 7509TIP3   OH246721   5.661   5.544   4.269 -0.0268  0.5723  0.0644
 7509TIP3    H146722   5.672   5.495   4.350  0.9138  2.1881  0.9538
 7509TIP3    H246723   5.567   5.540   4.251 -0.3269  0.6424  1.5110
 7510TIP3   OH246724   7.384   3.003   4.333  0.1531 -0.8998 -0.3099
 7510TIP3    H146725   7.395   3.038   4.421 -1.2271 -0.5986 -0.2398
 7510TIP3    H246726   7.444   2.928   4.329  1.4725  0.0852  0.2929
 7511TIP3   OH246727   1.810   3.660   6.434 -0.4621  0.0935  0.0006
 7511TIP3    H146728   1.807   3.753   6.454  0.6491 -0.1520  1.4765
 7511TIP3    H246729   1.873   3.652   6.363 -0.8923  0.4867 -0.4390
 7512TIP3   OH246730   6.757   4.577   4.589 -0.2676  0.3088  0.2403
 7512TIP3    H146731   6.715   4.663   4.578  1.1888  0.8102 -2.2261
 7512TIP3    H246732   6.694   4.526   4.640 -1.1078  2.8737  1.9694
 7513TIP3   OH246733   0.227   2.025   5.165  0.2721  0.6175  0.2463
 7513TIP3    H146734   0.260   1.977   5.241  2.3711  1.8169  0.1585
 7513TIP3    H246735   0.299   2.023   5.102 -1.2165  0.1498 -1.5348
 7514TIP3   OH246736   4.712   7.124   4.317 -0.1119  0.3413 -0.7400
 7514TIP3    H146737   4.641   7.189   4.313 -0.1850  0.2382 -1.2030
 7514TIP3    H246738   4.731   7.114   4.411 -0.7691  0.3101 -0.6053
 7515TIP3   OH246739   2.055   2.107   6.404  0.6510 -0.2659 -0.3953
 7515TIP3    H146740   2.071   2.014   6.423  1.1817 -0.0022  0.5042
 7515TIP3    H246741   2.091   2.153   6.479 -2.9741  0.4819  1.0611
 7516TIP3   OH246742   0.359   4.743   5.765  0.0593 -0.0462  0.1393
 7516TIP3    H146743   0.304   4.770   5.691 -1.0128  1.3462  1.3749
 7516TIP3    H246744   0.303   4.682   5.814 -0.3083  1.1108  1.2164
 7517TIP3   OH246745   2.435   2.858   5.304  0.3909  0.6575  0.1920
 7517TIP3    H146746   2.445   2.844   5.398  0.3372  0.2513  0.1375
 7517TIP3    H246747   2.513   2.819   5.266 -1.0360 -2.0092 -0.1880
 7518TIP3   OH246748   4.931   4.875   5.565  0.1259  0.7550 -0.4192
 7518TIP3    H146749   4.995   4.883   5.636 -0.2799  0.6948 -0.0431
 7518TIP3    H246750   4.848   4.899   5.605 -0.0433  1.1123 -0.9852
 7519TIP3   OH246751   2.238   0.973   3.639 -0.2353  0.0423 -0.6420
 7519TIP3    H146752   2.285   0.994   3.558 -0.2836 -1.2040 -1.0030
 7519TIP3    H246753   2.153   0.941   3.610 -0.4285  0.0299 -0.0708
 7520TIP3   OH246754   1.486   4.981   5.076  0.3366  0.3940  0.0010
 7520TIP3    H146755   1.462   5.014   4.989  0.6305 -1.2822 -0.7468
 7520TIP3    H246756   1.548   5.045   5.110 -0.4527  1.5355 -0.6345
 7521TIP3   OH246757   5.137   3.046   4.097  0.0242 -0.1077  0.1239
 7521TIP3    H146758   5.137   3.133   4.136  0.4254 -0.2218  0.3835
 7521TIP3    H246759   5.182   3.057   4.013 -1.1031  0.1969 -0.4508
 7522TIP3   OH246760   4.500   3.878   4.596 -0.3428  0.3796  0.4245
 7522TIP3    H146761   4.518   3.970   4.578 -0.3989  0.4287  0.6070
 7522TIP3    H246762   4.406   3.876   4.615 -0.2625  0.3556  0.8363
 7523TIP3   OH246763   2.367   5.362   4.724 -1.0068 -0.1324  0.0223
 7523TIP3    H146764   2.380   5.389   4.633 -1.8137 -0.7250 -0.2756
 7523TIP3    H246765   2.281   5.321   4.726 -0.5178 -1.1830  0.8085
 7524TIP3   OH246766   7.273   1.099   5.561  0.8979  0.1216 -0.0599
 7524TIP3    H146767   7.285   1.005   5.555  0.9000  0.1909 -1.2491
 7524TIP3    H246768   7.186   1.110   5.598  0.6730 -0.3483 -0.4479
 7525TIP3   OH246769   4.364   7.308   3.785 -0.6871  0.0826 -0.1778
 7525TIP3    H146770   4.420   7.233   3.805 -0.5642 -0.0087 -0.8464
 7525TIP3    H246771   4.282   7.269   3.753 -0.2727  0.2267 -1.4739
 7526TIP3   OH246772   0.979   7.565   4.064 -0.6021 -0.1471  0.1509
 7526TIP3    H146773   0.979   7.549   4.159 -0.2314 -0.2184  0.1387
 7526TIP3    H246774   0.887   7.582   4.043 -0.6958 -0.1960  0.5132
 7527TIP3   OH246775   0.843   4.864   4.582  0.3332 -0.1392  0.4010
 7527TIP3    H146776   0.830   4.953   4.615  2.5386 -0.3630  2.0391
 7527TIP3    H246777   0.937   4.855   4.572  0.1192 -2.1325 -0.2973
 7528TIP3   OH246778   3.784   0.642   5.122  0.4771 -0.2474  0.5339
 7528TIP3    H146779   3.873   0.631   5.090  0.1378  0.7404 -0.8239
 7528TIP3    H246780   3.754   0.553   5.140  0.7275 -0.8732 -1.8714
 7529TIP3   OH246781   3.825   1.505   4.035 -0.6057  0.2096  0.0639
 7529TIP3    H146782   3.831   1.439   3.966  0.0028 -0.8590  1.0965
 7529TIP3    H246783   3.867   1.582   3.998  1.4307 -0.9265 -0.1456
 7530TIP3   OH246784   5.734   1.575   5.829  0.4677 -0.2228  0.7193
 7530TIP3    H146785   5.687   1.605   5.906  0.2441 -0.2164  0.5805
 7530TIP3    H246786   5.743   1.654   5.775 -0.0226 -0.3832  0.4041
 7531TIP3   OH246787   3.494   4.578   5.684 -0.0526 -0.4361 -0.0379
 7531TIP3    H146788   3.512   4.487   5.661 -0.7934 -0.2303 -1.6022
 7531TIP3    H246789   3.518   4.628   5.606  1.6564  0.9136  1.2641
 7532TIP3   OH246790   1.074   3.886   5.569 -0.2507 -0.3925 -0.0886
 7532TIP3    H146791   1.112   3.849   5.489  0.2585  0.6495 -0.3507
 7532TIP3    H246792   1.150   3.900   5.626 -0.4019  0.4262 -0.0806
 7533TIP3   OH246793   0.298   4.642   6.626  0.0478 -0.6440 -0.3145
 7533TIP3    H146794   0.296   4.716   6.687 -0.5003 -1.3852  0.5858
 7533TIP3    H246795   0.342   4.572   6.674 -1.5886 -1.6704 -0.2448
 7534TIP3   OH246796   7.210   4.110   4.553  0.0423 -0.2616  0.4640
 7534TIP3    H146797   7.178   4.186   4.602 -0.6724 -0.6411  0.6006
 7534TIP3    H246798   7.202   4.037   4.615  2.1655 -0.2213  0.8745
 7535TIP3   OH246799   2.507   3.293   6.137  0.0054 -0.6293  0.0887
 7535TIP3    H146800   2.424   3.250   6.156  0.2344 -0.5498  1.3126
 7535TIP3    H246801   2.562   3.274   6.212  1.3370 -1.2223 -1.0037
 7536TIP3   OH246802   1.635   1.578   4.615 -0.5421 -0.0768  0.0642
 7536TIP3    H146803   1.564   1.615   4.563  0.4533  1.1495 -0.4462
 7536TIP3    H246804   1.631   1.625   4.698 -1.1457 -0.9560  0.5608
 7537TIP3   OH246805   7.454   2.776   6.066  0.0182 -0.0456 -0.6127
 7537TIP3    H146806   7.370   2.820   6.079  0.0948 -0.0183 -0.1675
 7537TIP3    H246807   7.497   2.782   6.152  0.0198 -1.0240 -0.5365
 7538TIP3   OH246808   4.142   4.915   4.744  0.1992  0.3586  0.9409
 7538TIP3    H146809   4.217   4.947   4.794  0.1220  0.6121  0.8982
 7538TIP3    H246810   4.181   4.863   4.674  0.4760  2.0761 -0.2655
 7539TIP3   OH246811   1.048   6.163   4.424  0.3054 -0.2041 -0.1265
 7539TIP3    H146812   1.012   6.184   4.509  2.2096 -1.4075  1.0561
 7539TIP3    H246813   1.037   6.068   4.415  0.1456 -0.0993 -1.2112
 7540TIP3   OH246814   5.164   5.359   4.099 -0.0111  0.1084  0.0577
 7540TIP3    H146815   5.192   5.416   4.171  1.3798 -1.7277  1.0456
 7540TIP3    H246816   5.243   5.311   4.075 -1.1656 -1.5030 -0.6449
 7541TIP3   OH246817   4.287   2.171   5.683 -0.6037 -0.5552  0.2157
 7541TIP3    H146818   4.311   2.184   5.775  1.2612 -1.4557 -0.1043
 7541TIP3    H246819   4.209   2.116   5.687 -0.6059 -0.5070  1.2494
 7542TIP3   OH246820   1.047   1.119   3.860 -0.0160  0.3949 -0.0574
 7542TIP3    H146821   1.115   1.068   3.816 -0.5343  1.4484 -2.2293
 7542TIP3    H246822   1.078   1.129   3.950  2.7653  0.9297 -0.9750
 7543TIP3   OH246823   5.558   6.021   3.912  0.2831  0.1172  0.0965
 7543TIP3    H146824   5.530   5.935   3.881  0.7598  0.5356 -1.6674
 7543TIP3    H246825   5.498   6.043   3.983 -1.4166 -0.6310 -1.0370
 7544TIP3   OH246826   3.149   1.599   6.111 -0.6292  0.0945  0.4759
 7544TIP3    H146827   3.229   1.567   6.152 -1.1786  1.1778  2.5457
 7544TIP3    H246828   3.082   1.534   6.133 -0.8413  0.4823  1.0159
 7545TIP3   OH246829   4.427   0.829   4.071  0.3929 -0.2684 -0.2229
 7545TIP3    H146830   4.397   0.762   4.010  0.1831 -0.3724 -0.0027
 7545TIP3    H246831   4.381   0.909   4.043 -0.6411 -0.5722  0.5433
 7546TIP3   OH246832   1.048   1.651   3.990 -0.0340 -0.6849 -0.2901
 7546TIP3    H146833   1.015   1.728   3.944 -1.2301 -2.1580 -2.0676
 7546TIP3    H246834   1.030   1.667   4.082  2.4973  2.4277 -0.1561
 7547TIP3   OH246835   3.575   6.956   5.282  0.2378 -0.1353 -0.0734
 7547TIP3    H146836   3.551   7.012   5.208  0.3993 -0.8394 -0.6642
 7547TIP3    H246837   3.611   6.877   5.242  1.4249 -0.0479  0.7708
 7548TIP3   OH246838   6.832   6.954   5.456  0.5794 -0.7673  0.1454
 7548TIP3    H146839   6.835   7.029   5.398  0.0718 -0.0930  0.9616
 7548TIP3    H246840   6.791   6.884   5.404 -2.7720  0.6761  0.5576
 7549TIP3   OH246841   7.406   0.944   4.127  0.2877  0.0877  0.0601
 7549TIP3    H146842   7.345   1.018   4.134  0.4175  0.1030  1.0686
 7549TIP3    H246843   7.351   0.871   4.101  0.1930  0.5669 -1.1989
 7550TIP3   OH246844   1.769   5.820   5.607 -0.1240  0.2430 -0.0805
 7550TIP3    H146845   1.787   5.739   5.559  0.2275  0.3983 -0.2112
 7550TIP3    H246846   1.854   5.852   5.635 -0.2698  0.5109  0.0682
 7551TIP3   OH246847   5.843   1.802   5.705  0.0241  1.0198  0.3818
 7551TIP3    H146848   5.849   1.888   5.746 -1.5867  1.2473  0.2165
 7551TIP3    H246849   5.814   1.821   5.615  1.3675  0.3957 -0.2075
 7552TIP3   OH246850   4.851   5.280   6.651 -0.2024  0.0058  0.4965
 7552TIP3    H146851   4.829   5.353   6.709 -0.8924  1.3885 -1.3941
 7552TIP3    H246852   4.945   5.291   6.633 -0.4462  0.9215 -0.3449
 7553TIP3   OH246853   4.893   0.056   6.621  0.0965  0.0047  0.5922
 7553TIP3    H146854   4.844  -0.026   6.617  1.4380 -0.8631  1.1913
 7553TIP3    H246855   4.975   0.038   6.576 -0.1537  1.4819 -0.5552
 7554TIP3   OH246856   0.761   3.356   5.288 -0.3305 -0.2509  0.0612
 7554TIP3    H146857   0.836   3.416   5.293 -1.0691  0.8772 -1.5666
 7554TIP3    H246858   0.765   3.307   5.370  1.6280  0.4344  0.4485
 7555TIP3   OH246859   0.977   1.346   4.781  0.0597 -0.3498  0.5844
 7555TIP3    H146860   0.965   1.354   4.687  0.6536  1.3449  0.6229
 7555TIP3    H246861   1.067   1.314   4.791  0.6625  1.2695  0.5854
 7556TIP3   OH246862   5.742   7.023   4.765 -0.5129 -0.0750  0.3797
 7556TIP3    H146863   5.669   7.005   4.706 -0.7056 -0.0949  0.6261
 7556TIP3    H246864   5.791   6.940   4.768 -0.3511  0.0061  0.0368
 7557TIP3   OH246865   1.246   0.751   6.338 -0.3296  0.1064 -0.3175
 7557TIP3    H146866   1.230   0.835   6.294  1.3110  1.0198  0.7196
 7557TIP3    H246867   1.188   0.753   6.414  0.2164  0.6498  0.0964
 7558TIP3   OH246868   0.099   2.682   6.122  0.1413 -0.3993 -0.3741
 7558TIP3    H146869   0.065   2.627   6.050 -0.3631 -0.7539  0.1252
 7558TIP3    H246870   0.171   2.631   6.158  1.2965  0.3858 -1.4797
 7559TIP3   OH246871   2.507   5.817   5.695 -0.0838  0.4658 -0.5934
 7559TIP3    H146872   2.502   5.737   5.643  1.6666 -1.0484  1.3877
 7559TIP3    H246873   2.601   5.832   5.708 -0.3522  2.9227 -0.9266
 7560TIP3   OH246874   2.614   5.529   6.618  0.7299 -0.3477 -0.4863
 7560TIP3    H146875   2.540   5.517   6.677  0.5263  2.1903 -0.1514
 7560TIP3    H246876   2.585   5.491   6.535 -0.5083 -0.3622 -0.0624
 7561TIP3   OH246877   0.488   6.410   4.973 -0.3453 -0.8229  0.6179
 7561TIP3    H146878   0.461   6.328   4.931  0.0321 -1.6818  1.9752
 7561TIP3    H246879   0.583   6.413   4.962 -0.1930 -1.2398  1.6643
 7562TIP3   OH246880   5.329   6.068   5.466 -0.3987  0.0747 -0.3263
 7562TIP3    H146881   5.243   6.026   5.463 -0.5463  0.4255 -2.3919
 7562TIP3    H246882   5.389   5.997   5.491 -0.9626 -0.8157 -1.3892
 7563TIP3   OH246883   4.569   1.338   5.451 -0.8822 -0.5072  0.3297
 7563TIP3    H146884   4.560   1.304   5.539 -2.4231  0.4751  0.6037
 7563TIP3    H246885   4.633   1.409   5.458 -0.2847 -1.0517  0.4472
 7564TIP3   OH246886   6.005   7.278   6.243 -0.6201 -0.5600 -0.0611
 7564TIP3    H146887   5.924   7.323   6.268  0.4255  1.0872  0.5951
 7564TIP3    H246888   6.038   7.329   6.169  0.2417 -0.6734  0.2330
 7565TIP3   OH246889   3.123   6.071   4.033 -0.1393  0.1211  0.9496
 7565TIP3    H146890   3.104   6.001   4.095  0.3653  0.2014  1.1950
 7565TIP3    H246891   3.163   6.026   3.958 -1.0855 -0.0223  0.5189
 7566TIP3   OH246892   6.264   0.247   5.238 -0.7520 -0.2168 -0.3060
 7566TIP3    H146893   6.300   0.235   5.326  2.6148 -0.6267 -1.5918
 7566TIP3    H246894   6.260   0.342   5.226  2.9339 -0.0039 -1.0623
 7567TIP3   OH246895   6.351   6.409   4.521  0.0202 -0.3541 -0.0723
 7567TIP3    H146896   6.281   6.344   4.522 -0.2403 -0.0638  0.3843
 7567TIP3    H246897   6.413   6.377   4.587  1.3763 -1.7594 -1.9089
 7568TIP3   OH246898   0.262   6.572   3.868  0.3590 -0.0295 -0.3969
 7568TIP3    H146899   0.302   6.588   3.953 -1.3289  2.0415  0.1032
 7568TIP3    H246900   0.200   6.644   3.857 -1.7984 -1.9599 -1.9409
 7569TIP3   OH246901   4.010   1.303   5.103 -0.4618 -0.3135  0.6385
 7569TIP3    H146902   4.098   1.308   5.067 -1.0010  1.8946 -0.5077
 7569TIP3    H246903   3.998   1.386   5.149 -2.4845  0.1689 -0.6195
 7570TIP3   OH246904   1.503   5.305   6.296 -0.1514  0.3385 -0.3111
 7570TIP3    H146905   1.587   5.337   6.262  0.5790 -1.0726  0.0988
 7570TIP3    H246906   1.460   5.384   6.330 -0.9935  1.9192 -4.4046
 7571TIP3   OH246907   5.922   7.188   6.842 -0.3977 -0.7374 -0.5003
 7571TIP3    H146908   5.901   7.220   6.755 -0.1501 -1.9295 -1.0199
 7571TIP3    H246909   6.016   7.171   6.840 -0.4230 -0.9571 -0.0701
 7572TIP3   OH246910   2.391   4.207   5.153  0.1115 -0.3083 -0.4962
 7572TIP3    H146911   2.454   4.211   5.225 -0.5373  1.6525  0.0338
 7572TIP3    H246912   2.442   4.230   5.075  0.0744  1.4186 -0.0494
 7573TIP3   OH246913   7.151   6.151   5.596  0.5815 -0.5429  0.7820
 7573TIP3    H146914   7.064   6.142   5.557  0.4192 -0.1757  1.0553
 7573TIP3    H246915   7.180   6.239   5.573  0.5977 -0.4215  1.2533
 7574TIP3   OH246916   7.641   2.442   4.050  0.4553 -0.0884  0.5043
 7574TIP3    H146917   7.623   2.467   4.140  0.6751 -0.4849  0.6629
 7574TIP3    H246918   7.635   2.347   4.050 -0.2630 -0.0511 -0.0632
 7575TIP3   OH246919   5.570   4.600   6.314  0.0139 -0.6136 -0.5744
 7575TIP3    H146920   5.500   4.549   6.354 -0.0533  0.9313  1.4403
 7575TIP3    H246921   5.524   4.663   6.258 -0.0238 -1.3596 -1.3956
 7576TIP3   OH246922   1.679   6.254   3.888 -0.3020 -0.1083  0.1174
 7576TIP3    H146923   1.617   6.321   3.859  0.7986  0.8882  0.0230
 7576TIP3    H246924   1.741   6.245   3.816  0.0931 -0.5659  0.5040
 7577TIP3   OH246925   3.089   2.538   4.950  0.1054  0.2410 -0.5554
 7577TIP3    H146926   3.029   2.464   4.955  1.3629 -0.8651 -1.0355
 7577TIP3    H246927   3.037   2.609   4.914 -1.1307 -0.4281 -0.1378
 7578TIP3   OH246928   7.431   1.537   4.401 -0.6694  0.3255  0.0327
 7578TIP3    H146929   7.341   1.532   4.371 -0.4094  0.9750 -0.8977
 7578TIP3    H246930   7.427   1.593   4.479 -0.7768  2.4665 -1.4140
 7579TIP3   OH246931   3.569   2.355   6.644  0.2637 -0.1354 -0.0752
 7579TIP3    H146932   3.537   2.298   6.713  1.5826 -0.6041  0.1861
 7579TIP3    H246933   3.656   2.383   6.674 -0.7814  2.9785  0.3606
 7580TIP3   OH246934   4.020   6.771   5.677  0.0134 -0.0962 -0.3721
 7580TIP3    H146935   4.095   6.830   5.670  0.6700 -1.0732 -1.8105
 7580TIP3    H246936   4.031   6.728   5.762  0.4806  0.5306 -0.1030
 7581TIP3   OH246937   4.998   3.471   5.383  0.0111  0.2690 -0.5549
 7581TIP3    H146938   5.026   3.552   5.425  1.9127 -0.4808 -0.2816
 7581TIP3    H246939   4.905   3.465   5.403 -0.1045  2.1831 -0.2722
 7582TIP3   OH246940   5.860   4.514   5.321  0.1389  0.1515 -0.2553
 7582TIP3    H146941   5.858   4.605   5.349  0.4513 -0.2529  1.1847
 7582TIP3    H246942   5.888   4.466   5.399 -1.6824 -1.3697 -0.4672
 7583TIP3   OH246943   4.223   6.429   6.274 -0.2268  0.1115  0.1618
 7583TIP3    H146944   4.194   6.353   6.223  2.3937 -1.5921  1.0313
 7583TIP3    H246945   4.315   6.439   6.252 -0.1090  2.0628  1.3176
 7584TIP3   OH246946   0.057   5.138   6.150 -0.4321  0.6777 -0.0701
 7584TIP3    H146947   0.057   5.042   6.155  0.3002  0.6782  0.0080
 7584TIP3    H246948  -0.021   5.165   6.198 -1.3548  0.0658 -1.1809
 7585TIP3   OH246949   6.388   3.081   5.839  0.0624  0.1529 -0.3215
 7585TIP3    H146950   6.452   3.015   5.865 -0.3428 -0.1087  0.0221
 7585TIP3    H246951   6.412   3.159   5.889  0.1458  0.0749 -0.2392
 7586TIP3   OH246952   4.905   7.470   6.099  0.0339  0.2778 -0.0726
 7586TIP3    H146953   4.919   7.403   6.166  1.3262 -0.3805 -0.9517
 7586TIP3    H246954   4.810   7.482   6.097 -0.1936 -1.2046  0.4159
 7587TIP3   OH246955   3.473   6.033   6.135 -0.0866  0.1889 -0.1255
 7587TIP3    H146956   3.472   6.128   6.126 -2.2887  0.3988  1.5088
 7587TIP3    H246957   3.494   6.017   6.227 -1.3399 -0.8119  0.0158
 7588TIP3   OH246958   5.313   7.677   5.466  0.1976  0.3437  0.0092
 7588TIP3    H146959   5.375   7.750   5.463  0.9353 -0.2270  0.9284
 7588TIP3    H246960   5.240   7.705   5.411  0.0981  2.1089  0.9802
 7589TIP3   OH246961   1.934   4.182   3.880  0.6736  0.1169 -0.6815
 7589TIP3    H146962   1.970   4.150   3.797 -2.4518  0.3555 -2.2691
 7589TIP3    H246963   1.955   4.275   3.881  2.8445 -0.3162  0.0811
 7590TIP3   OH246964   7.665   6.072   6.913  0.3046 -0.1268  0.2981
 7590TIP3    H146965   7.753   6.103   6.893 -0.0337  0.9821  0.4718
 7590TIP3    H246966   7.675   5.978   6.927  1.6607  0.1483  1.4155
 7591TIP3   OH246967   7.397   6.834   6.404  0.5194 -0.0470  0.1609
 7591TIP3    H146968   7.464   6.890   6.442  0.2250 -0.1051  0.7689
 7591TIP3    H246969   7.340   6.810   6.477  1.0390 -1.7350  0.0702
 7592TIP3   OH246970   4.505   6.399   5.553  0.1783  0.2926  0.2814
 7592TIP3    H146971   4.582   6.429   5.601  0.9042 -1.1495  0.0758
 7592TIP3    H246972   4.449   6.360   5.620  0.0809  0.4430  0.2882
 7593TIP3   OH246973   2.764   6.566   4.625  0.1167 -0.0034  0.1458
 7593TIP3    H146974   2.857   6.543   4.632 -0.2388 -1.8741 -0.5697
 7593TIP3    H246975   2.760   6.628   4.553  0.5155 -2.4021 -2.0867
 7594TIP3   OH246976   3.413   3.627   6.438 -0.2128  0.2030  0.1897
 7594TIP3    H146977   3.358   3.633   6.516 -1.1531 -0.7481 -0.3602
 7594TIP3    H246978   3.373   3.556   6.387  0.7663  0.3737 -0.8469
 7595TIP3   OH246979   7.525   0.821   5.764  0.1605  0.5088 -0.0027
 7595TIP3    H146980   7.548   0.758   5.833 -0.9408  0.6856  0.5513
 7595TIP3    H246981   7.436   0.847   5.785 -0.0819  0.8065 -1.3404
 7596TIP3   OH246982   0.029   4.933   4.063  1.0603 -0.3828  0.1478
 7596TIP3    H146983   0.060   5.015   4.026 -1.3615 -0.0852 -1.4864
 7596TIP3    H246984   0.084   4.866   4.022  1.9927  0.3197  0.2390
 7597TIP3   OH246985   3.563   5.255   5.364  0.2403 -0.2469 -0.0010
 7597TIP3    H146986   3.505   5.330   5.350 -0.5391 -0.8245  0.0168
 7597TIP3    H246987   3.616   5.279   5.440 -0.4311  0.0483  0.3827
 7598TIP3   OH246988   1.635   3.362   3.928  0.4516 -0.1138 -0.1604
 7598TIP3    H146989   1.542   3.344   3.938  0.5864 -0.8608 -0.1868
 7598TIP3    H246990   1.646   3.451   3.959 -0.1361 -0.3125  0.6458
 7599TIP3   OH246991   5.109   5.029   5.419 -0.1420  0.1662 -0.4494
 7599TIP3    H146992   5.127   4.951   5.471 -1.6574 -1.6925 -2.5082
 7599TIP3    H246993   5.020   5.016   5.386 -1.0336  3.4784  0.2129
 7600TIP3   OH246994   6.149   2.990   6.140  0.0257  0.5613 -0.2366
 7600TIP3    H146995   6.181   2.976   6.051 -0.4540  1.9435 -0.6557
 7600TIP3    H246996   6.225   2.973   6.196  0.0755 -1.2819 -0.8093
 7601TIP3   OH246997   1.068   3.359   4.365  0.5713  0.3815 -0.9006
 7601TIP3    H146998   0.989   3.329   4.319 -1.1496 -0.5041  2.3731
 7601TIP3    H246999   1.035   3.405   4.442  3.2540 -0.5248  0.9191
 7602TIP3   OH247000   1.286   0.771   5.596  0.6783 -0.3048  0.1710
 7602TIP3    H147001   1.263   0.835   5.528  0.9462 -0.7359 -0.3344
 7602TIP3    H247002   1.298   0.824   5.675  1.2997  0.3184 -0.3257
 7603TIP3   OH247003   0.796   5.810   5.892 -0.3188 -0.0097 -0.0409
 7603TIP3    H147004   0.744   5.853   5.824 -0.2281  0.1294 -0.0228
 7603TIP3    H247005   0.825   5.729   5.852  0.6199  0.5613 -0.5366
 7604TIP3   OH247006   7.042   4.995   5.510  0.4245 -0.4797  0.0392
 7604TIP3    H147007   7.099   5.028   5.579  0.1511 -1.3627  0.7092
 7604TIP3    H247008   7.079   4.910   5.486  0.4086 -0.2690 -0.7756
 7605TIP3   OH247009   1.590   2.036   4.415  0.3916  0.3300  0.2013
 7605TIP3    H147010   1.496   2.050   4.419  0.3373  0.9018 -1.7333
 7605TIP3    H247011   1.627   2.108   4.467 -0.2236  0.7590  0.0594
 7606TIP3   OH247012   6.207   3.897   5.485 -0.2012 -0.2018  0.3765
 7606TIP3    H147013   6.214   3.875   5.392 -3.9981  2.2815 -0.7211
 7606TIP3    H247014   6.264   3.973   5.495 -0.4609  0.0744 -0.1785
 7607TIP3   OH247015   1.406   0.314   5.053  0.1269  0.0191 -0.6834
 7607TIP3    H147016   1.378   0.389   5.105 -2.3162 -1.4459  0.2968
 7607TIP3    H247017   1.444   0.253   5.116 -1.2081 -1.0243 -0.8333
 7608TIP3   OH247018   3.575   2.037   4.973  0.0435 -0.2701  0.4694
 7608TIP3    H147019   3.543   1.952   4.943 -0.4914  0.3600 -0.8449
 7608TIP3    H247020   3.503   2.074   5.023 -0.0757 -0.2127  0.2579
 7609TIP3   OH247021   1.402   2.753   5.887 -0.0051 -0.7844 -0.2014
 7609TIP3    H147022   1.446   2.720   5.965 -0.4159  0.4444  0.5861
 7609TIP3    H247023   1.334   2.811   5.921  0.5263  0.6630 -1.4739
 7610TIP3   OH247024   0.075   3.570   4.243  0.1948  0.1830 -0.1835
 7610TIP3    H147025  -0.003   3.623   4.261 -0.0227 -1.1677  3.5363
 7610TIP3    H247026   0.048   3.513   4.171 -2.1242  0.0399  0.7239
 7611TIP3   OH247027   7.441   6.849   5.288  0.4784 -0.5379 -0.5891
 7611TIP3    H147028   7.468   6.833   5.198 -0.7128 -1.1496 -0.8693
 7611TIP3    H247029   7.412   6.940   5.288  0.8138 -0.4296 -0.7334
 7612TIP3   OH247030   7.481   1.188   5.775  0.1602  0.0079 -0.4975
 7612TIP3    H147031   7.407   1.246   5.754  1.7605  2.2199 -0.3089
 7612TIP3    H247032   7.440   1.113   5.818 -1.9406  1.3925  0.0834
 7613TIP3   OH247033   6.818   4.191   4.748 -0.0827 -0.1797 -0.6050
 7613TIP3    H147034   6.841   4.098   4.759 -0.5842 -0.3896 -1.2459
 7613TIP3    H247035   6.791   4.198   4.656 -0.3418  0.5400 -0.4806
 7614TIP3   OH247036   3.805   7.076   4.396  0.2934  0.2405 -0.5090
 7614TIP3    H147037   3.817   7.171   4.393  0.2836  0.2174 -2.7269
 7614TIP3    H247038   3.848   7.049   4.477 -0.1865  2.1810  0.4507
 7615TIP3   OH247039   5.206   5.508   4.955  0.0971  0.2934  0.1001
 7615TIP3    H147040   5.200   5.603   4.944 -1.2607  0.1375 -0.8106
 7615TIP3    H247041   5.222   5.474   4.867  0.9853 -0.3010  0.4819
 7616TIP3   OH247042   0.959   0.718   3.983 -0.1601  0.1219 -0.3006
 7616TIP3    H147043   0.930   0.809   3.973  0.0534  0.1096 -1.0357
 7616TIP3    H247044   0.999   0.715   4.070 -1.5264  0.3655  0.3573
 7617TIP3   OH247045   2.789   2.158   4.017  0.1946  0.1610 -0.2628
 7617TIP3    H147046   2.718   2.179   3.956 -0.1542  2.2915  0.8082
 7617TIP3    H247047   2.799   2.236   4.071  2.1355 -0.7708  0.8381
 7618TIP3   OH247048   0.957   7.519   4.775  0.6215 -0.2138  0.1543
 7618TIP3    H147049   0.993   7.561   4.697 -3.0104 -1.3496 -2.4077
 7618TIP3    H247050   0.909   7.590   4.819 -0.0244 -0.2250 -0.5072
 7619TIP3   OH247051   3.505   7.219   4.336  0.1921 -0.2064 -0.1216
 7619TIP3    H147052   3.462   7.140   4.369 -2.0903  0.8698 -0.3699
 7619TIP3    H247053   3.489   7.285   4.403  1.0434  0.3620 -0.4677
 7620TIP3   OH247054   4.198   6.271   5.514  0.1582  0.5120 -0.2163
 7620TIP3    H147055   4.169   6.197   5.568 -1.0037 -0.7374 -2.3980
 7620TIP3    H247056   4.140   6.343   5.540  0.8642  0.5272  1.4661
 7621TIP3   OH247057   5.585   2.676   5.141 -0.1428  0.5685  0.4864
 7621TIP3    H147058   5.547   2.591   5.119  0.8219  0.2802 -0.1215
 7621TIP3    H247059   5.611   2.713   5.057 -0.3623  1.3796  0.7685
 7622TIP3   OH247060   4.721   3.625   5.743  0.2346  0.0796 -0.5114
 7622TIP3    H147061   4.676   3.588   5.820 -0.3698  0.1644 -0.8139
 7622TIP3    H247062   4.772   3.697   5.778  1.2332 -0.8677  0.0532
 7623TIP3   OH247063   3.095   0.665   4.743 -0.0100 -0.6713 -0.3258
 7623TIP3    H147064   3.180   0.677   4.785 -0.0987 -2.1835  0.3492
 7623TIP3    H247065   3.032   0.701   4.805 -0.0133 -1.5134  0.1807
 7624TIP3   OH247066   7.573   5.649   5.965  0.4772 -0.1920 -0.0618
 7624TIP3    H147067   7.516   5.585   5.921  0.3828  0.6875 -1.2802
 7624TIP3    H247068   7.655   5.645   5.917  0.1935  1.1824 -0.7131
 7625TIP3   OH247069   6.796   0.884   4.964 -0.2579 -0.7429 -0.1080
 7625TIP3    H147070   6.738   0.823   5.008 -0.5718 -0.3496  0.0261
 7625TIP3    H247071   6.738   0.950   4.926  0.0929 -0.3799 -0.0208
 7626TIP3   OH247072   4.609   7.017   4.089 -0.3007  0.2951 -0.2694
 7626TIP3    H147073   4.541   6.992   4.151  0.9697 -0.4946  0.8605
 7626TIP3    H247074   4.677   7.058   4.143  0.4318  0.4035 -1.2472
 7627TIP3   OH247075   4.320   0.605   5.195  0.5133  0.5480 -0.1089
 7627TIP3    H147076   4.283   0.517   5.181  0.0878  1.1230 -3.2426
 7627TIP3    H247077   4.294   0.627   5.285 -2.3095 -1.1599 -0.3719
 7628TIP3   OH247078   6.351   2.139   6.219 -0.4242  0.0495  0.0719
 7628TIP3    H147079   6.389   2.225   6.200 -1.4448  0.4260 -0.2960
 7628TIP3    H247080   6.259   2.157   6.239 -1.1866 -1.1674 -2.0406
 7629TIP3   OH247081   0.508   5.913   6.250 -0.1387  0.4318 -0.0745
 7629TIP3    H147082   0.603   5.899   6.255 -0.0932  1.1315  1.5670
 7629TIP3    H247083   0.476   5.888   6.336 -1.5345 -0.2496 -0.7676
 7630TIP3   OH247084   4.399   2.919   4.238  0.5094 -0.4185  0.2735
 7630TIP3    H147085   4.375   2.826   4.234 -0.4196 -0.1745 -0.1725
 7630TIP3    H247086   4.449   2.934   4.158  1.3155 -0.6975  0.7128
 7631TIP3   OH247087   3.463   5.142   4.071 -0.0292  0.2694  0.1042
 7631TIP3    H147088   3.426   5.057   4.044 -0.1395  0.2010  0.4746
 7631TIP3    H247089   3.558   5.126   4.075  0.1961  0.7627 -2.0339
 7632TIP3   OH247090   1.400   0.536   5.511 -0.2676  0.3091  0.6246
 7632TIP3    H147091   1.329   0.471   5.518  0.1929 -0.1538  1.0309
 7632TIP3    H247092   1.357   0.619   5.529 -0.3854 -0.1438  2.5936
 7633TIP3   OH247093   2.271   1.971   4.199 -0.2967  0.0711 -0.1771
 7633TIP3    H147094   2.297   1.888   4.239 -0.4961  0.5071  0.8906
 7633TIP3    H247095   2.351   2.005   4.160  0.2870  0.3931  1.2367
 7634TIP3   OH247096   4.760   3.877   4.555  0.0446  0.2614  0.5675
 7634TIP3    H147097   4.767   3.956   4.502 -1.0821  0.1022  0.1617
 7634TIP3    H247098   4.666   3.865   4.569 -0.0520 -2.3910 -1.5421
 7635TIP3   OH247099   2.993   3.254   5.357  0.6772  0.1903 -0.4420
 7635TIP3    H147100   2.995   3.247   5.453  2.3840  0.5290 -0.4254
 7635TIP3    H247101   2.903   3.279   5.337 -0.6952 -3.2373  0.7901
 7636TIP3   OH247102   2.942   2.299   5.010  0.0494  0.5051  0.2716
 7636TIP3    H147103   2.905   2.277   4.924  0.5573  0.1287  0.1409
 7636TIP3    H247104   2.876   2.269   5.073 -0.3458  0.8241  0.0145
 7637TIP3   OH247105   6.365   7.217   3.945  0.6301  0.6066  0.1068
 7637TIP3    H147106   6.335   7.225   4.036  1.4844 -0.3427  0.4792
 7637TIP3    H247107   6.456   7.245   3.947  1.3805 -1.6448  0.0152
 7638TIP3   OH247108   1.221   0.781   4.611  0.4297 -0.4080  0.6357
 7638TIP3    H147109   1.304   0.758   4.570 -0.2909 -2.2558  0.0856
 7638TIP3    H247110   1.234   0.763   4.704  1.6903  2.6675  1.1808
 7639TIP3   OH247111   7.142   6.905   4.483  0.2644 -0.0659 -0.3441
 7639TIP3    H147112   7.054   6.935   4.457  0.1962 -0.4520 -0.5655
 7639TIP3    H247113   7.145   6.814   4.454 -0.6912 -1.3252  3.0177
 7640TIP3   OH247114   6.051   1.525   6.320  0.6582 -0.1904 -0.1857
 7640TIP3    H147115   6.142   1.510   6.347  0.6844  1.0248  0.4673
 7640TIP3    H247116   6.005   1.545   6.401  0.1936  0.9959 -0.7085
 7641TIP3   OH247117   6.509   1.493   5.620 -0.2551  0.3575  0.0900
 7641TIP3    H147118   6.491   1.446   5.702 -1.5142 -0.0024 -0.3639
 7641TIP3    H247119   6.436   1.470   5.563  0.6442  0.5414 -1.1773
 7642TIP3   OH247120   3.478   5.784   4.475 -0.6569 -0.3980 -0.2795
 7642TIP3    H147121   3.475   5.693   4.445 -1.2147 -0.3473 -0.3989
 7642TIP3    H247122   3.511   5.833   4.399  2.9454 -0.8702  0.7881
 7643TIP3   OH247123   4.289   0.561   4.886  0.2894  0.3349 -0.1658
 7643TIP3    H147124   4.299   0.467   4.899  2.8746  0.5393 -0.0489
 7643TIP3    H247125   4.342   0.601   4.955 -2.1245  1.9966  0.8826
 7644TIP3   OH247126   0.210   4.809   5.516 -0.1544  0.1103  0.2681
 7644TIP3    H147127   0.301   4.807   5.490  0.3794  2.3666  1.6388
 7644TIP3    H247128   0.176   4.722   5.496  2.3771 -0.8901  0.0802
 7645TIP3   OH247129   5.807   3.802   5.946 -0.3612  0.6527  0.1081
 7645TIP3    H147130   5.830   3.736   5.881  0.0138  1.5690 -0.7259
 7645TIP3    H247131   5.759   3.755   6.014  1.0558 -0.7082  0.2046
 7646TIP3   OH247132   3.634   6.429   4.543 -0.6646  0.7481 -0.3857
 7646TIP3    H147133   3.577   6.354   4.527  1.8110 -1.9410  2.1877
 7646TIP3    H247134   3.701   6.423   4.474  0.0346 -0.0451  0.3331
 7647TIP3   OH247135   2.867   5.257   6.472  0.4233 -0.3513 -0.1829
 7647TIP3    H147136   2.949   5.227   6.433  1.2555 -0.7533  1.7116
 7647TIP3    H247137   2.804   5.188   6.450  1.4050 -1.6893  0.9494
 7648TIP3   OH247138   6.820   7.010   3.696 -0.3880 -0.1102  0.0171
 7648TIP3    H147139   6.845   6.924   3.729  1.1813 -0.0629 -0.9213
 7648TIP3    H247140   6.859   7.072   3.758 -2.3784 -0.0249  1.2751
 7649TIP3   OH247141   2.012   3.412   5.453  0.1415  0.3304  0.0192
 7649TIP3    H147142   1.961   3.370   5.523 -0.0962  0.3520 -0.1397
 7649TIP3    H247143   2.046   3.492   5.493  1.1295 -0.3209  0.5205
 7650TIP3   OH247144   1.642   0.373   5.844 -0.7383  0.1102  0.4075
 7650TIP3    H147145   1.585   0.435   5.889  0.5206  1.3088  0.4155
 7650TIP3    H247146   1.582   0.317   5.794 -1.9591  0.7459  1.1170
 7651TIP3   OH247147   4.616   7.479   5.804 -0.1254  0.3476  0.3044
 7651TIP3    H147148   4.542   7.418   5.793  0.1892  0.1263 -0.7029
 7651TIP3    H247149   4.576   7.558   5.841 -0.6981 -0.1269  0.7282
 7652TIP3   OH247150   5.205   1.533   4.775  0.0407  0.2999 -0.4723
 7652TIP3    H147151   5.293   1.570   4.775 -0.0050  0.4128 -0.9833
 7652TIP3    H247152   5.153   1.594   4.826 -0.0702  1.0371 -1.4363
 7653TIP3   OH247153   6.706   1.082   5.170 -0.3472  0.0715 -0.7227
 7653TIP3    H147154   6.734   1.147   5.106  2.3821  0.9356  1.1548
 7653TIP3    H247155   6.731   0.998   5.130  0.8831  0.5588 -1.0477
 7654TIP3   OH247156   7.404   5.108   4.918  0.0830  0.1806 -0.2638
 7654TIP3    H147157   7.426   5.112   5.011 -1.1038 -0.6283  0.0645
 7654TIP3    H247158   7.488   5.090   4.875  0.2759 -2.0260  0.8885
 7655TIP3   OH247159   6.479   4.138   4.917  0.0183  0.0096 -0.0917
 7655TIP3    H147160   6.563   4.092   4.910 -0.1123 -0.4344  1.1079
 7655TIP3    H247161   6.482   4.182   5.002 -1.1044 -0.3014  0.1253
 7656TIP3   OH247162   0.959   6.362   3.719 -0.0715  0.1796 -0.3100
 7656TIP3    H147163   0.967   6.377   3.813 -1.4486  0.6235 -0.2430
 7656TIP3    H247164   1.003   6.436   3.679  1.7831 -0.7341 -0.0533
 7657TIP3   OH247165   4.280   1.216   4.975 -0.5185 -0.0249 -0.2550
 7657TIP3    H147166   4.267   1.137   4.922 -0.7797 -0.2477  0.1388
 7657TIP3    H247167   4.320   1.279   4.914 -2.0437  0.1751 -1.0971
 7658TIP3   OH247168   5.727   4.027   6.438  0.2917 -0.0023  0.7616
 7658TIP3    H147169   5.818   3.999   6.444  0.8158  1.7526  2.1597
 7658TIP3    H247170   5.696   4.026   6.529  0.3500  3.5438  0.9660
 7659TIP3   OH247171   3.328   2.446   4.719  0.0573  0.8262 -0.2675
 7659TIP3    H147172   3.391   2.508   4.683 -0.7616  1.1601 -1.1732
 7659TIP3    H247173   3.247   2.463   4.670 -0.2696 -0.7493 -0.3338
 7660TIP3   OH247174   1.130   2.296   4.955 -0.1871 -0.2408  0.4158
 7660TIP3    H147175   1.154   2.368   4.897  1.2728 -1.2228 -0.2684
 7660TIP3    H247176   1.213   2.251   4.973 -1.0248 -1.6199  0.9842
 7661TIP3   OH247177   6.000   3.519   4.318  0.5785 -0.2174  0.2773
 7661TIP3    H147178   5.970   3.429   4.330 -0.7313  0.2234  0.4475
 7661TIP3    H247179   5.923   3.566   4.288  1.3463  0.7762 -0.1878
 7662TIP3   OH247180   2.563   3.242   5.207  0.5260  0.4457 -0.7933
 7662TIP3    H147181   2.654   3.221   5.183  0.4204 -0.4553 -0.4729
 7662TIP3    H247182   2.541   3.317   5.153  1.7269  1.1940 -0.2916
 7663TIP3   OH247183   6.557   4.638   6.795  0.6149 -0.0893  0.5639
 7663TIP3    H147184   6.545   4.548   6.763 -1.0486  0.2147  0.2770
 7663TIP3    H247185   6.469   4.675   6.797  1.2493  1.4655  0.9289
 7664TIP3   OH247186   4.045   0.613   5.023 -0.3280  0.0575  0.2481
 7664TIP3    H147187   4.091   0.625   4.940 -2.0834 -1.4747 -1.0209
 7664TIP3    H247188   4.104   0.558   5.075  1.8505  2.8847  1.0652
 7665TIP3   OH247189   1.934   0.518   4.771 -0.1497  0.1843 -0.0681
 7665TIP3    H147190   2.019   0.490   4.807  0.0396  1.0940  0.2231
 7665TIP3    H247191   1.917   0.457   4.700  0.7356 -0.0373 -0.1017
 7666TIP3   OH247192   7.292   0.549   4.932  0.0245 -0.1777  0.2652
 7666TIP3    H147193   7.206   0.583   4.905 -0.2263 -0.5863  0.5475
 7666TIP3    H247194   7.284   0.535   5.026  0.6052  0.3715  0.3964
 7667TIP3   OH247195   0.406   6.167   3.692  0.5178 -0.0046  1.1288
 7667TIP3    H147196   0.457   6.163   3.611 -0.1851 -0.0352  0.6783
 7667TIP3    H247197   0.402   6.261   3.713  0.5303  0.0204  1.0196
 7668TIP3   OH247198   2.621   7.048   5.365 -0.6578  0.1316 -0.7042
 7668TIP3    H147199   2.617   7.143   5.362 -0.5009  0.2829  1.9115
 7668TIP3    H247200   2.554   7.022   5.429  1.7372 -1.1588  1.5070
 7669TIP3   OH247201   0.405   6.729   5.816 -0.2582  0.3904 -0.1824
 7669TIP3    H147202   0.471   6.779   5.769  0.1726  1.0014  1.0231
 7669TIP3    H247203   0.325   6.739   5.765  0.5902 -0.5141 -1.7713
 7670TIP3   OH247204   3.378   1.738   4.597 -0.1611 -0.4154 -0.0642
 7670TIP3    H147205   3.337   1.819   4.569 -0.3715  0.2981  2.1191
 7670TIP3    H247206   3.371   1.680   4.521 -0.6990  1.3280 -1.4099
 7671TIP3   OH247207   0.848   2.474   4.890  0.2412  0.0011 -0.1752
 7671TIP3    H147208   0.871   2.564   4.914  1.2071 -0.1729 -0.3790
 7671TIP3    H247209   0.767   2.482   4.840  0.6668  0.8386 -0.7585
 7672TIP3   OH247210   4.715   7.087   4.592  0.1642 -0.8558  0.1605
 7672TIP3    H147211   4.799   7.064   4.631 -0.3955 -0.4000  1.7068
 7672TIP3    H247212   4.694   7.173   4.629  0.4921  0.5727 -2.6635
 7673TIP3   OH247213   4.171   4.547   4.854  0.2891  0.2013 -0.2388
 7673TIP3    H147214   4.083   4.537   4.817  0.1774  1.0089 -0.2058
 7673TIP3    H247215   4.221   4.589   4.784  0.0979  1.6630  0.4638
 7674TIP3   OH247216   2.074   7.286   4.498 -0.1553 -0.0640  0.1828
 7674TIP3    H147217   2.101   7.311   4.410 -0.1169  2.6009  0.8834
 7674TIP3    H247218   2.098   7.360   4.553 -1.9616 -0.8050  2.1141
 7675TIP3   OH247219   0.124   5.372   5.318 -0.4223 -0.0123  0.1007
 7675TIP3    H147220   0.215   5.395   5.333 -0.3700 -0.6924  0.8820
 7675TIP3    H247221   0.097   5.327   5.398 -1.0507 -0.9816 -0.6344
 7676TIP3   OH247222   5.821   4.128   4.142  0.4424  0.0397  0.3281
 7676TIP3    H147223   5.871   4.207   4.163  0.6377  0.4583 -1.5283
 7676TIP3    H247224   5.849   4.105   4.053 -1.1599 -0.8976  0.0225
 7677TIP3   OH247225   5.871   7.032   5.633  0.1998 -0.1595  0.2955
 7677TIP3    H147226   5.856   7.126   5.639  0.8582 -0.0829  0.8702
 7677TIP3    H247227   5.839   7.008   5.546  0.9885  0.7676 -0.2628
 7678TIP3   OH247228   1.092   7.097   4.269  0.3089  0.9703  0.4538
 7678TIP3    H147229   1.076   7.027   4.206 -0.6690  1.1411  0.5059
 7678TIP3    H247230   1.186   7.092   4.286  0.1793 -0.7410  0.9319
 7679TIP3   OH247231   5.196   6.584   4.099 -0.4968 -0.4309 -0.7579
 7679TIP3    H147232   5.159   6.669   4.078  1.6943  0.3198 -1.8495
 7679TIP3    H247233   5.287   6.589   4.070 -0.1794 -3.0019 -0.4705
 7680TIP3   OH247234   4.630   4.430   4.947  0.1184 -0.4533  0.0958
 7680TIP3    H147235   4.538   4.406   4.937  0.4670 -1.3362 -1.2162
 7680TIP3    H247236   4.629   4.525   4.961 -0.9286 -0.2915 -0.9769
 7681TIP3   OH247237   4.368   6.791   5.595  0.2198  0.1426  0.0537
 7681TIP3    H147238   4.340   6.712   5.640 -2.8437  0.6303 -0.7880
 7681TIP3    H247239   4.332   6.863   5.648 -0.8096  0.8066 -1.4784
 7682TIP3   OH247240   0.669   0.543   4.792  0.3431 -1.0360 -0.3696
 7682TIP3    H147241   0.738   0.496   4.839  1.0643 -0.3462 -0.7205
 7682TIP3    H247242   0.692   0.532   4.700  1.5238  1.4352 -0.4299
 7683TIP3   OH247243   2.292   0.491   5.395 -0.1113  0.5856 -0.0234
 7683TIP3    H147244   2.329   0.571   5.356  1.0388 -0.2255 -0.6596
 7683TIP3    H247245   2.368   0.435   5.409 -0.9156 -0.4217  0.3863
 7684TIP3   OH247246   4.838   2.278   4.587 -0.6345  0.0152  0.2586
 7684TIP3    H147247   4.758   2.234   4.614 -0.2304 -0.7499  0.2231
 7684TIP3    H247248   4.831   2.284   4.492 -1.6824  1.9856  0.4057
 7685TIP3   OH247249   4.674   7.654   4.237 -0.3137  0.2323 -0.2648
 7685TIP3    H147250   4.752   7.709   4.244 -0.3320  0.5192 -1.9302
 7685TIP3    H247251   4.670   7.608   4.321  2.0665 -0.3338 -0.3674
 7686TIP3   OH247252   6.352   3.791   3.665 -0.1302 -0.0094 -0.1210
 7686TIP3    H147253   6.357   3.796   3.569  2.6489 -1.2170 -0.1400
 7686TIP3    H247254   6.440   3.814   3.695 -0.9623  0.4297  2.1695
 7687TIP3   OH247255   1.832   4.189   6.368 -0.0381 -0.6296  0.7536
 7687TIP3    H147256   1.816   4.238   6.448  1.0128 -0.1196  0.6643
 7687TIP3    H247257   1.788   4.239   6.299  0.5986 -0.0845  0.7408
 7688TIP3   OH247258   3.249   3.413   6.022 -0.4559 -0.2255  0.0855
 7688TIP3    H147259   3.321   3.363   6.061  1.0039  1.0430 -0.8566
 7688TIP3    H247260   3.170   3.370   6.055  0.6745 -3.0390 -0.5067
 7689TIP3   OH247261   4.105   6.589   6.473  0.0926  0.4315 -0.2763
 7689TIP3    H147262   4.142   6.511   6.432  0.3019  0.4402 -0.1010
 7689TIP3    H247263   4.051   6.629   6.404 -0.5043 -0.1937 -0.1853
 7690TIP3   OH247264   4.890   2.848   6.269 -0.8326 -0.1083 -0.1322
 7690TIP3    H147265   4.821   2.901   6.229 -0.9189 -0.1285 -0.0116
 7690TIP3    H247266   4.861   2.836   6.360 -0.8207 -0.3761 -0.1646
 7691TIP3   OH247267   7.161   5.023   5.741 -0.3457 -0.3787 -0.4393
 7691TIP3    H147268   7.249   5.017   5.778 -0.9578 -1.0876  1.0124
 7691TIP3    H247269   7.106   4.975   5.803 -1.7175 -0.1745 -1.4489
 7692TIP3   OH247270   5.726   1.110   5.819  0.5894 -0.1034 -0.6566
 7692TIP3    H147271   5.789   1.039   5.810 -0.6647 -1.2435 -0.8204
 7692TIP3    H247272   5.664   1.080   5.886 -0.4329  0.4493 -1.3109
 7693TIP3   OH247273   6.966   3.610  12.214  0.1589 -0.0198 -0.1339
 7693TIP3    H147274   6.969   3.519  12.243  1.4627  0.6929  2.1666
 7693TIP3    H247275   6.876   3.637  12.231  0.0254 -0.5895  0.0880
 7694TIP3   OH247276   3.948   6.542   4.076  0.2281 -0.1226 -0.1494
 7694TIP3    H147277   3.879   6.505   4.020  0.7102 -0.2659 -0.6591
 7694TIP3    H247278   3.900   6.592   4.143 -0.3344  0.6586 -1.1120
 7695TIP3   OH247279   4.818   7.023   3.721 -0.3031  0.2039 -0.3114
 7695TIP3    H147280   4.836   6.993   3.632 -0.0865 -1.8996  0.3823
 7695TIP3    H247281   4.821   6.943   3.775  1.7896  1.6248  1.9284
 7696TIP3   OH247282   6.166   5.506   4.569 -0.3181 -0.6027 -0.0355
 7696TIP3    H147283   6.216   5.580   4.534 -0.6681 -1.3203 -2.2082
 7696TIP3    H247284   6.219   5.473   4.642  0.9278  0.4348 -0.4425
 7697TIP3   OH247285   4.351   7.171   6.373  0.4399  0.5467 -0.1085
 7697TIP3    H147286   4.308   7.242   6.325  0.7871  0.2254 -0.9122
 7697TIP3    H247287   4.291   7.097   6.364  0.7873  0.3173 -0.5676
 7698TIP3   OH247288   1.883   2.470   5.110 -0.3097  0.1473  0.2222
 7698TIP3    H147289   1.814   2.491   5.047 -1.0507 -1.9462  0.2618
 7698TIP3    H247290   1.917   2.555   5.138 -0.8170  1.1804 -2.0417
 7699TIP3   OH247291   1.794   3.181   5.112  0.1509 -0.2422  0.6124
 7699TIP3    H147292   1.767   3.094   5.081  0.4018  0.1066 -0.6281
 7699TIP3    H247293   1.888   3.172   5.128  0.3030 -0.0368 -0.1318
 7700TIP3   OH247294   3.362   1.422   4.517 -0.2677  0.0843 -0.4045
 7700TIP3    H147295   3.365   1.327   4.506  1.0428  0.0561 -0.0027
 7700TIP3    H247296   3.279   1.439   4.560  0.1272 -1.0521  0.8641
 7701TIP3   OH247297   6.799   0.257   4.301  0.2640 -0.4088  0.1918
 7701TIP3    H147298   6.739   0.183   4.295  0.3488 -0.3904 -1.6428
 7701TIP3    H247299   6.884   0.220   4.278  0.4561  0.0957  0.0846
 7702TIP3   OH247300   2.292   3.133   5.292 -0.4936  0.1898 -0.0861
 7702TIP3    H147301   2.301   3.044   5.325  0.4236 -0.7063 -2.5194
 7702TIP3    H247302   2.373   3.149   5.244 -0.7074  2.3019  0.1624
 7703TIP3   OH247303   6.280   6.550   4.797 -0.0956  0.1618 -0.8509
 7703TIP3    H147304   6.200   6.518   4.840  0.1530 -1.0115 -1.2298
 7703TIP3    H247305   6.275   6.646   4.806 -1.0929  0.0589 -0.0851
 7704TIP3   OH247306   5.977   1.851   4.664 -1.0439  0.1609  0.2461
 7704TIP3    H147307   6.059   1.899   4.677 -0.2529 -0.6203 -1.5490
 7704TIP3    H247308   5.913   1.919   4.639 -0.3281  0.4821 -0.7513
 7705TIP3   OH247309   1.156   5.494   5.688 -0.9878  0.2121  0.6419
 7705TIP3    H147310   1.111   5.455   5.614 -0.3430 -0.3078  0.5163
 7705TIP3    H247311   1.220   5.428   5.715  2.1186  2.2162 -1.3342
 7706TIP3   OH247312   2.143   2.126   5.998 -0.1573  0.0888 -0.4124
 7706TIP3    H147313   2.175   2.052   6.050  1.3931  1.4074  0.6072
 7706TIP3    H247314   2.075   2.166   6.051 -1.0914 -0.6612 -1.0242
 7707TIP3   OH247315   4.902   3.680   3.961  0.0973  0.4273  0.3568
 7707TIP3    H147316   4.864   3.594   3.978  0.8299 -0.3180 -1.5159
 7707TIP3    H247317   4.842   3.722   3.900  1.6905 -0.4217 -1.9455
 7708TIP3   OH247318   5.301   1.097   5.122 -0.1333 -0.2007 -0.0518
 7708TIP3    H147319   5.273   1.150   5.047  0.3723  1.3033  0.7901
 7708TIP3    H247320   5.309   1.008   5.086  0.7547  0.5917 -1.9453
 7709TIP3   OH247321   1.668   3.372   5.335  0.1498  0.2491  0.3372
 7709TIP3    H147322   1.707   3.322   5.264  1.8279  1.4146  0.3679
 7709TIP3    H247323   1.721   3.452   5.340 -1.4341  1.3044  1.3163
 7710TIP3   OH247324   2.882   4.434   6.479 -0.5683  0.2590  0.0682
 7710TIP3    H147325   2.827   4.507   6.449 -0.9192 -0.3550 -0.8265
 7710TIP3    H247326   2.823   4.378   6.527 -0.1555  0.8782  1.3396
 7711TIP3   OH247327   4.755   2.437   5.567  0.0961 -0.2547 -0.5951
 7711TIP3    H147328   4.821   2.385   5.520 -2.4138 -2.5427 -1.8439
 7711TIP3    H247329   4.697   2.469   5.499 -2.1726 -1.4785  0.6327
 7712TIP3   OH247330   5.990   0.251   5.500  0.0454  0.2094  0.7206
 7712TIP3    H147331   6.046   0.306   5.555 -0.6021 -0.6028  2.2853
 7712TIP3    H247332   5.952   0.188   5.562 -1.4109 -0.2047 -0.5395
 7713TIP3   OH247333   4.686   2.887   4.968  0.0073  0.1217 -0.4180
 7713TIP3    H147334   4.662   2.814   4.911 -1.8484  0.3731 -0.0361
 7713TIP3    H247335   4.722   2.846   5.047  3.1184 -0.2173 -1.8844
 7714TIP3   OH247336   4.705   6.710   4.785 -0.4949  0.3134 -0.4309
 7714TIP3    H147337   4.784   6.760   4.766 -0.8930  0.2898 -2.2942
 7714TIP3    H247338   4.696   6.715   4.881  1.9822 -0.0583 -0.0934
 7715TIP3   OH247339   3.787   7.372   4.183 -0.6930  0.1413 -1.0965
 7715TIP3    H147340   3.800   7.277   4.176  0.7333  0.2204 -0.0368
 7715TIP3    H247341   3.697   7.386   4.156 -0.6921 -1.4272 -2.0029
 7716TIP3   OH247342   1.064   4.264   4.872  0.5171 -0.3043  0.1624
 7716TIP3    H147343   1.097   4.280   4.960 -1.7760 -3.5845  1.8639
 7716TIP3    H247344   1.130   4.208   4.830  1.3482  0.7977 -0.0181
 7717TIP3   OH247345   6.076   3.573   5.391  0.2855  0.1854 -0.3767
 7717TIP3    H147346   6.018   3.628   5.443  0.5654  2.1919 -2.0740
 7717TIP3    H247347   6.028   3.554   5.311  0.5154 -1.4355 -0.1747
 7718TIP3   OH247348   2.478   6.095   4.221 -0.1811  0.7448  0.1697
 7718TIP3    H147349   2.563   6.096   4.177 -0.0516 -2.3416  0.1549
 7718TIP3    H247350   2.432   6.021   4.183 -2.4711  1.6231  1.0287
 7719TIP3   OH247351   4.296   6.179   4.188 -0.1730  0.4282 -0.1587
 7719TIP3    H147352   4.328   6.089   4.197 -1.3167 -0.0427 -0.6642
 7719TIP3    H247353   4.278   6.207   4.278  1.3935  0.6293  0.1199
 7720TIP3   OH247354   2.784   1.499   4.836  0.3028 -0.5942 -0.3106
 7720TIP3    H147355   2.740   1.580   4.863 -1.3558 -1.4859 -0.1616
 7720TIP3    H247356   2.876   1.523   4.826 -0.0370  1.1389  0.3873
 7721TIP3   OH247357   2.686   2.556   4.486 -0.7719 -0.1154 -0.3516
 7721TIP3    H147358   2.595   2.555   4.458 -0.8179 -0.7782 -0.2011
 7721TIP3    H247359   2.730   2.612   4.423 -0.7125 -2.2365 -2.2922
 7722TIP3   OH247360   1.946   1.022   4.028 -0.0413  0.0427  0.6126
 7722TIP3    H147361   1.945   0.926   4.028  0.3743  0.0365  0.4860
 7722TIP3    H247362   2.019   1.046   3.971  0.4959  0.4217  1.4400
 7723TIP3   OH247363   3.546   0.081   5.508  0.5179  0.2578 -0.1615
 7723TIP3    H147364   3.560   0.044   5.421  1.0658 -1.0078  0.4417
 7723TIP3    H247365   3.616   0.043   5.562 -0.4399  0.1825  1.0780
 7724TIP3   OH247366   4.423   0.611   3.936 -0.1336 -0.5798  0.4843
 7724TIP3    H147367   4.412   0.518   3.917 -0.4871 -0.4092 -0.2019
 7724TIP3    H247368   4.513   0.631   3.911 -0.9629 -0.0531 -2.5696
 7725TIP3   OH247369   0.826   3.443   6.246  0.2650 -0.3161  0.0779
 7725TIP3    H147370   0.858   3.529   6.218 -0.7329  0.2085  0.5201
 7725TIP3    H247371   0.735   3.458   6.272 -0.1307 -1.6402 -0.4697
 7726TIP3   OH247372   7.454   5.540   5.689 -0.2489 -0.3769  0.1713
 7726TIP3    H147373   7.377   5.516   5.637  0.6073  0.6606 -1.6264
 7726TIP3    H247374   7.513   5.583   5.628  1.0898  0.3256  1.8685
 7727TIP3   OH247375   5.890   6.676   4.973  0.1834  0.0271 -0.1563
 7727TIP3    H147376   5.912   6.726   4.895 -0.0355  0.1842 -0.1185
 7727TIP3    H247377   5.835   6.735   5.025  0.8692  0.1737  0.4297
 7728TIP3   OH247378   6.058   4.265   4.151  0.0029 -0.0455  0.1537
 7728TIP3    H147379   6.081   4.255   4.244 -0.7565 -0.9574  0.2644
 7728TIP3    H247380   6.035   4.357   4.142  3.0499  0.7899  0.1524
 7729TIP3   OH247381   0.998   5.881   4.341  0.3571  0.1467 -0.1082
 7729TIP3    H147382   1.041   5.795   4.344  0.4982  0.2035 -0.4454
 7729TIP3    H247383   0.935   5.874   4.269  0.0819  0.1925  0.1303
 7730TIP3   OH247384   0.022   3.545   3.928  0.0768 -0.3475  0.1631
 7730TIP3    H147385   0.081   3.470   3.930  0.1001 -0.3745 -0.7596
 7730TIP3    H247386  -0.044   3.520   3.862 -2.0732 -1.1312  2.4595
 7731TIP3   OH247387   3.906   7.547   3.828 -0.2172 -0.5424 -0.1386
 7731TIP3    H147388   3.813   7.544   3.848 -0.3537 -0.2163 -0.7014
 7731TIP3    H247389   3.939   7.460   3.853 -0.2137  0.0603  2.1739
 7732TIP3   OH247390   6.829   6.748   5.964 -0.1005 -0.1671  0.0111
 7732TIP3    H147391   6.802   6.831   6.003  1.5034  0.1727  0.4728
 7732TIP3    H247392   6.775   6.683   6.009  0.5749  0.3722  1.6997
 7733TIP3   OH247393   3.878   4.271   4.058 -0.2728 -0.3120  0.4960
 7733TIP3    H147394   3.929   4.249   3.980 -0.5104 -1.3351  0.6253
 7733TIP3    H247395   3.790   4.239   4.039 -0.8109  1.1386  0.4132
 7734TIP3   OH247396   7.121   0.878   5.654  0.3935 -0.3449  0.2068
 7734TIP3    H147397   7.161   0.883   5.740  0.5674  0.3315  0.0971
 7734TIP3    H247398   7.062   0.954   5.651 -1.2327 -1.5375  0.5281
 7735TIP3   OH247399   6.056   6.471   4.896 -0.3215  0.0877  1.0577
 7735TIP3    H147400   5.989   6.452   4.830 -0.3222 -1.2607  1.4272
 7735TIP3    H247401   6.018   6.543   4.947 -0.1433  1.4318 -0.6255
 7736TIP3   OH247402   5.868   7.290   6.582  0.1009 -0.5379 -0.0278
 7736TIP3    H147403   5.779   7.313   6.609 -0.1407 -0.7643 -0.6234
 7736TIP3    H247404   5.895   7.362   6.525 -0.4577 -1.4214 -1.4616
 7737TIP3   OH247405   3.097   4.784   4.309  0.0242  0.0415 -0.2256
 7737TIP3    H147406   3.023   4.726   4.289  0.0721  0.0962 -0.5503
 7737TIP3    H247407   3.147   4.789   4.228 -0.2094  0.8779 -0.3279
 7738TIP3   OH247408   6.788   1.474   5.723  0.0574 -0.0023  0.0382
 7738TIP3    H147409   6.742   1.452   5.642  0.6418 -0.7675 -0.0989
 7738TIP3    H247410   6.782   1.394   5.776 -1.4927  0.9130  1.3359
 7739TIP3   OH247411   1.255   4.104   4.785  0.6898  0.0592 -0.1438
 7739TIP3    H147412   1.229   4.069   4.699 -0.7169  0.1560  0.2131
 7739TIP3    H247413   1.350   4.110   4.781  0.6715 -0.2714 -1.5730
 7740TIP3   OH247414   3.547   1.510   4.926 -0.1011  0.7353 -0.2649
 7740TIP3    H147415   3.542   1.605   4.938  0.0367  1.0327 -2.2182
 7740TIP3    H247416   3.474   1.489   4.867  0.1574 -0.3159 -0.2409
 7741TIP3   OH247417   2.136   4.065   5.110  0.3572 -0.2403 -0.3450
 7741TIP3    H147418   2.167   3.988   5.061  0.3365 -0.4039 -0.1059
 7741TIP3    H247419   2.214   4.119   5.121  0.5295 -0.5703  0.1073
 7742TIP3   OH247420   6.974   6.926   4.106 -0.6222 -0.2554 -0.3656
 7742TIP3    H147421   6.898   6.896   4.156 -1.6924 -0.4140 -1.9893
 7742TIP3    H247422   7.040   6.858   4.119 -0.9729 -0.4230  0.5891
 7743TIP3   OH247423   2.784   2.600   5.076 -0.2248 -0.5860 -0.3022
 7743TIP3    H147424   2.791   2.542   5.000 -0.3856 -0.8034 -0.1515
 7743TIP3    H247425   2.822   2.683   5.046 -0.5074 -0.5963 -0.7007
 7744TIP3   OH247426   4.930   4.510   5.191  0.2707  0.2778  0.0134
 7744TIP3    H147427   4.985   4.498   5.113 -1.0799  0.7371 -1.0651
 7744TIP3    H247428   4.957   4.595   5.226  1.5049 -0.3319  0.5931
 7745TIP3   OH247429   2.966   2.657   5.828  0.6649  0.7134 -0.1588
 7745TIP3    H147430   2.994   2.637   5.918 -1.3705 -1.2945  0.1574
 7745TIP3    H247431   2.870   2.652   5.833  0.4937  1.3108 -2.2976
 7746TIP3   OH247432   3.305   3.381   5.334 -0.3203 -0.4554 -0.5194
 7746TIP3    H147433   3.236   3.317   5.351  1.1201 -2.4023 -1.5501
 7746TIP3    H247434   3.385   3.338   5.363  0.6422  1.2078 -0.5650
 7747TIP3   OH247435   0.591   1.559   5.198 -0.4688 -0.4314  0.0966
 7747TIP3    H147436   0.685   1.565   5.181 -0.8594  0.1016 -2.2040
 7747TIP3    H247437   0.565   1.474   5.162 -1.2110  0.4061 -1.4804
 7748TIP3   OH247438   5.366   5.778   6.891  0.3229 -0.1772  0.2247
 7748TIP3    H147439   5.304   5.850   6.901  1.5139  0.7107  1.8552
 7748TIP3    H247440   5.444   5.819   6.853  0.1856 -1.1451 -1.1916
 7749TIP3   OH247441   6.364   0.761   6.052  0.0545 -0.4460 -0.3574
 7749TIP3    H147442   6.279   0.722   6.072 -0.6442  1.1714 -0.0886
 7749TIP3    H247443   6.355   0.853   6.076  1.4370  0.0582 -1.6350
 7750TIP3   OH247444   5.793   6.108   5.750  0.6591 -0.3882 -0.1482
 7750TIP3    H147445   5.846   6.182   5.720  0.6603 -0.3021  0.0682
 7750TIP3    H247446   5.781   6.053   5.672 -1.5026  1.1188 -0.9736
 7751TIP3   OH247447   5.747   7.573   6.011  0.1752  0.0660  0.3319
 7751TIP3    H147448   5.829   7.550   6.055  0.0041  1.5486  1.4930
 7751TIP3    H247449   5.687   7.596   6.082 -1.0808 -0.4211 -0.5333
 7752TIP3   OH247450   7.106   3.086   5.496 -0.2042 -0.0990  0.5097
 7752TIP3    H147451   7.169   3.028   5.538 -0.0047  0.1821  0.6030
 7752TIP3    H247452   7.154   3.126   5.423 -0.2935  0.0614  0.5376
 7753TIP3   OH247453   6.715   4.402   5.401 -0.6749 -0.0934 -0.0015
 7753TIP3    H147454   6.746   4.426   5.313 -1.4565 -1.7232 -0.7725
 7753TIP3    H247455   6.621   4.419   5.398 -0.5085  1.1762  1.0320
 7754TIP3   OH247456   2.457   4.346   4.908  0.4227  0.0544  0.0206
 7754TIP3    H147457   2.450   4.339   4.813 -2.0471 -0.6735  0.1803
 7754TIP3    H247458   2.426   4.435   4.928  0.3984  0.0151  0.1646
 7755TIP3   OH247459   2.435   0.253   5.614 -0.2942  0.0098  0.1779
 7755TIP3    H147460   2.369   0.263   5.682  0.0197 -1.3637  0.7220
 7755TIP3    H247461   2.389   0.210   5.542 -0.0938 -0.6142  0.4163
 7756TIP3   OH247462   6.339   1.017   4.937  0.6525 -0.1140  0.8451
 7756TIP3    H147463   6.318   1.045   5.026 -2.1477 -0.3222  0.3365
 7756TIP3    H247464   6.291   0.935   4.926 -0.2434  0.6331 -1.3060
 7757TIP3   OH247465   0.350   7.336   5.354  0.5276  0.1238  0.1220
 7757TIP3    H147466   0.355   7.247   5.321  1.1701  0.1254  0.1987
 7757TIP3    H247467   0.435   7.375   5.332 -0.2516  1.1732 -1.1915
 7758TIP3   OH247468   3.311   6.237   4.529 -0.1163  0.4646  0.3404
 7758TIP3    H147469   3.367   6.211   4.455 -0.9287  0.6948 -0.3724
 7758TIP3    H247470   3.318   6.164   4.591  0.4828  0.2113 -0.0114
 7759TIP3   OH247471   3.688   3.410   5.856  0.2607  0.0207  0.4466
 7759TIP3    H147472   3.665   3.480   5.916 -0.7705  0.0897 -0.0107
 7759TIP3    H247473   3.784   3.409   5.855  0.3272  2.3358 -0.5892
 7760TIP3   OH247474   5.737   6.399   4.497 -0.2183 -0.2941  0.0183
 7760TIP3    H147475   5.745   6.308   4.468  1.6583 -0.8836  2.0820
 7760TIP3    H247476   5.643   6.417   4.495 -0.8265 -2.9063  1.2798
 7761TIP3   OH247477   6.957   1.524   5.432 -0.0508  0.5779  0.2070
 7761TIP3    H147478   6.900   1.447   5.424 -0.5393  0.6345  2.4824
 7761TIP3    H247479   6.898   1.598   5.418 -0.4470  0.6159  1.9012
 7762TIP3   OH247480   2.564   7.620   5.080  0.4886  0.1752  0.0970
 7762TIP3    H147481   2.596   7.698   5.124  1.2227 -0.8048  1.3834
 7762TIP3    H247482   2.532   7.564   5.151 -1.0483 -0.2594 -0.8864
 7763TIP3   OH247483   0.961   2.012   5.744 -0.4497  0.2379 -0.0055
 7763TIP3    H147484   1.053   2.037   5.735 -0.3767  0.8727  2.0011
 7763TIP3    H247485   0.914   2.072   5.685  0.4529 -0.8382 -1.9310
 7764TIP3   OH247486   5.925   7.560   5.115  0.2590  0.5699 -0.2701
 7764TIP3    H147487   5.958   7.617   5.184  0.3946  0.2377 -0.0540
 7764TIP3    H247488   5.840   7.598   5.091  0.6052  1.1805 -0.5299
 7765TIP3   OH247489   3.483   6.092   4.341  0.6956 -0.2485  0.4297
 7765TIP3    H147490   3.466   6.149   4.266 -0.7150 -1.2493 -0.0469
 7765TIP3    H247491   3.492   6.005   4.303  0.9565 -0.6180  1.3260
 7766TIP3   OH247492   7.453   2.265   6.177 -0.4703  0.2569  0.8136
 7766TIP3    H147493   7.362   2.239   6.190 -0.5029  0.6310  1.4025
 7766TIP3    H247494   7.448   2.350   6.134 -0.3802 -0.2224 -0.1514
 7767TIP3   OH247495   7.306   2.648   4.603  0.4198 -0.3987  0.1815
 7767TIP3    H147496   7.266   2.561   4.599  0.1902 -0.2960  0.2521
 7767TIP3    H247497   7.256   2.700   4.541  0.8920 -0.4516 -0.2536
 7768TIP3   OH247498   0.864   7.158   4.404 -0.8538  0.3086 -0.0459
 7768TIP3    H147499   0.942   7.144   4.349 -0.3982 -0.6181  0.7870
 7768TIP3    H247500   0.791   7.154   4.343 -0.4487 -1.8349 -0.4756
 7769TIP3   OH247501   5.381   0.003   5.830  0.5562  0.3634 -0.7421
 7769TIP3    H147502   5.347  -0.086   5.823  1.7405 -0.1390 -0.3044
 7769TIP3    H247503   5.346   0.048   5.753 -0.4803 -0.3273 -0.6907
 7770TIP3   OH247504   7.016   0.438   5.416  0.4429  0.0295 -0.4954
 7770TIP3    H147505   7.095   0.448   5.468  1.4336 -0.0064 -1.9102
 7770TIP3    H247506   6.949   0.486   5.463  1.0979 -0.5760  1.1447
 7771TIP3   OH247507   0.738   0.028   4.102 -0.4992  0.1557 -0.2181
 7771TIP3    H147508   0.643   0.016   4.096 -0.3141 -0.8655 -1.9473
 7771TIP3    H247509   0.752   0.121   4.084 -1.1101  0.0582 -1.2835
 7772TIP3   OH247510   5.615   6.958   3.816  0.1332 -0.7639  0.0688
 7772TIP3    H147511   5.655   6.907   3.886  1.9420 -2.2476 -1.8836
 7772TIP3    H247512   5.577   6.892   3.757 -0.0177  0.2968 -1.0686
 7773TIP3   OH247513   3.044   4.456   5.714  0.2420  0.2813  0.2646
 7773TIP3    H147514   2.972   4.393   5.719 -0.7445  1.2912 -0.7753
 7773TIP3    H247515   3.017   4.528   5.771 -1.9499  2.8857 -3.6051
 7774TIP3   OH247516   0.318   6.914   4.752  0.1726  0.9685 -0.2926
 7774TIP3    H147517   0.383   6.895   4.820  0.2164  0.5376 -0.4522
 7774TIP3    H247518   0.287   7.002   4.773 -1.1150  0.1892  1.3465
 7775TIP3   OH247519   0.887   6.810   3.944  0.3628  0.1087  0.6176
 7775TIP3    H147520   0.974   6.840   3.966  0.4098 -1.0565  2.2096
 7775TIP3    H247521   0.882   6.721   3.980 -0.7326 -0.7013 -1.3520
 7776TIP3   OH247522   2.821   5.080   3.977 -0.0187 -0.1056  0.1712
 7776TIP3    H147523   2.748   5.136   3.950 -0.5627 -0.4399  0.9011
 7776TIP3    H247524   2.785   4.991   3.973 -0.4752 -0.1254  2.8720
 7777TIP3   OH247525   3.851   2.383   4.276 -0.2377  0.1421 -0.0730
 7777TIP3    H147526   3.876   2.433   4.354  0.5625  0.7338 -0.7012
 7777TIP3    H247527   3.884   2.434   4.202 -0.1227 -0.9065 -0.7670
 7778TIP3   OH247528   4.639   1.241   4.532  0.5038  0.2685  0.2698
 7778TIP3    H147529   4.629   1.255   4.438  2.1864 -0.9915 -0.1589
 7778TIP3    H247530   4.658   1.327   4.568 -3.2151  1.3515  0.0111
 7779TIP3   OH247531   6.350   4.462   6.425 -0.0764 -0.0774  0.0019
 7779TIP3    H147532   6.304   4.380   6.405  0.7387 -0.8388  1.1493
 7779TIP3    H247533   6.286   4.530   6.406 -0.4626 -0.8996 -1.9185
 7780TIP3   OH247534   1.665   0.377   4.387  0.7467  0.3648 -0.3112
 7780TIP3    H147535   1.707   0.384   4.472 -0.7307 -0.4574  0.5300
 7780TIP3    H247536   1.737   0.364   4.325  1.8688  1.3799  0.7398
 7781TIP3   OH247537   3.516   3.549   3.842 -0.0654  0.3534 -0.1118
 7781TIP3    H147538   3.532   3.616   3.775 -0.0194 -2.0332 -2.6606
 7781TIP3    H247539   3.524   3.466   3.795 -0.9838 -1.4612  2.7087
 7782TIP3   OH247540   1.686   3.089   3.988 -0.4114  0.1570  0.2771
 7782TIP3    H147541   1.675   3.157   3.921  2.5314  3.3582  2.7367
 7782TIP3    H247542   1.642   3.124   4.065  0.3239 -1.2102  1.3576
 7783TIP3   OH247543   0.773   5.825   4.638 -0.2078 -0.1655 -0.0951
 7783TIP3    H147544   0.733   5.901   4.595  1.5616  1.6421  1.2669
 7783TIP3    H247545   0.756   5.752   4.578 -4.9099  0.4815  0.0845
 7784TIP3   OH247546   0.480   0.458   4.987 -0.1433 -0.1600 -0.0297
 7784TIP3    H147547   0.508   0.504   4.908 -0.0934 -1.5444 -0.8544
 7784TIP3    H247548   0.549   0.393   5.002  0.2923  0.6311  1.6753
 7785TIP3   OH247549   1.096   4.750   6.228  0.0133 -0.3010 -0.0299
 7785TIP3    H147550   1.133   4.829   6.187  0.5978  0.6872  2.2497
 7785TIP3    H247551   1.002   4.765   6.228  0.2267  1.7523  2.7576
 7786TIP3   OH247552   6.673   6.498   5.691 -0.0041  0.0799 -0.1237
 7786TIP3    H147553   6.629   6.448   5.622 -0.8902  1.1442 -0.3487
 7786TIP3    H247554   6.604   6.517   5.755  0.4629  0.4695  0.2702
 7787TIP3   OH247555   3.499   5.890   4.771  0.8248 -0.0953 -0.1836
 7787TIP3    H147556   3.526   5.950   4.702  0.9907 -0.7817 -0.7226
 7787TIP3    H247557   3.564   5.820   4.769  2.3688  1.0911  2.3493
 7788TIP3   OH247558   5.315   4.879   4.865 -0.1704 -0.4725 -0.1023
 7788TIP3    H147559   5.274   4.811   4.918 -3.6390 -0.4579 -2.4544
 7788TIP3    H247560   5.328   4.839   4.780  0.9768  0.8290 -0.5835
 7789TIP3   OH247561   5.099   5.476   5.953 -0.2784  0.0376  0.1343
 7789TIP3    H147562   5.167   5.506   5.892 -0.6056 -0.1122 -0.3070
 7789TIP3    H247563   5.145   5.416   6.012 -0.0673 -0.2204 -0.2869
 7790TIP3   OH247564   7.647   7.466   5.761 -0.8168 -0.4194 -0.3543
 7790TIP3    H147565   7.603   7.465   5.676 -1.6855 -1.8921  0.0743
 7790TIP3    H247566   7.642   7.375   5.792  3.4333 -0.9937 -0.7297
 7791TIP3   OH247567   1.944   7.649   6.013 -0.2661 -0.7000 -0.5446
 7791TIP3    H147568   1.893   7.602   6.078  1.3882 -1.9238 -0.0648
 7791TIP3    H247569   1.887   7.721   5.985 -2.4041 -2.2576 -0.4121
 7792TIP3   OH247570   7.193   0.721   5.424 -0.0516  0.1974 -0.3464
 7792TIP3    H147571   7.223   0.792   5.368  0.8355  0.0511 -0.0577
 7792TIP3    H247572   7.191   0.758   5.512 -1.7910  0.5377 -0.4754
 7793TIP3   OH247573   0.475   7.656   5.457  0.4406 -0.7583 -0.4493
 7793TIP3    H147574   0.526   7.680   5.380  0.2808  0.2985 -0.2326
 7793TIP3    H247575   0.526   7.586   5.499  1.4064 -0.1345 -0.5625
 7794TIP3   OH247576   3.877   0.894   4.642  0.0857 -0.1684  0.3141
 7794TIP3    H147577   3.924   0.977   4.638 -1.4183  0.6648 -1.6328
 7794TIP3    H247578   3.829   0.898   4.725 -1.0699  1.5786 -0.3947
 7795TIP3   OH247579   2.229   5.274   5.551 -0.2577  0.1673 -0.6104
 7795TIP3    H147580   2.285   5.204   5.585 -1.4069  0.6245  2.5083
 7795TIP3    H247581   2.163   5.228   5.498  0.9337 -0.7172 -1.3837
 7796TIP3   OH247582   3.313   1.064   5.389 -0.0370 -0.0227  0.6058
 7796TIP3    H147583   3.233   1.026   5.423 -0.3202  1.0947  1.2354
 7796TIP3    H247584   3.363   1.091   5.466  0.2340  0.6913  0.2020
 7797TIP3   OH247585   3.516   3.226   5.999  0.3285 -0.3987  0.0853
 7797TIP3    H147586   3.574   3.291   5.959 -2.0102  2.5545  1.1282
 7797TIP3    H247587   3.517   3.246   6.092 -1.8505 -0.6477  0.2091
 7798TIP3   OH247588   6.497   1.160   5.330 -0.0224 -0.1753 -0.1123
 7798TIP3    H147589   6.583   1.167   5.289 -0.7368  0.8565 -1.5031
 7798TIP3    H247590   6.480   1.066   5.335 -0.3628 -0.3563 -3.2351
 7799TIP3   OH247591   0.532   0.883   3.961 -0.2054  0.0717  0.5519
 7799TIP3    H147592   0.596   0.938   3.917 -0.4623  0.0270  0.1159
 7799TIP3    H247593   0.553   0.891   4.054  0.0042  0.5903  0.4605
 7800TIP3   OH247594   5.842   5.580   6.850  0.2300 -0.0300  0.0211
 7800TIP3    H147595   5.898   5.502   6.856  1.5308  0.9398  1.4537
 7800TIP3    H247596   5.754   5.548   6.870  0.8693 -1.0373  1.4467
 7801TIP3   OH247597   4.067   3.891   5.506  0.0916  0.1705  0.0171
 7801TIP3    H147598   4.070   3.958   5.438  0.1099 -0.8876 -1.0618
 7801TIP3    H247599   4.151   3.897   5.550  1.2961 -1.0213 -1.9771
 7802TIP3   OH247600   2.095   0.513   6.131 -0.0930 -0.3914 -0.2558
 7802TIP3    H147601   2.159   0.584   6.139 -0.6048  0.2375 -1.5181
 7802TIP3    H247602   2.028   0.533   6.196 -0.2807  0.3543 -0.6686
 7803TIP3   OH247603   6.330   0.031   5.696 -0.5109  0.1051 -0.7448
 7803TIP3    H147604   6.242   0.058   5.724  0.0919  0.7673  0.5996
 7803TIP3    H247605   6.383   0.035   5.776  0.7519 -0.2700 -1.5348
 7804TIP3   OH247606   3.977   1.325   4.174 -0.1655 -0.0961  0.3432
 7804TIP3    H147607   3.932   1.380   4.110 -1.4733 -0.0371  1.2626
 7804TIP3    H247608   3.965   1.371   4.257  0.6252 -0.6786  0.7916
 7805TIP3   OH247609   1.748   6.582   3.385 -0.2300  0.2482 -0.9737
 7805TIP3    H147610   1.729   6.549   3.473  0.3231  0.6849 -0.6836
 7805TIP3    H247611   1.806   6.656   3.399 -0.0651  0.2716 -1.7188
 7806TIP3   OH247612   5.853   2.035   5.032 -0.1170 -0.1226  0.7252
 7806TIP3    H147613   5.842   2.126   5.058  2.0697  0.2917  0.4373
 7806TIP3    H247614   5.933   2.006   5.077 -0.0338 -1.4755 -0.1966
 7807TIP3   OH247615   1.033   6.405   3.994  0.4863 -0.4747  0.3042
 7807TIP3    H147616   1.128   6.399   3.980  0.5774  1.5902 -0.3951
 7807TIP3    H247617   1.022   6.389   4.087  1.1687 -3.4805 -0.0384
 7808TIP3   OH247618   1.293   6.340   3.984 -0.2544  0.3112  0.7905
 7808TIP3    H147619   1.338   6.402   4.041 -1.1172 -0.0813  1.9138
 7808TIP3    H247620   1.277   6.263   4.038 -0.4124 -0.3738 -0.1948
 7809TIP3   OH247621   1.382   4.109   5.163  0.8214 -0.5173  0.0083
 7809TIP3    H147622   1.441   4.171   5.204 -1.1154  0.7782  1.0203
 7809TIP3    H247623   1.413   4.023   5.192  2.4997  0.0748  0.0251
 7810TIP3   OH247624   6.407   5.200   3.978 -0.0567  0.1041  0.2429
 7810TIP3    H147625   6.439   5.138   3.913 -0.0828 -0.1995  0.5145
 7810TIP3    H247626   6.322   5.229   3.944 -0.8460 -1.2913  0.9121
 7811TIP3   OH247627   7.239   7.373   4.468 -0.3223 -0.0309  0.4219
 7811TIP3    H147628   7.248   7.361   4.563  0.5089  0.8085  0.4585
 7811TIP3    H247629   7.285   7.299   4.430 -0.4231 -0.2234  0.6654
 7812TIP3   OH247630   6.198   4.487   5.509  0.2002  0.1323 -0.4407
 7812TIP3    H147631   6.154   4.561   5.551 -0.8520 -0.0236 -1.2191
 7812TIP3    H247632   6.202   4.420   5.577  1.2079  0.8906  0.2892
 7813TIP3   OH247633   1.100   6.773   4.821  0.6170 -0.5138  0.7406
 7813TIP3    H147634   1.061   6.858   4.841 -0.8265 -0.8692 -0.3948
 7813TIP3    H247635   1.049   6.740   4.747  2.1496 -1.6837  0.1479
 7814TIP3   OH247636   4.217   3.901   4.616 -0.2859  0.5614  0.1819
 7814TIP3    H147637   4.184   3.861   4.536  2.8149 -0.4926 -0.7077
 7814TIP3    H247638   4.229   3.828   4.676  0.9759  0.7895  0.2290
 7815TIP3   OH247639   7.190   1.134   4.155 -0.1512 -0.8514 -0.5353
 7815TIP3    H147640   7.171   1.068   4.222 -0.4107 -1.6844 -1.4195
 7815TIP3    H247641   7.194   1.216   4.204 -0.4661 -1.4255  0.4888
 7816TIP3   OH247642   6.797   5.190   5.884 -0.3212  0.1892 -0.3399
 7816TIP3    H147643   6.852   5.268   5.877 -2.3125  1.7285  0.2930
 7816TIP3    H247644   6.849   5.129   5.937 -0.1714  2.5674  2.5425
 7817TIP3   OH247645   3.674   0.981   3.894 -0.2216  0.5021 -0.0717
 7817TIP3    H147646   3.724   0.901   3.911  1.0017  1.3518  0.4981
 7817TIP3    H247647   3.642   1.009   3.980 -0.3148  0.8380 -0.2117
 7818TIP3   OH247648   6.237   1.205   4.305 -0.0854 -0.2596  0.5135
 7818TIP3    H147649   6.196   1.160   4.231 -0.6182 -1.9365  1.7658
 7818TIP3    H247650   6.310   1.148   4.330 -0.9909 -0.7114  2.3678
 7819TIP3   OH247651   5.467   6.778   3.673 -0.2545  0.3245  0.0228
 7819TIP3    H147652   5.496   6.778   3.582  2.3408  0.6152  0.7656
 7819TIP3    H247653   5.487   6.690   3.705  1.1161  0.9216  0.9070
 7820TIP3   OH247654   0.114   5.111   5.172 -0.3050 -0.3690  0.6637
 7820TIP3    H147655   0.149   5.198   5.154 -1.9236 -0.0099 -0.9805
 7820TIP3    H247656   0.102   5.109   5.267 -0.8125  1.4477  0.6654
 7821TIP3   OH247657   2.091   7.548   4.575  0.1649 -0.5190  0.0554
 7821TIP3    H147658   2.150   7.623   4.571  2.5150 -2.1916  0.9304
 7821TIP3    H247659   2.056   7.549   4.664 -1.4005  0.5986 -0.5297
 7822TIP3   OH247660   1.754   3.930   4.805  0.4496  0.1087  0.1612
 7822TIP3    H147661   1.819   3.985   4.850  0.6096  1.1492 -1.2816
 7822TIP3    H247662   1.804   3.855   4.773  0.2660 -0.8445  1.9755
 7823TIP3   OH247663   5.559   5.928   6.784  0.3640  0.6360  0.2476
 7823TIP3    H147664   5.650   5.910   6.806  0.2469 -0.3455 -0.0129
 7823TIP3    H247665   5.562   6.005   6.728  0.7846  2.3731  2.5012
 7824TIP3   OH247666   2.004   6.780   4.924 -0.5870  0.0461  0.2004
 7824TIP3    H147667   2.032   6.791   5.015 -0.2356  1.7994 -0.0952
 7824TIP3    H247668   2.084   6.754   4.878 -0.5472  0.1095  0.2324
 7825TIP3   OH247669   5.718   4.841   5.993 -0.0884 -0.4395  0.0194
 7825TIP3    H147670   5.651   4.822   5.927 -2.0280 -0.0495  1.7568
 7825TIP3    H247671   5.738   4.756   6.032  1.1898 -0.6971 -1.1149
 7826TIP3   OH247672   1.503   2.522   4.167  0.2619  0.1157 -0.0329
 7826TIP3    H147673   1.554   2.601   4.188 -0.2449  0.0130  1.8146
 7826TIP3    H247674   1.436   2.552   4.106  0.1159  1.1273  0.5950
 7827TIP3   OH247675   1.449   5.010   4.003  0.6583  0.5616  0.3685
 7827TIP3    H147676   1.539   5.037   3.988  0.1266  1.5138 -1.5273
 7827TIP3    H247677   1.431   5.033   4.094  2.6224 -0.6604  1.1236
 7828TIP3   OH247678   4.874   2.235   6.199 -0.0655 -0.5024 -0.0928
 7828TIP3    H147679   4.866   2.147   6.163 -0.9810 -0.0340 -1.0929
 7828TIP3    H247680   4.967   2.256   6.193  0.0980 -1.2555 -0.1989
 7829TIP3   OH247681   4.345   5.414   4.015  0.0258  0.0357  0.2268
 7829TIP3    H147682   4.356   5.358   4.092  0.1091 -0.4718 -0.1499
 7829TIP3    H247683   4.412   5.482   4.025  0.3902 -0.3378  0.3279
 7830TIP3   OH247684   0.630   5.374   3.931  0.1296 -0.6071 -0.0562
 7830TIP3    H147685   0.631   5.289   3.887 -1.0659 -1.2939  1.1821
 7830TIP3    H247686   0.637   5.438   3.860 -2.9532 -1.6253 -1.4357
 7831TIP3   OH247687   6.118   0.640   4.720  0.0034 -0.0835  0.0652
 7831TIP3    H147688   6.050   0.574   4.739  0.2233 -0.3095  0.0729
 7831TIP3    H247689   6.077   0.699   4.657 -0.1367 -0.3328 -0.0818
 7832TIP3   OH247690   3.674   0.651   4.586 -0.0160  0.5007  0.2002
 7832TIP3    H147691   3.760   0.611   4.577  0.0134  0.4645  0.6561
 7832TIP3    H247692   3.636   0.644   4.498  0.9470  1.7009 -0.3447
 7833TIP3   OH247693   3.741   7.277   5.041  0.0111 -0.1881 -0.0705
 7833TIP3    H147694   3.729   7.323   4.958  0.7215  0.8302  0.3723
 7833TIP3    H247695   3.652   7.261   5.073 -0.2810 -1.0008 -1.2287
 7834TIP3   OH247696   4.506   5.663   5.002 -0.4223 -0.1424 -0.3209
 7834TIP3    H147697   4.441   5.729   5.027 -0.7662  0.0511 -1.6516
 7834TIP3    H247698   4.455   5.594   4.960  0.2093 -0.0586 -1.2440
 7835TIP3   OH247699   5.069   1.340   4.591  0.8067 -0.8504  0.4945
 7835TIP3    H147700   5.122   1.404   4.639 -1.3634  1.6073 -0.1065
 7835TIP3    H247701   4.997   1.320   4.651 -1.1027  1.0712 -0.9806
 7836TIP3   OH247702   7.386   2.382   5.385 -0.4018 -0.4625  0.2438
 7836TIP3    H147703   7.456   2.439   5.355 -1.2111  1.2061  1.3940
 7836TIP3    H247704   7.427   2.296   5.393  0.3218 -0.7011 -3.7640
 7837TIP3   OH247705   1.716   6.089   5.581  0.2412 -0.3667  0.6332
 7837TIP3    H147706   1.679   6.001   5.568 -0.2905  0.0653 -1.0336
 7837TIP3    H247707   1.763   6.107   5.500  0.1298  0.9920  0.8516
 7838TIP3   OH247708   0.498   5.616   6.268  0.4475 -0.6154  0.6996
 7838TIP3    H147709   0.570   5.591   6.325  2.4106  0.8210 -1.0025
 7838TIP3    H247710   0.453   5.686   6.317  3.7597  2.5962 -0.3868
 7839TIP3   OH247711   1.194   4.204   5.514  0.4885 -0.5487 -0.9307
 7839TIP3    H147712   1.161   4.283   5.559  2.1987 -0.3762  0.1367
 7839TIP3    H247713   1.116   4.154   5.492 -0.6068  1.1256 -1.0123
 7840TIP3   OH247714   0.576   2.095   5.744  0.4860 -0.6158 -0.5016
 7840TIP3    H147715   0.648   2.132   5.694 -0.3069  1.3408 -0.2565
 7840TIP3    H247716   0.587   2.130   5.832 -0.7311 -0.2942 -0.4580
 7841TIP3   OH247717   7.607   4.292   4.570 -0.2687 -0.1062  0.3291
 7841TIP3    H147718   7.625   4.378   4.607  0.5004  0.8020 -1.9691
 7841TIP3    H247719   7.554   4.310   4.493  1.8208 -1.4235 -1.5343
 7842TIP3   OH247720   6.450   4.552   5.684 -0.6509 -0.1120 -0.5209
 7842TIP3    H147721   6.527   4.594   5.723 -2.3617  1.2546  1.5754
 7842TIP3    H247722   6.422   4.612   5.615 -1.4878  0.9097  0.6590
 7843TIP3   OH247723   6.993   6.522   6.499  0.1076 -0.5526  0.3131
 7843TIP3    H147724   7.039   6.508   6.417 -0.9820  0.4091 -0.4955
 7843TIP3    H247725   7.062   6.537   6.564  1.1463 -3.9672  0.2003
 7844TIP3   OH247726   1.364   7.485   4.044  0.3412  0.4051 -0.9374
 7844TIP3    H147727   1.310   7.532   3.982 -0.2831  0.4611 -0.3608
 7844TIP3    H247728   1.341   7.393   4.033 -1.5792  0.6072  0.8752
 7845TIP3   OH247729   2.641   5.100   6.406 -0.4877 -0.2848  0.0426
 7845TIP3    H147730   2.551   5.132   6.414 -0.5591  1.5972 -4.7970
 7845TIP3    H247731   2.639   5.040   6.331  2.0286 -1.5153  0.8459
 7846TIP3   OH247732   5.664   6.965   5.876 -0.1630  0.3395 -0.1973
 7846TIP3    H147733   5.754   6.962   5.843 -0.3259  0.6377 -0.6854
 7846TIP3    H247734   5.672   6.999   5.965  0.2155  0.3068 -0.2185
 7847TIP3   OH247735   7.125   4.451   4.406  0.1889  0.1919 -0.1782
 7847TIP3    H147736   7.215   4.431   4.382 -0.1021 -0.3169 -0.9036
 7847TIP3    H247737   7.107   4.396   4.482  0.3110 -0.1372 -0.3868
 7848TIP3   OH247738   0.525   4.606   4.139  0.3853  0.2766  0.4273
 7848TIP3    H147739   0.577   4.611   4.219  0.3622  2.4421  0.3728
 7848TIP3    H247740   0.436   4.586   4.168  0.9424 -2.3996  0.6002
 7849TIP3   OH247741   6.459   0.901   5.436  0.1184 -0.5091 -0.1467
 7849TIP3    H147742   6.532   0.841   5.419  1.2310  1.0249 -0.9588
 7849TIP3    H247743   6.474   0.932   5.526  0.2146 -0.5378 -0.1526
 7850TIP3   OH247744   3.940   6.700   5.942  0.0467  0.1326  0.1845
 7850TIP3    H147745   3.915   6.762   6.010  1.5923 -0.1930  1.0992
 7850TIP3    H247746   4.018   6.656   5.977  0.1527 -0.9191 -1.2770
 7851TIP3   OH247747   1.738   2.063   4.008 -0.7550  0.1895  0.6607
 7851TIP3    H147748   1.705   2.147   4.038 -1.1451  0.4027 -0.3199
 7851TIP3    H247749   1.812   2.043   4.066 -0.7089  1.1635  0.9427
 7852TIP3   OH247750   3.587   0.056   5.211 -0.2385  0.2884 -0.8530
 7852TIP3    H147751   3.633   0.133   5.179  1.0725 -0.5802 -1.1414
 7852TIP3    H247752   3.630  -0.018   5.167  0.0480 -0.7740  1.1059
 7853TIP3   OH247753   1.445   2.856   4.449  0.0747  0.0297  0.1162
 7853TIP3    H147754   1.426   2.852   4.356  1.5757  1.2474 -0.2851
 7853TIP3    H247755   1.388   2.790   4.488  1.7114 -2.8659 -2.0209
 7854TIP3   OH247756   4.258   2.669   4.359  0.1787  0.1218 -0.2714
 7854TIP3    H147757   4.225   2.590   4.402  0.4083  0.0402 -0.2426
 7854TIP3    H247758   4.180   2.721   4.341 -0.0815 -0.6126 -1.2976
 7855TIP3   OH247759   2.914   3.688   4.044  0.3170 -0.4753 -0.1166
 7855TIP3    H147760   2.954   3.696   3.958 -0.0859 -0.4585 -0.3024
 7855TIP3    H247761   2.974   3.631   4.093  2.6929  2.5892  0.9021
 7856TIP3   OH247762   4.832   2.483   3.992  1.0743  0.3912  0.0765
 7856TIP3    H147763   4.902   2.541   3.963  1.2803 -0.5072 -1.3000
 7856TIP3    H247764   4.755   2.540   3.999  1.6173  1.1183  0.3032
 7857TIP3   OH247765   6.425   1.481   4.949 -0.2711 -0.2618  0.2528
 7857TIP3    H147766   6.429   1.448   4.859 -2.5796  0.2317 -0.1044
 7857TIP3    H247767   6.409   1.403   5.003 -0.8998 -0.3200 -0.0141
 7858TIP3   OH247768   6.355   0.815   4.146  0.3243  0.4010 -0.6171
 7858TIP3    H147769   6.398   0.832   4.230 -0.6057 -0.3164  0.0236
 7858TIP3    H247770   6.280   0.874   4.145 -1.0635 -1.2444  0.1786
 7859TIP3   OH247771   2.020   6.901   3.731  0.2025  0.4141  0.0687
 7859TIP3    H147772   2.087   6.962   3.764 -0.1667 -0.0655  1.7932
 7859TIP3    H247773   2.021   6.914   3.636  1.1519  2.0566  0.2591
 7860TIP3   OH247774   7.144   4.561   5.216 -0.1054  0.0393 -0.1858
 7860TIP3    H147775   7.188   4.637   5.178 -1.3193  0.5624 -0.5841
 7860TIP3    H247776   7.056   4.563   5.180 -0.7292 -0.5162  1.2279
 7861TIP3   OH247777   6.033   1.595   5.544 -0.3814 -0.6773 -0.2749
 7861TIP3    H147778   6.047   1.508   5.582 -0.7113 -0.3992  0.5045
 7861TIP3    H247779   6.058   1.585   5.452  0.5765 -1.3319  0.0436
 7862TIP3   OH247780   7.489   3.694   5.417  0.1064  0.6394 -0.0392
 7862TIP3    H147781   7.453   3.664   5.333 -0.9564 -0.6662  0.8590
 7862TIP3    H247782   7.462   3.786   5.423 -1.2048  0.2976 -0.4054
 7863TIP3   OH247783   4.116   0.520   6.348  0.3350 -0.2137 -0.1799
 7863TIP3    H147784   4.122   0.536   6.253 -0.6854  0.3863 -0.1654
 7863TIP3    H247785   4.041   0.573   6.376  1.5303  0.8304  1.2275
 7864TIP3   OH247786   7.297   2.844   6.657 -0.1109  0.3439  0.3293
 7864TIP3    H147787   7.206   2.869   6.641 -0.2434  0.9879  1.9292
 7864TIP3    H247788   7.344   2.927   6.665  0.4540  0.0249  0.3827
 7865TIP3   OH247789   0.183   0.722   5.613 -0.4585  0.0403  0.3540
 7865TIP3    H147790   0.201   0.676   5.531  1.2445  1.3705 -0.0789
 7865TIP3    H247791   0.124   0.793   5.587  0.8436  1.0521  0.0381
 7866TIP3   OH247792   2.135   1.884   5.082 -0.8015 -0.4714  0.1392
 7866TIP3    H147793   2.057   1.833   5.064  0.4196 -2.1899 -0.6017
 7866TIP3    H247794   2.146   1.940   5.005 -1.1042 -0.4928  0.0812
 7867TIP3   OH247795   5.703   3.480   5.317  0.3062 -0.8034  0.3534
 7867TIP3    H147796   5.680   3.549   5.379  0.6909 -0.9144  0.6231
 7867TIP3    H247797   5.758   3.523   5.252 -0.3208 -0.6267 -0.0675
 7868TIP3   OH247798   0.215   1.186   4.766  0.2582  0.3161  0.0727
 7868TIP3    H147799   0.177   1.108   4.726 -1.5639  2.2210 -2.1872
 7868TIP3    H247800   0.170   1.194   4.851 -1.0862  0.0111 -0.5839
 7869TIP3   OH247801   7.025   4.673   4.654 -0.0244 -0.5639 -0.0837
 7869TIP3    H147802   6.946   4.623   4.635 -0.3482  0.6477 -2.2805
 7869TIP3    H247803   7.085   4.650   4.583  1.0438 -0.3484  0.7369
 7870TIP3   OH247804   7.430   6.739   6.112 -0.7573 -0.4653 -0.0708
 7870TIP3    H147805   7.391   6.652   6.100 -0.7173 -0.2673 -1.8057
 7870TIP3    H247806   7.409   6.761   6.203 -1.1879 -2.0734  0.2662
 7871TIP3   OH247807   2.793   4.505   3.953 -0.3317  0.0423 -0.6701
 7871TIP3    H147808   2.718   4.455   3.984 -1.1880  2.0585  0.7953
 7871TIP3    H247809   2.766   4.537   3.866  0.0409 -1.5536 -1.4085
 7872TIP3   OH247810   4.319   6.430   4.689  0.4676 -0.6989  0.0834
 7872TIP3    H147811   4.388   6.421   4.623  1.0742  0.0078  0.6128
 7872TIP3    H247812   4.362   6.411   4.772 -0.2164 -1.2533  0.3195
 7873TIP3   OH247813   7.461   5.127   5.181  0.5745 -0.1617 -0.7882
 7873TIP3    H147814   7.407   5.202   5.207 -0.5349 -1.3518  0.5095
 7873TIP3    H247815   7.494   5.091   5.263  1.8602 -0.5635 -1.4524
 7874TIP3   OH247816   0.725   2.772   5.079  0.4294 -0.2600 -0.2369
 7874TIP3    H147817   0.777   2.826   5.138  1.7243  0.0369 -1.5955
 7874TIP3    H247818   0.767   2.782   4.994  0.0026 -2.4814 -0.7721
 7875TIP3   OH247819   7.091   7.152   5.483 -0.1447  0.2720 -0.4890
 7875TIP3    H147820   7.006   7.123   5.515  0.1550 -0.8146 -0.6285
 7875TIP3    H247821   7.115   7.225   5.539  0.0109 -1.0707  1.2611
 7876TIP3   OH247822   4.251   3.205   3.751  0.3083 -0.5052 -0.3641
 7876TIP3    H147823   4.177   3.219   3.691  0.3789 -0.9420 -0.5585
 7876TIP3    H247824   4.222   3.134   3.809  0.5941 -0.7214 -0.4809
 7877TIP3   OH247825   3.282   6.945   3.659  0.5148  0.6746  0.0853
 7877TIP3    H147826   3.238   7.028   3.640 -0.7808  0.0277  0.1633
 7877TIP3    H247827   3.274   6.894   3.579  2.4440  1.0747 -0.4020
 7878TIP3   OH247828   4.737   0.577   4.316 -0.2539  0.5735  0.2053
 7878TIP3    H147829   4.646   0.604   4.303 -0.5177 -0.0288  0.7469
 7878TIP3    H247830   4.769   0.634   4.385 -0.2667  0.6817  0.1222
 7879TIP3   OH247831   0.357   6.453   6.451  0.8183  0.1339  0.0246
 7879TIP3    H147832   0.444   6.491   6.438  1.2305 -0.2316  1.5564
 7879TIP3    H247833   0.366   6.396   6.527 -1.0114  0.8804  0.8630
 7880TIP3   OH247834   0.754   1.323   3.909  0.2161  0.2076  0.3247
 7880TIP3    H147835   0.772   1.417   3.909  1.6263 -0.0455  0.2695
 7880TIP3    H247836   0.792   1.291   3.990 -0.2688 -0.3208  0.3472
 7881TIP3   OH247837   2.707   6.455   5.488 -0.5064  0.2243  0.1369
 7881TIP3    H147838   2.627   6.423   5.445 -0.6170 -0.6052  0.9266
 7881TIP3    H247839   2.687   6.453   5.581 -0.4707  2.5582  0.2517
 7882TIP3   OH247840   7.055   2.104   4.245 -0.0850  0.0768 -0.0815
 7882TIP3    H147841   7.069   2.151   4.327 -2.7184  2.9331 -1.0991
 7882TIP3    H247842   7.136   2.116   4.196 -0.0450  2.1134  0.4177
 7883TIP3   OH247843   3.023   2.363   5.616  0.0929 -0.4417  0.1331
 7883TIP3    H147844   3.063   2.428   5.557  2.5695 -1.8029  0.1847
 7883TIP3    H247845   2.997   2.291   5.558  1.7114 -1.3904  0.5136
 7884TIP3   OH247846   0.126   4.780   4.890 -0.4088  0.7788  0.1959
 7884TIP3    H147847   0.085   4.694   4.899  2.1138 -0.5038  0.3707
 7884TIP3    H247848   0.171   4.794   4.974  2.0451  0.6096 -0.9995
 7885TIP3   OH247849   4.560   1.122   5.266 -0.0115  0.2428  0.2435
 7885TIP3    H147850   4.563   1.207   5.310 -1.2717  1.6535 -2.1936
 7885TIP3    H247851   4.486   1.076   5.306 -1.7422  1.8722 -0.9369
 7886TIP3   OH247852   7.220   0.926   5.233  0.5095 -0.4209  0.2503
 7886TIP3    H147853   7.223   1.021   5.244 -1.2572 -0.2257 -0.5207
 7886TIP3    H247854   7.233   0.914   5.138  1.2945 -1.0061  0.4248
 7887TIP3   OH247855   6.219   3.343   5.518  0.0118 -0.0746  0.3245
 7887TIP3    H147856   6.301   3.381   5.548  0.0384  0.9061 -0.9410
 7887TIP3    H247857   6.189   3.400   5.448 -1.2055 -1.0231  0.0243
 7888TIP3   OH247858   0.068   6.926   6.205 -0.0918  0.2039 -0.0704
 7888TIP3    H147859   0.153   6.936   6.248 -0.5416 -0.0299  0.8933
 7888TIP3    H247860   0.029   6.850   6.247 -0.0304 -0.8352 -1.7981
 7889TIP3   OH247861   0.888   6.647   5.147  0.4176  0.3749  0.3001
 7889TIP3    H147862   0.935   6.697   5.213 -1.1276 -0.5656  2.2399
 7889TIP3    H247863   0.797   6.646   5.178  0.2026 -2.9135  0.0171
 7890TIP3   OH247864   7.610   2.791   6.301  0.1348  0.3925 -0.0253
 7890TIP3    H147865   7.633   2.880   6.329 -0.3472 -0.1333  2.2377
 7890TIP3    H247866   7.693   2.753   6.274  1.0241  0.4084  2.4497
 7891TIP3   OH247867   2.609   2.106   5.621  0.3758  0.1753  0.0539
 7891TIP3    H147868   2.594   2.196   5.652 -0.6145 -0.6139  2.0667
 7891TIP3    H247869   2.622   2.115   5.527  0.9952  2.5011  0.2944
 7892TIP3   OH247870   1.848   0.702   5.507  0.7326  0.0378  0.3004
 7892TIP3    H147871   1.930   0.653   5.514  1.0641  0.5925  0.3553
 7892TIP3    H247872   1.780   0.635   5.517  1.1751 -0.3932  0.5058
 7893TIP3   OH247873   6.590   5.388   6.313  1.1598 -0.3476  0.1881
 7893TIP3    H147874   6.618   5.301   6.283 -0.6507 -0.7533 -0.4447
 7893TIP3    H247875   6.629   5.449   6.251  0.5650 -0.9047 -0.7567
 7894TIP3   OH247876   4.555   3.478   3.407  0.6686 -0.3989  0.4862
 7894TIP3    H147877   4.475   3.530   3.411  0.8415 -0.1994  1.7193
 7894TIP3    H247878   4.525   3.390   3.382  0.0722 -0.3006  0.8347
 7895TIP3   OH247879   7.636   5.277   5.560  0.0187  0.3184 -0.3991
 7895TIP3    H147880   7.640   5.183   5.578 -0.6900  0.4218  0.3952
 7895TIP3    H247881   7.589   5.313   5.636 -0.8603  1.1411 -1.2995
 7896TIP3   OH247882   2.301   6.467   4.192 -0.1725 -0.0408 -0.5680
 7896TIP3    H147883   2.298   6.396   4.256  0.1805  1.3214  1.0490
 7896TIP3    H247884   2.386   6.509   4.208  0.0855  0.1279 -2.2142
 7897TIP3   OH247885   2.088   3.625   3.851  0.7749  0.0676 -0.3174
 7897TIP3    H147886   2.160   3.612   3.913  0.1971 -0.5009  0.2546
 7897TIP3    H247887   2.030   3.549   3.865 -0.8360  1.3724  0.4999
 7898TIP3   OH247888   2.553   7.047   3.866  0.2991  0.0169  0.3738
 7898TIP3    H147889   2.576   6.954   3.871  2.0306  0.4009  0.0109
 7898TIP3    H247890   2.601   7.088   3.938 -0.4724  0.6495  0.5461
 7899TIP3   OH247891   4.554   4.750   4.086 -0.3258 -0.0170 -0.1890
 7899TIP3    H147892   4.499   4.765   4.163  0.2880  0.5334  0.1616
 7899TIP3    H247893   4.501   4.778   4.012 -0.6764  0.0938  0.1038
 7900TIP3   OH247894   4.174   6.208   3.934  0.1446  0.4846 -0.3825
 7900TIP3    H147895   4.206   6.172   4.017 -1.6578  0.5839  0.3999
 7900TIP3    H247896   4.137   6.133   3.888  0.6222  0.5341 -0.8600
 7901TIP3   OH247897   5.163   7.643   4.783  0.3354  0.3173  0.3210
 7901TIP3    H147898   5.235   7.661   4.844  0.2129  0.2355  0.4927
 7901TIP3    H247899   5.159   7.547   4.779 -2.0522  0.1321  3.1292
 7902TIP3   OH247900   1.870   6.922   6.170  0.6783  0.1552  0.1416
 7902TIP3    H147901   1.932   6.869   6.220  0.0125 -0.5338  0.2667
 7902TIP3    H247902   1.910   6.931   6.084  0.8843 -0.4147  0.1734
 7903TIP3   OH247903   2.793   7.092   5.612  0.0963 -0.3912  0.3517
 7903TIP3    H147904   2.851   7.138   5.673  0.9561 -1.9117  0.7142
 7903TIP3    H247905   2.705   7.110   5.645  0.4939 -0.2144  1.3435
 7904TIP3   OH247906   1.000   5.384   4.649  0.6911 -0.3013  0.0824
 7904TIP3    H147907   0.977   5.440   4.723 -0.4027 -1.1884  0.4508
 7904TIP3    H247908   1.031   5.303   4.689  3.2931  0.3677 -0.4316
 7905TIP3   OH247909   6.957   6.827   6.478 -0.0888 -0.2216 -0.2191
 7905TIP3    H147910   6.946   6.734   6.496 -1.9231 -0.2314 -1.1679
 7905TIP3    H247911   6.869   6.858   6.457  0.4211  1.8086  0.4053
 7906TIP3   OH247912   5.100   2.549   4.147 -0.1187 -0.5378  0.0615
 7906TIP3    H147913   5.075   2.577   4.059 -0.2512  0.0189  0.2751
 7906TIP3    H247914   5.103   2.629   4.199 -2.6537 -1.1101  1.2356
 7907TIP3   OH247915   5.910   3.018  11.405 -0.3845  0.7587  0.0899
 7907TIP3    H147916   5.819   3.042  11.421 -0.7735  1.8805 -2.9885
 7907TIP3    H247917   5.961   3.088  11.447 -1.2656  3.1463 -2.4350
 7908TIP3   OH247918   6.138   2.894   5.329 -0.2390 -0.3642  0.3165
 7908TIP3    H147919   6.159   2.938   5.411 -1.3040 -1.6271  1.3226
 7908TIP3    H247920   6.111   2.965   5.270  0.9740  0.6100  0.8856
 7909TIP3   OH247921   1.699   3.332   6.339  0.1904  0.2314 -0.3911
 7909TIP3    H147922   1.756   3.260   6.366  0.4034  0.4176 -0.3398
 7909TIP3    H247923   1.737   3.365   6.258 -0.6053 -0.5028 -1.0918
 7910TIP3   OH247924   7.005   5.663   5.754  0.2839  0.3934 -0.8297
 7910TIP3    H147925   7.093   5.687   5.782  0.9228 -0.0733 -2.3268
 7910TIP3    H247926   6.972   5.741   5.710  1.4789 -0.5652 -3.6584
 7911TIP3   OH247927   0.505   3.091   6.411  0.2352  0.2915  0.0923
 7911TIP3    H147928   0.414   3.086   6.384  0.5814  1.2250 -1.3593
 7911TIP3    H247929   0.508   3.164   6.473 -0.3903 -1.2423  2.0085
 7912TIP3   OH247930   2.049   4.335   4.485  0.0160 -0.3537 -0.1855
 7912TIP3    H147931   1.983   4.282   4.440  0.0270  0.2183 -0.8985
 7912TIP3    H247932   2.090   4.275   4.548 -0.8638 -0.8374 -0.0576
 7913TIP3   OH247933   6.055   5.240   4.840 -0.0864 -0.1525  0.3339
 7913TIP3    H147934   6.063   5.207   4.930 -0.7362 -1.3129 -0.0078
 7913TIP3    H247935   6.002   5.173   4.795 -0.4195  0.7881 -0.7119
 7914TIP3   OH247936   0.224   7.393   5.866  0.1606  0.1560 -0.5829
 7914TIP3    H147937   0.267   7.457   5.923 -1.0181 -0.0179  0.5625
 7914TIP3    H247938   0.147   7.438   5.833  0.1602 -0.1663 -1.0240
 7915TIP3   OH247939   7.453   3.880   4.778 -0.5792 -0.2711 -0.9510
 7915TIP3    H147940   7.501   3.937   4.718 -1.1144 -0.6415 -1.7451
 7915TIP3    H247941   7.395   3.828   4.721 -3.3554  1.4906  0.0812
 7916TIP3   OH247942   3.728   1.202   5.371 -0.1851  0.1900 -0.1260
 7916TIP3    H147943   3.704   1.134   5.307 -1.3558  0.9886 -0.5621
 7916TIP3    H247944   3.752   1.153   5.449  2.4659 -0.8967 -1.4648
 7917TIP3   OH247945   6.798   0.285   5.378  0.5751  0.2069  0.2000
 7917TIP3    H147946   6.888   0.296   5.347  1.2523  0.5934  2.1210
 7917TIP3    H247947   6.799   0.321   5.467 -1.6913  0.9739 -0.0178
 7918TIP3   OH247948   1.166   7.239   4.627 -0.2340 -0.6333 -0.0533
 7918TIP3    H147949   1.186   7.170   4.564 -0.4511 -0.2677 -0.5235
 7918TIP3    H247950   1.238   7.236   4.689 -0.4581 -1.5787  0.1882
 7919TIP3   OH247951   0.334   2.458   5.013  0.0329 -0.1917  1.2193
 7919TIP3    H147952   0.263   2.427   5.070  0.0650 -1.2786  0.6856
 7919TIP3    H247953   0.290   2.515   4.950 -0.4745 -1.2738  0.5648
 7920TIP3   OH247954   3.108   2.461   4.554 -0.6531 -0.1105  0.0011
 7920TIP3    H147955   3.080   2.408   4.479 -0.1434  0.8117 -0.8817
 7920TIP3    H247956   3.027   2.501   4.586 -0.6406  1.3101 -1.5537
 7921TIP3   OH247957   5.501   5.139   5.621  0.6212  0.1017 -0.7030
 7921TIP3    H147958   5.461   5.053   5.608 -0.7579  0.6296 -0.1404
 7921TIP3    H247959   5.581   5.137   5.568  2.0678 -2.4827  1.3153
 7922TIP3   OH247960   4.499   0.897   6.041  0.3051  0.1806 -0.3094
 7922TIP3    H147961   4.560   0.824   6.029 -0.1102  0.0699 -1.9863
 7922TIP3    H247962   4.497   0.941   5.956 -2.9830 -0.6554 -0.8266
 7923TIP3   OH247963   0.207   3.468   5.715 -0.3774 -0.2785  0.6122
 7923TIP3    H147964   0.293   3.470   5.756 -0.2666 -2.7142  0.6883
 7923TIP3    H247965   0.219   3.509   5.630  0.5348  0.5656  1.1417
 7924TIP3   OH247966   3.488   5.371   4.380  0.3314 -0.2493  0.1483
 7924TIP3    H147967   3.416   5.375   4.443  1.1443  1.0745  1.0673
 7924TIP3    H247968   3.539   5.295   4.407 -0.0603 -0.4748  0.2550
 7925TIP3   OH247969   1.781   1.896   5.587 -0.1542 -0.3901  0.3815
 7925TIP3    H147970   1.833   1.958   5.535 -2.7174  0.2522 -1.6286
 7925TIP3    H247971   1.801   1.811   5.548 -3.0102  0.2032 -2.8376
 7926TIP3   OH247972   0.178   6.329   5.186  0.0347 -0.3475 -0.3566
 7926TIP3    H147973   0.238   6.358   5.254 -1.4657  0.2639  0.7610
 7926TIP3    H247974   0.168   6.406   5.129  0.0590 -0.3498 -0.3642
 7927TIP3   OH247975   0.548   0.921   5.301 -0.4146 -0.1508  0.1217
 7927TIP3    H147976   0.454   0.925   5.286 -0.3513  0.2709 -0.1971
 7927TIP3    H247977   0.557   0.878   5.386 -0.8798 -0.4581  0.0183
 7928TIP3   OH247978   6.438   2.927   6.130 -0.1706  0.7028  0.3773
 7928TIP3    H147979   6.472   2.837   6.126  0.3896  0.9390 -0.5699
 7928TIP3    H247980   6.496   2.971   6.193  0.8998  0.9279 -0.7300
 7929TIP3   OH247981   3.683   0.390   4.810 -0.1993  0.4377  0.0654
 7929TIP3    H147982   3.629   0.468   4.816  1.1611  1.2978  3.9555
 7929TIP3    H247983   3.770   0.422   4.786  0.2081  0.0661  0.9912
 7930TIP3   OH247984   4.426   6.362   4.028 -0.0899  0.6238 -0.3427
 7930TIP3    H147985   4.408   6.275   4.063  2.0935 -0.5036 -1.8167
 7930TIP3    H247986   4.346   6.384   3.979  0.0715 -1.5157 -1.6998
 7931TIP3   OH247987   3.326   4.778   5.790 -0.5921  0.2143 -0.1950
 7931TIP3    H147988   3.379   4.704   5.762 -1.1901 -0.6277  0.8262
 7931TIP3    H247989   3.285   4.810   5.709  1.2421  0.7517 -0.9720
 7932TIP3   OH247990   1.853   2.568   4.100  0.1386 -0.4285 -0.2595
 7932TIP3    H147991   1.819   2.622   4.171  2.4090 -0.5496  1.0283
 7932TIP3    H247992   1.885   2.631   4.035  0.2965 -0.2742 -0.0313
 7933TIP3   OH247993   3.768   4.543   6.570 -0.1084 -0.3389 -0.6204
 7933TIP3    H147994   3.805   4.552   6.658  1.0412  0.3471 -1.1484
 7933TIP3    H247995   3.695   4.605   6.568  1.3177  1.4209 -0.8680
 7934TIP3   OH247996   5.524   7.282   4.405  0.1563 -0.4490 -0.0911
 7934TIP3    H147997   5.589   7.298   4.336 -0.6147 -0.2998 -0.7957
 7934TIP3    H247998   5.459   7.351   4.392  0.7094  0.4820  1.6922
 7935TIP3   OH247999   5.951   2.368   4.758  0.3275  0.0463  0.3572
 7935TIP3    H148000   6.007   2.345   4.831  0.5501  0.2562  0.2529
 7935TIP3    H248001   6.007   2.418   4.699  0.8213 -2.1132 -1.0985
 7936TIP3   OH248002   3.327   2.149   5.712 -0.0313 -0.1323 -0.0004
 7936TIP3    H148003   3.320   2.245   5.706  0.5168 -0.0837  0.0440
 7936TIP3    H248004   3.255   2.123   5.769 -0.2546  0.2449 -0.1071
 7937TIP3   OH248005   5.268   3.906   5.926 -0.2393  0.7489 -0.2074
 7937TIP3    H148006   5.275   3.944   6.014  0.5540  0.4908 -0.1564
 7937TIP3    H248007   5.215   3.827   5.939 -1.7325  1.6932 -0.2821
 7938TIP3   OH248008   6.750   2.313   6.334  0.0291  0.7767 -0.8285
 7938TIP3    H148009   6.656   2.304   6.350 -0.3145  1.4830 -2.2588
 7938TIP3    H248010   6.779   2.378   6.398  0.2668 -1.6921  1.8171
 7939TIP3   OH248011   7.496   3.391   6.280  0.0758  0.2686 -0.3191
 7939TIP3    H148012   7.509   3.297   6.267  0.6010  0.2255  0.4232
 7939TIP3    H248013   7.406   3.399   6.310 -0.2628  0.1035 -1.2501
 7940TIP3   OH248014   3.231   7.201   5.307 -0.6085 -0.5948 -0.4075
 7940TIP3    H148015   3.216   7.207   5.212  0.7680 -0.9640 -0.6777
 7940TIP3    H248016   3.276   7.283   5.329 -1.9880  0.0296  0.1704
 7941TIP3   OH248017   0.384   5.415   5.403  0.4665  0.3808 -0.2956
 7941TIP3    H148018   0.435   5.486   5.363 -0.4634  1.0390 -0.3380
 7941TIP3    H248019   0.353   5.451   5.486  1.4117 -0.5808  0.4952
 7942TIP3   OH248020   4.285   3.793   4.336 -0.1998  0.0806  0.0887
 7942TIP3    H148021   4.357   3.733   4.316 -0.6754 -0.1951 -0.8461
 7942TIP3    H248022   4.304   3.872   4.285 -0.1687  0.2921  0.4262
 7943TIP3   OH248023   6.619   5.607   4.741  0.3048 -0.2562 -0.6546
 7943TIP3    H148024   6.632   5.699   4.719  1.8984 -0.3468 -0.2270
 7943TIP3    H248025   6.681   5.590   4.812 -2.0319 -0.9056  1.4207
 7944TIP3   OH248026   0.169   4.186   6.534  0.1730  0.7249 -0.0664
 7944TIP3    H148027   0.112   4.170   6.459 -1.0466  1.1388  0.7394
 7944TIP3    H248028   0.109   4.205   6.606  1.3491  1.9857  0.6270
 7945TIP3   OH248029   4.677   1.047   5.018 -0.2994  0.6330  0.2130
 7945TIP3    H148030   4.617   1.058   5.092  0.7167  1.2794  0.9847
 7945TIP3    H248031   4.752   1.000   5.056 -0.6427 -0.8599 -0.9106
 7946TIP3   OH248032   5.029   3.898   5.173  0.0849  0.9666 -0.1799
 7946TIP3    H148033   5.097   3.903   5.240 -0.3041  0.4243  0.2672
 7946TIP3    H248034   5.031   3.807   5.144 -0.0950  1.0786 -0.5444
 7947TIP3   OH248035   2.092   2.453   4.507 -0.1168  0.1471 -0.2444
 7947TIP3    H148036   2.097   2.528   4.448 -1.2052  0.3724 -0.0812
 7947TIP3    H248037   2.133   2.381   4.460 -1.5059  0.1567 -1.5550
 7948TIP3   OH248038   4.845   0.485   5.175  0.0646 -0.2186  0.3463
 7948TIP3    H148039   4.759   0.449   5.197  0.0477 -0.6865 -0.4209
 7948TIP3    H248040   4.849   0.570   5.219 -1.1475  0.2068 -0.3333
 7949TIP3   OH248041   7.602   6.850   4.377 -0.0555  0.2163  0.3055
 7949TIP3    H148042   7.535   6.894   4.324  0.3217  1.3999  0.7880
 7949TIP3    H248043   7.559   6.769   4.407 -0.3152 -0.4340 -1.6794
 7950TIP3   OH248044   2.477   7.041   4.222  0.4248  0.0333 -0.2004
 7950TIP3    H148045   2.400   7.097   4.233 -0.2845 -0.5683 -1.7908
 7950TIP3    H248046   2.551   7.101   4.227 -0.1883  0.7628  0.4419
 7951TIP3   OH248047   6.607   6.719   3.765 -1.0108 -0.2835 -0.0254
 7951TIP3    H148048   6.699   6.736   3.748 -1.1907  0.8428  0.0817
 7951TIP3    H248049   6.597   6.625   3.749  0.2218 -0.4920  0.2971
 7952TIP3   OH248050   2.285   4.491   4.422  0.0070  0.4479  0.4626
 7952TIP3    H148051   2.197   4.455   4.429  0.4727 -0.7054  0.6673
 7952TIP3    H248052   2.316   4.462   4.336  0.3231  0.5153  0.5526
 7953TIP3   OH248053   4.924   5.465   4.135 -0.4320 -0.5450  0.6675
 7953TIP3    H148054   5.003   5.417   4.110 -0.6595  0.1640 -1.5640
 7953TIP3    H248055   4.852   5.407   4.109 -0.6848 -0.3674  0.9622
 7954TIP3   OH248056   3.490   2.869   5.080 -0.7320 -0.5452  0.0122
 7954TIP3    H148057   3.409   2.890   5.127 -0.8760 -2.4768  0.7373
 7954TIP3    H248058   3.471   2.785   5.038  0.1544  0.0921 -1.7089
 7955TIP3   OH248059   6.259   1.475   4.421 -0.3072  0.1405  0.1589
 7955TIP3    H148060   6.194   1.527   4.468 -2.4968  0.2409 -2.6775
 7955TIP3    H248061   6.308   1.539   4.370  0.7760 -0.1301  0.8243
 7956TIP3   OH248062   2.372   2.938   5.573 -0.4773 -0.2846 -0.0697
 7956TIP3    H148063   2.358   3.003   5.641 -3.0852 -0.8981  0.0862
 7956TIP3    H248064   2.446   2.886   5.604 -0.4639  0.5547  1.3936
 7957TIP3   OH248065   5.352   2.757   5.796 -0.0337 -0.0059 -0.1476
 7957TIP3    H148066   5.387   2.832   5.844 -0.6846 -0.8269  1.7205
 7957TIP3    H248067   5.426   2.724   5.746  0.4212  1.4728 -0.4958
 7958TIP3   OH248068   5.489   3.030   4.944  0.3248 -0.3801  0.2105
 7958TIP3    H148069   5.544   3.079   5.005 -1.6171 -0.8982  2.5124
 7958TIP3    H248070   5.534   2.946   4.934  1.7110  0.4339 -0.7755
 7959TIP3   OH248071   1.423   5.846   4.662 -0.1000 -0.2341  0.7292
 7959TIP3    H148072   1.363   5.898   4.715 -1.5048 -1.2455  0.2076
 7959TIP3    H248073   1.396   5.863   4.572 -0.1954 -1.3746  0.5266
 7960TIP3   OH248074   5.252   3.640   4.223 -0.3849 -0.2397  0.1730
 7960TIP3    H148075   5.183   3.693   4.183 -1.0159 -0.9834  0.2516
 7960TIP3    H248076   5.293   3.699   4.287  0.1779  0.7334 -1.0445
 7961TIP3   OH248077   4.389   5.023   4.138  0.5671 -0.3873 -0.1417
 7961TIP3    H148078   4.307   4.975   4.153 -0.2818  1.2978  0.8998
 7961TIP3    H248079   4.382   5.100   4.194  1.4705  1.4142 -2.3539
 7962TIP3   OH248080   5.216   0.985   4.081 -0.3746 -0.5588  0.7082
 7962TIP3    H148081   5.210   0.895   4.111  1.3072 -1.8678 -2.4535
 7962TIP3    H248082   5.305   0.994   4.048 -0.5077  2.2672  0.8422
 7963TIP3   OH248083   4.528   0.361   4.644  0.1047 -0.3544  0.0783
 7963TIP3    H148084   4.458   0.376   4.580 -0.3716 -0.3103  0.5942
 7963TIP3    H248085   4.485   0.312   4.714  0.0436  1.4894  1.3963
 7964TIP3   OH248086   0.026   3.266   5.654 -0.2349  0.6120 -0.3051
 7964TIP3    H148087   0.101   3.323   5.667  0.5687 -0.5299  0.2585
 7964TIP3    H248088  -0.038   3.320   5.606  1.0630  1.5036 -1.0952
 7965TIP3   OH248089   7.425   4.049   4.077  0.0190  0.3059  0.1306
 7965TIP3    H148090   7.456   3.960   4.057 -0.2229  0.6736 -2.1239
 7965TIP3    H248091   7.385   4.079   3.996 -0.5845  2.2166  1.0878
 7966TIP3   OH248092   5.213   0.281   4.739 -0.3994  0.3663 -0.2920
 7966TIP3    H148093   5.205   0.273   4.644 -1.5310  0.8036 -0.2468
 7966TIP3    H248094   5.156   0.213   4.775 -1.0086  1.0596  0.0700
 7967TIP3   OH248095   6.281   3.500   3.804  0.0045 -0.1344  0.6058
 7967TIP3    H148096   6.277   3.405   3.814 -0.9313 -0.1898 -0.1391
 7967TIP3    H248097   6.275   3.514   3.710  5.1345  0.4958  0.1064
 7968TIP3   OH248098   5.266   0.133   6.049  0.3433  0.2668 -0.3781
 7968TIP3    H148099   5.294   0.124   5.957  1.3412 -1.3632  0.0375
 7968TIP3    H248100   5.223   0.050   6.069  0.8458  0.2904  0.8557
 7969TIP3   OH248101   3.599   4.947   6.386  0.2673 -0.2570  0.0475
 7969TIP3    H148102   3.552   4.992   6.456  0.9526 -0.5776  0.7395
 7969TIP3    H248103   3.658   4.887   6.432 -0.0318 -1.2603 -0.8275
 7970TIP3   OH248104   2.019   2.208   5.102  0.4210  0.0349 -0.0281
 7970TIP3    H148105   1.971   2.290   5.115  0.2389 -0.0055 -0.4411
 7970TIP3    H248106   2.083   2.228   5.033 -0.5689 -0.5592 -1.1413
 7971TIP3   OH248107   6.873   4.420   5.141  0.0678 -0.2193  0.1589
 7971TIP3    H148108   6.870   4.495   5.081  2.3001  1.2223  1.6896
 7971TIP3    H248109   6.894   4.345   5.085 -0.6135  0.5678 -1.2046
 7972TIP3   OH248110   5.129   2.692   4.545  0.2155 -0.2643  0.6228
 7972TIP3    H148111   5.123   2.744   4.465  0.6662 -0.1571  0.6569
 7972TIP3    H248112   5.039   2.690   4.579  0.6207  3.3279  2.4025
 7973TIP3   OH248113   5.925   1.155   5.028 -0.3127 -0.2554 -0.5971
 7973TIP3    H148114   5.983   1.129   5.099 -1.7487 -0.4252  0.5515
 7973TIP3    H248115   5.863   1.217   5.068 -1.2534 -0.4698 -1.6503
 7974TIP3   OH248116   5.777   6.147   4.442 -0.4784  0.0638  0.0669
 7974TIP3    H148117   5.823   6.076   4.487 -1.4772 -0.0799  0.8930
 7974TIP3    H248118   5.804   6.139   4.350  2.4238  0.9952  0.7271
 7975TIP3   OH248119   6.455   4.843   4.136  0.0499  0.3019  0.3659
 7975TIP3    H148120   6.493   4.838   4.048 -1.0735  1.9824 -0.2573
 7975TIP3    H248121   6.380   4.784   4.133 -1.5230  2.2571 -0.6784
 7976TIP3   OH248122   1.275   2.869   5.203  0.2357  0.5256  0.0835
 7976TIP3    H148123   1.244   2.794   5.253  0.5727  0.8638  0.8257
 7976TIP3    H248124   1.265   2.944   5.263  1.0972  0.8640 -0.1743
 7977TIP3   OH248125   0.244   3.031   5.069  0.1897  0.6585 -0.2837
 7977TIP3    H148126   0.229   3.124   5.085  0.0919  0.7262 -0.7507
 7977TIP3    H248127   0.325   3.028   5.017 -0.0201  0.5096 -0.6046
 7978TIP3   OH248128   6.945   6.630   4.332 -0.8729 -0.3483 -0.0676
 7978TIP3    H148129   6.935   6.539   4.302 -2.1950 -0.2820  0.1045
 7978TIP3    H248130   6.856   6.658   4.353 -0.7401  1.6191 -1.8629
 7979TIP3   OH248131   1.650   7.100   4.722  0.0491  0.0491  0.4340
 7979TIP3    H148132   1.672   7.144   4.640 -1.5980  1.2664  0.6017
 7979TIP3    H248133   1.612   7.016   4.695 -0.4834  0.4441 -0.0611
 7980TIP3   OH248134   5.734   6.190   3.795  0.3532  0.9170  0.3801
 7980TIP3    H148135   5.673   6.126   3.831 -0.3217  1.4454  0.1909
 7980TIP3    H248136   5.802   6.138   3.753  0.2296  0.3178  0.9064
 7981TIP3   OH248137   5.118   4.940   4.090  0.4886  0.0421 -0.1915
 7981TIP3    H148138   5.098   5.033   4.093  0.1212 -0.0516  0.7189
 7981TIP3    H248139   5.033   4.897   4.084  0.5500 -0.2741  0.9656
 7982TIP3   OH248140   4.322   3.477   3.722 -0.2106 -0.1993 -0.2371
 7982TIP3    H148141   4.340   3.498   3.814  0.3718 -0.4802 -0.2802
 7982TIP3    H248142   4.292   3.386   3.724  2.2692 -1.1036 -0.5563
 7983TIP3   OH248143   6.156   5.414   6.090  0.0278  0.3311 -0.3779
 7983TIP3    H148144   6.079   5.393   6.142  1.7576  0.3514  2.4303
 7983TIP3    H248145   6.163   5.509   6.094 -0.0270  0.3687 -1.0158
 7984TIP3   OH248146   3.848   1.902   5.024  0.1240  0.2341  0.2837
 7984TIP3    H148147   3.833   1.841   5.096  0.2594 -0.4729 -0.2737
 7984TIP3    H248148   3.766   1.951   5.017  0.3836  0.8541  1.4158
 7985TIP3   OH248149   7.640   4.598   6.600  0.3369  0.3468  0.0487
 7985TIP3    H148150   7.732   4.591   6.627  0.8965  1.1366 -1.5866
 7985TIP3    H248151   7.621   4.691   6.604 -0.7166  0.1097  1.2884
 7986TIP3   OH248152   5.909   0.632   5.039 -0.3485  0.1533  0.2783
 7986TIP3    H148153   5.976   0.611   5.104  0.9033 -1.4401 -1.4416
 7986TIP3    H248154   5.895   0.727   5.049  0.9222  0.2205  1.7896
 7987TIP3   OH248155   6.513   3.961   5.547  0.1760 -0.0759 -0.1257
 7987TIP3    H148156   6.602   3.931   5.532  1.0955  1.1645  2.3721
 7987TIP3    H248157   6.505   4.042   5.496  0.8176  0.3187  0.3949
 7988TIP3   OH248158   1.612   5.032   5.413 -0.2516 -0.3964 -0.2890
 7988TIP3    H148159   1.600   4.938   5.400 -1.7138 -0.4328  1.0519
 7988TIP3    H248160   1.552   5.073   5.351  0.2890 -0.3408 -0.7812
 7989TIP3   OH248161   1.366   7.374   5.313 -0.4227  0.2395  0.2230
 7989TIP3    H148162   1.359   7.356   5.406  0.6332 -1.2900  0.0514
 7989TIP3    H248163   1.442   7.431   5.305  0.4119 -0.8356  0.2031
 7990TIP3   OH248164   2.662   4.358   5.517 -0.1062 -0.2325 -0.0271
 7990TIP3    H148165   2.635   4.425   5.580  0.9566  1.0405 -0.8858
 7990TIP3    H248166   2.693   4.286   5.572  0.8408  0.8643  0.9435
 7991TIP3   OH248167   1.431   1.350   5.555  0.2898  0.7625  0.1240
 7991TIP3    H148168   1.417   1.256   5.550  0.8317  0.7265 -0.9621
 7991TIP3    H248169   1.513   1.360   5.603 -0.3414  0.7401  1.2363
 7992TIP3   OH248170   0.266   4.618   4.236  0.7433  0.1121  0.1918
 7992TIP3    H148171   0.273   4.602   4.330  0.5893 -3.9853 -0.2714
 7992TIP3    H248172   0.182   4.579   4.212  0.4459  1.7044 -1.5829
 7993TIP3   OH248173   1.028   5.903   6.589 -0.4946 -0.5911  0.3383
 7993TIP3    H148174   1.115   5.888   6.553  0.0278  1.5544  0.5642
 7993TIP3    H248175   1.016   5.998   6.584 -1.9773 -0.6189  2.2404
 7994TIP3   OH248176   3.188   7.167   4.037 -0.0368 -0.1269  0.0899
 7994TIP3    H148177   3.222   7.257   4.035  0.9223 -0.4790 -1.4090
 7994TIP3    H248178   3.267   7.112   4.041 -0.6204 -0.9054  1.2029
 7995TIP3   OH248179   2.895   7.126   3.981  0.5537  0.2846  0.4575
 7995TIP3    H148180   2.919   7.079   3.901  0.7718  1.8603 -0.4292
 7995TIP3    H248181   2.977   7.131   4.031  0.2513 -1.3989  1.2007
 7996TIP3   OH248182   0.890   7.062   6.670 -0.0154  0.3378  0.4533
 7996TIP3    H148183   0.944   7.009   6.613  0.2761  0.4026  0.6651
 7996TIP3    H248184   0.849   7.127   6.613  1.3795  1.3070  0.5092
 7997TIP3   OH248185   1.472   6.381   3.772  0.4351 -0.5606  0.7104
 7997TIP3    H148186   1.439   6.336   3.694  1.0853 -0.8486  0.6017
 7997TIP3    H248187   1.398   6.379   3.833 -0.5421  0.8273 -0.3487
 7998TIP3   OH248188   3.620   7.658   4.868 -0.2566  0.5683 -0.2956
 7998TIP3    H148189   3.664   7.645   4.951 -0.4877 -2.4998 -0.5622
 7998TIP3    H248190   3.681   7.712   4.817  2.2440 -1.6361  0.1388
 7999TIP3   OH248191   6.906   4.124   6.452  0.0769  0.0240 -0.0740
 7999TIP3    H148192   6.838   4.089   6.509  1.4692 -1.4540  0.7871
 7999TIP3    H248193   6.976   4.150   6.511  0.3818  1.2655 -0.9507
 8000TIP3   OH248194   4.486   6.641   4.439  0.0895 -0.1591  0.1275
 8000TIP3    H148195   4.520   6.552   4.446  0.9004  0.2224  1.6415
 8000TIP3    H248196   4.564   6.696   4.432 -0.2345  0.5898  1.7938
 8001TIP3   OH248197   1.632   2.788   4.179 -0.2179  0.1776 -0.4375
 8001TIP3    H148198   1.710   2.824   4.138  0.0170 -0.0310 -0.1817
 8001TIP3    H248199   1.567   2.858   4.175 -0.0308  0.3362 -0.6884
 8002TIP3   OH248200   4.258   7.090   4.052 -0.0401  0.8362 -0.1482
 8002TIP3    H148201   4.194   7.035   4.098  0.3319 -1.7023 -2.4148
 8002TIP3    H248202   4.335   7.090   4.110 -0.4385 -0.1948  0.4181
 8003TIP3   OH248203   2.449   1.142   3.840  0.4438  0.3405  0.4102
 8003TIP3    H148204   2.536   1.121   3.875  0.2250 -1.8639 -0.2154
 8003TIP3    H248205   2.454   1.118   3.748  0.4590  4.3989 -0.8168
 8004TIP3   OH248206   6.367   0.509   5.184 -0.3000  0.2780 -0.1964
 8004TIP3    H148207   6.395   0.554   5.104  1.2863 -0.2701  0.0269
 8004TIP3    H248208   6.447   0.500   5.236 -1.2238  0.2285  1.2690
 8005TIP3   OH248209   3.766   2.631   3.912  0.0199  0.1425  0.4162
 8005TIP3    H148210   3.728   2.553   3.871  1.8865 -1.2693  1.2209
 8005TIP3    H248211   3.772   2.694   3.840 -1.8931 -0.2729 -0.1688
 8006TIP3   OH248212   6.922   3.254   4.860  0.0437 -0.1289 -0.6239
 8006TIP3    H148213   6.961   3.329   4.814 -0.3237  0.4954  0.0492
 8006TIP3    H248214   6.986   3.230   4.926 -0.5266  0.6780  0.2565
 8007TIP3   OH248215   6.845   3.444   6.023  0.4241  0.3380  0.0191
 8007TIP3    H148216   6.839   3.351   6.044 -0.2122 -0.0313 -1.6459
 8007TIP3    H248217   6.843   3.488   6.109 -1.9409 -1.0438  0.7758
 8008TIP3   OH248218   3.466   1.115   4.943  0.7530  0.2066  0.0005
 8008TIP3    H148219   3.558   1.089   4.933  1.4752  2.0341  1.3164
 8008TIP3    H248220   3.469   1.194   4.997 -1.7038 -0.6377  1.5501
 8009TIP3   OH248221   3.843   7.357   4.454 -0.3453 -0.3956 -0.4688
 8009TIP3    H148222   3.823   7.432   4.511  0.7020 -1.0103  0.7507
 8009TIP3    H248223   3.826   7.389   4.365 -1.0922  0.8913  0.1131
 8010TIP3   OH248224   5.331   3.781   6.381 -0.2491  0.4062  0.1605
 8010TIP3    H148225   5.294   3.845   6.320 -1.1746 -0.2839 -0.0254
 8010TIP3    H248226   5.284   3.700   6.362  0.1590 -0.0678  1.1085
 8011TIP3   OH248227   3.195   0.625   4.331 -0.0975  0.0704 -0.1093
 8011TIP3    H148228   3.254   0.632   4.406  0.6003  0.2630 -0.6688
 8011TIP3    H248229   3.252   0.624   4.255 -0.8840  3.7261 -0.9309
 8012TIP3   OH248230   2.992   6.217   4.826 -0.9040  0.2357 -0.9122
 8012TIP3    H148231   3.007   6.299   4.873  0.8293  0.0707 -1.0817
 8012TIP3    H248232   2.903   6.224   4.792 -1.6311  1.0442  1.0069
 8013TIP3   OH248233   5.828   6.889   3.998  0.2115  0.5459  0.8247
 8013TIP3    H148234   5.908   6.941   3.991  0.9207 -0.7318 -3.3959
 8013TIP3    H248235   5.860   6.798   4.001 -1.1010  0.0917  2.5196
 8014TIP3   OH248236   6.348   5.974   4.268  0.2724  0.2649  0.1487
 8014TIP3    H148237   6.345   5.965   4.173  0.5588 -0.5786  0.2066
 8014TIP3    H248238   6.430   5.931   4.294  0.4233  0.8913  0.7344
 8015TIP3   OH248239   0.913   2.018   4.582  0.0974  0.3384  0.5156
 8015TIP3    H148240   0.818   2.031   4.576  0.1423  0.2096 -0.6353
 8015TIP3    H248241   0.940   2.080   4.650 -0.7295  0.8402  0.4134
 8016TIP3   OH248242   2.341   4.605   4.822  0.1641  0.4309  0.7816
 8016TIP3    H148243   2.246   4.590   4.817  0.0950  1.2825 -2.0065
 8016TIP3    H248244   2.351   4.675   4.886 -1.0337  0.0430  1.4257
 8017TIP3   OH248245   0.233   2.969   4.400 -0.1860  0.3052 -0.4146
 8017TIP3    H148246   0.171   3.005   4.464 -1.6348 -2.3028 -0.2315
 8017TIP3    H248247   0.200   2.999   4.316 -0.6673  0.3886 -0.2013
 8018TIP3   OH248248   3.732   2.739   4.317 -0.5083  0.0019  0.8566
 8018TIP3    H148249   3.689   2.818   4.350 -0.8613  1.0390 -1.8336
 8018TIP3    H248250   3.683   2.717   4.238  2.4108 -0.1033 -1.0787
 8019TIP3   OH248251   7.504   5.059   4.310 -0.5983  0.5521 -0.1482
 8019TIP3    H148252   7.521   5.116   4.234 -0.6345  1.8928  0.8190
 8019TIP3    H248253   7.576   4.996   4.309  0.5666  1.8436 -0.1166
 8020TIP3   OH248254   1.399   6.954   4.263  0.1619 -0.0502 -0.2244
 8020TIP3    H148255   1.406   6.928   4.171 -0.8588 -0.0911 -0.3074
 8020TIP3    H248256   1.472   6.910   4.307  0.8114  0.1749 -1.0564
 8021TIP3   OH248257   0.604   5.111   3.835 -0.1401  0.3647  0.9775
 8021TIP3    H148258   0.538   5.085   3.771  0.5680  1.4936 -0.2717
 8021TIP3    H248259   0.633   5.029   3.875 -0.3530 -0.4242 -0.4213
 8022TIP3   OH248260   2.131   5.496   6.673  0.3028  0.5447 -0.4518
 8022TIP3    H148261   2.123   5.456   6.587  1.4723  1.7049 -1.1367
 8022TIP3    H248262   2.217   5.538   6.672  1.2100 -1.0523  1.9794
 8023TIP3   OH248263   7.449   5.905   5.656  0.5714 -0.0354 -0.8285
 8023TIP3    H148264   7.511   5.849   5.608 -1.1415 -0.1594 -3.0857
 8023TIP3    H248265   7.417   5.966   5.590 -0.9244  0.6892  0.5194
 8024TIP3   OH248266   4.344   0.804   4.530  0.3885 -0.2251  0.1391
 8024TIP3    H148267   4.393   0.885   4.540 -0.7582  0.4728  0.2727
 8024TIP3    H248268   4.355   0.781   4.438  0.5545  0.1934  0.0504
 8025TIP3   OH248269   6.074   2.698   4.640  0.0589 -0.0016  0.0454
 8025TIP3    H148270   6.110   2.775   4.684 -0.7950  1.1042 -1.1099
 8025TIP3    H248271   6.143   2.671   4.580  0.6448 -0.6103  0.9635
 8026TIP3   OH248272   4.442   7.067   5.201  0.0334 -0.5459 -0.1690
 8026TIP3    H148273   4.534   7.092   5.207 -0.2558  0.5888 -0.1013
 8026TIP3    H248274   4.435   7.017   5.120  0.7703 -0.9295  0.0013
 8027TIP3   OH248275   5.782   0.209   4.551  0.3074 -0.5348  0.0309
 8027TIP3    H148276   5.731   0.242   4.625 -0.7547  1.1188 -1.3503
 8027TIP3    H248277   5.763   0.115   4.548 -1.7918 -0.1681  0.2610
 8028TIP3   OH248278   2.282   3.874   5.757  0.2212  0.1801 -0.0822
 8028TIP3    H148279   2.246   3.963   5.753  1.1962  0.5888 -0.0618
 8028TIP3    H248280   2.287   3.846   5.666 -0.7897 -0.1505 -0.0418
 8029TIP3   OH248281   6.037   2.818   6.698 -0.5729  0.5155 -1.1853
 8029TIP3    H148282   5.997   2.737   6.731  0.4705  0.0502 -1.0279
 8029TIP3    H248283   5.971   2.886   6.716 -1.3356 -0.2427 -1.0398
 8030TIP3   OH248284   3.786   7.575   5.083 -0.1753  0.3396  0.9325
 8030TIP3    H148285   3.835   7.635   5.026 -0.2560 -0.2766  0.1991
 8030TIP3    H248286   3.845   7.500   5.095 -0.5243  0.0625  0.9127
 8031TIP3   OH248287   2.189   2.218   5.754 -0.1488 -0.2012 -0.5859
 8031TIP3    H148288   2.152   2.191   5.838  1.2478  0.4739  0.2919
 8031TIP3    H248289   2.113   2.235   5.698 -1.1149 -0.3380  0.6442
 8032TIP3   OH248290   2.597   4.998   6.160  0.4678  0.4411 -0.2502
 8032TIP3    H148291   2.504   5.022   6.159 -0.2908 -1.8287  2.3330
 8032TIP3    H248292   2.617   4.976   6.069 -1.9807 -0.4302 -0.6666
 8033TIP3   OH248293   1.254   1.736   4.753 -0.9817 -0.2564  0.1639
 8033TIP3    H148294   1.171   1.742   4.707 -0.5220  0.4833 -0.6043
 8033TIP3    H248295   1.318   1.714   4.685 -0.7981 -2.7304  1.0329
 8034TIP3   OH248296   6.623   5.365   4.584 -0.1537  0.1945  0.5902
 8034TIP3    H148297   6.620   5.451   4.627  0.6940  0.3273  0.3923
 8034TIP3    H248298   6.561   5.373   4.511  0.9839  1.1380 -0.3137
 8035TIP3   OH248299   3.143   6.653   4.920 -0.4475  0.4710  0.2183
 8035TIP3    H148300   3.113   6.634   4.831 -0.8749 -1.4217  0.7230
 8035TIP3    H248301   3.238   6.664   4.912 -0.6523  1.8386 -0.6710
 8036TIP3   OH248302   4.362   3.266   4.001  0.3497  0.1481 -0.8834
 8036TIP3    H148303   4.334   3.262   3.910 -1.6837  1.9201 -0.4042
 8036TIP3    H248304   4.293   3.220   4.049  1.3854 -0.7454 -0.2035
 8037TIP3   OH248305   6.076   4.437   5.115 -0.0963  0.2516  0.3411
 8037TIP3    H148306   5.990   4.399   5.097  0.2762 -1.0706  1.1786
 8037TIP3    H248307   6.063   4.490   5.194 -0.5257  1.5599 -0.5873
 8038TIP3   OH248308   6.616   6.987   5.274 -0.4563  0.0070  0.1514
 8038TIP3    H148309   6.634   6.906   5.225 -3.9267 -1.7147  1.3694
 8038TIP3    H248310   6.561   7.038   5.215 -0.3414  0.3450  0.3344
 8039TIP3   OH248311   7.562   6.794   5.055 -0.8015  0.1363 -0.2558
 8039TIP3    H148312   7.569   6.826   4.965 -0.5906 -0.3759 -0.4235
 8039TIP3    H248313   7.550   6.700   5.046  1.5576 -0.2929  0.2979
 8040TIP3   OH248314   1.982   7.156   5.345  0.5658 -0.4531 -0.3406
 8040TIP3    H148315   1.932   7.083   5.310  0.2555  0.3118 -1.5240
 8040TIP3    H248316   2.024   7.196   5.269 -2.0227  2.7191 -0.3022
 8041TIP3   OH248317   6.605   7.183   5.469  0.3199  0.6833 -0.0091
 8041TIP3    H148318   6.642   7.265   5.435 -0.7821  1.1134 -0.2236
 8041TIP3    H248319   6.643   7.115   5.414  0.3055  1.1664 -0.6348
 8042TIP3   OH248320   5.859   2.775   4.331  0.7471 -0.0565  0.0472
 8042TIP3    H148321   5.767   2.751   4.337  0.8338 -0.4820 -0.2226
 8042TIP3    H248322   5.906   2.702   4.372  1.0354 -0.5365 -1.0863
 8043TIP3   OH248323   3.788   3.709   3.533 -0.3075  0.2506  0.0707
 8043TIP3    H148324   3.800   3.787   3.480  0.2488  0.0354 -0.1318
 8043TIP3    H248325   3.727   3.735   3.602  0.6159  1.1340  0.5723
 8044TIP3   OH248326   4.617   6.611   6.528  0.7413  0.2337 -0.0947
 8044TIP3    H148327   4.671   6.565   6.592  0.7523 -1.1608 -1.0636
 8044TIP3    H248328   4.617   6.554   6.451  0.9713  1.9864 -1.4700
 8045TIP3   OH248329   2.317   6.398   5.661 -0.2381 -0.3543  0.8693
 8045TIP3    H148330   2.230   6.437   5.648 -0.2130 -0.5030  0.1864
 8045TIP3    H248331   2.357   6.451   5.729 -0.3077  0.6520  0.1538
 8046TIP3   OH248332   4.756   4.208   4.964 -0.0547  0.4013 -0.2657
 8046TIP3    H148333   4.827   4.233   5.023  0.3081  0.2183 -0.6177
 8046TIP3    H248334   4.698   4.284   4.962 -0.2035  0.3094  0.5233
 8047TIP3   OH248335   2.939   4.639   6.143 -0.2588  0.3660  0.5074
 8047TIP3    H148336   3.011   4.665   6.086 -0.1985  1.6089  1.1234
 8047TIP3    H248337   2.956   4.547   6.163  0.0351  0.0625 -0.9882
 8048TIP3   OH248338   1.192   4.194   4.194 -0.8606  0.1362  0.6810
 8048TIP3    H148339   1.219   4.266   4.252 -0.4808  0.4004  0.1889
 8048TIP3    H248340   1.173   4.121   4.253  0.1594  0.1978  1.1035
 8049TIP3   OH248341   1.999   6.996   5.597  0.3759  0.1279 -0.1747
 8049TIP3    H148342   2.066   7.049   5.640 -0.0157  1.1148 -0.7335
 8049TIP3    H248343   2.009   7.015   5.503  0.0864 -0.6233 -0.3654
 8050TIP3   OH248344   5.701   1.777   4.727  0.3555 -0.4633 -0.5621
 8050TIP3    H148345   5.774   1.783   4.666  1.3220 -0.0252  0.5952
 8050TIP3    H248346   5.635   1.727   4.680  1.0761 -0.1759 -1.9433
 8051TIP3   OH248347   0.653   2.135   4.668 -0.4956  0.0581  0.3983
 8051TIP3    H148348   0.706   2.158   4.745 -1.8463 -1.7074  1.9512
 8051TIP3    H248349   0.563   2.156   4.695 -1.0538 -1.1311 -0.4689
 8052TIP3   OH248350   6.688   6.073   5.755  0.1982  0.4074 -0.1214
 8052TIP3    H148351   6.598   6.049   5.779  0.2737 -2.0014 -1.7803
 8052TIP3    H248352   6.740   6.052   5.832 -0.5071  0.7569  0.4670
 8053TIP3   OH248353   1.122   0.951   5.484 -0.5716 -0.8428 -1.4855
 8053TIP3    H148354   1.117   1.033   5.434  0.4232  0.3560  0.2701
 8053TIP3    H248355   1.035   0.941   5.521  0.0851  1.2883  0.9498
 8054TIP3   OH248356   6.249   6.845   5.105 -0.2878  0.7328  0.3607
 8054TIP3    H148357   6.284   6.934   5.094 -0.6004  0.5722 -3.1514
 8054TIP3    H248358   6.320   6.787   5.078 -0.5653 -0.0356  1.2301
 8055TIP3   OH248359   7.667   1.269   4.326 -0.3524 -0.1466  0.3054
 8055TIP3    H148360   7.643   1.312   4.244  4.0165  1.5980 -0.3423
 8055TIP3    H248361   7.657   1.336   4.393 -1.3116 -0.7448  0.7906
 8056TIP3   OH248362   3.816   2.015   4.028  0.5496 -0.1617  0.5515
 8056TIP3    H148363   3.869   2.029   3.950 -0.9636 -0.3234 -0.5531
 8056TIP3    H248364   3.787   2.102   4.054 -0.5968 -0.2584 -0.3084
 8057TIP3   OH248365   0.754   1.653   6.028 -0.2433 -0.4646  0.2628
 8057TIP3    H148366   0.711   1.568   6.032  0.6791 -0.9553 -0.0207
 8057TIP3    H248367   0.760   1.681   6.120 -0.2605 -0.8581  0.3840
 8058TIP3   OH248368   6.142   6.037   5.271  0.1080 -0.5420 -0.1261
 8058TIP3    H148369   6.206   6.072   5.209  0.5998 -2.0351 -0.4939
 8058TIP3    H248370   6.167   6.077   5.355  0.2766  0.4353 -0.6220
 8059TIP3   OH248371   4.520   1.020   4.260  0.0492 -0.0219 -0.4066
 8059TIP3    H148372   4.509   0.942   4.206 -1.5322 -1.1643  1.4384
 8059TIP3    H248373   4.614   1.022   4.280  0.1996 -1.1511 -0.9258
 8060TIP3   OH248374   2.714   7.390   5.662  0.2229  0.6022 -0.3808
 8060TIP3    H148375   2.649   7.321   5.654  1.1054 -0.3233  0.1290
 8060TIP3    H248376   2.677   7.451   5.726  0.1548 -0.2839  0.4447
 8061TIP3   OH248377   1.558   0.784   5.697  0.2612 -0.4000  0.7606
 8061TIP3    H148378   1.490   0.831   5.746 -0.7533  0.0951 -1.0103
 8061TIP3    H248379   1.510   0.717   5.648  1.0991 -0.3570 -0.1585
 8062TIP3   OH248380   4.123   7.022   4.831  0.0922  0.0099  0.5376
 8062TIP3    H148381   4.089   6.940   4.866 -1.9931 -0.2048 -1.7212
 8062TIP3    H248382   4.045   7.073   4.808  1.3307  1.4509 -0.6954
 8063TIP3   OH248383   7.660   6.729   3.857 -0.1167  0.3897 -0.3962
 8063TIP3    H148384   7.641   6.718   3.950  0.5942 -0.1066 -0.3006
 8063TIP3    H248385   7.607   6.661   3.814  0.1328  0.1245 -0.2854
 8064TIP3   OH248386   6.762   4.999   3.957  0.8509  0.1847  0.1079
 8064TIP3    H148387   6.826   4.931   3.977  0.9836  0.4965  0.7731
 8064TIP3    H248388   6.683   4.951   3.932  1.0337 -0.2095  0.2772
 8065TIP3   OH248389   4.449   2.363   6.144  0.3769 -1.1756 -0.2722
 8065TIP3    H148390   4.543   2.382   6.137  0.0864  0.2377 -0.7549
 8065TIP3    H248391   4.423   2.407   6.225 -0.3018  0.5451 -1.3629
 8066TIP3   OH248392   3.170   1.880   6.228  0.1041 -0.2103  0.5705
 8066TIP3    H148393   3.151   1.791   6.200  2.2920  0.2634 -2.9561
 8066TIP3    H248394   3.245   1.871   6.288 -0.5098 -0.7849  1.2694
 8067TIP3   OH248395   0.591   7.020   5.161  0.3003  0.3029 -0.2971
 8067TIP3    H148396   0.648   7.039   5.086 -0.0561  0.2971 -0.5730
 8067TIP3    H248397   0.624   6.937   5.196  0.8158  0.5811 -0.1062
 8068TIP3   OH248398   6.652   6.959   4.429 -0.3815 -0.0711  0.0516
 8068TIP3    H148399   6.637   6.899   4.503  1.2878 -0.7646 -0.1313
 8068TIP3    H248400   6.730   7.009   4.455 -1.1771  1.3721 -0.2311
 8069TIP3   OH248401   0.143   0.709   4.395 -0.0025  0.3015 -0.0297
 8069TIP3    H148402   0.053   0.737   4.379 -0.3734 -0.3979  0.7821
 8069TIP3    H248403   0.184   0.784   4.439  0.1951  1.1059 -1.4952
 8070TIP3   OH248404   1.793   1.017   3.716 -0.0934  0.2557  0.1133
 8070TIP3    H148405   1.839   1.100   3.731 -0.6958  0.5884  0.1337
 8070TIP3    H248406   1.701   1.042   3.709 -0.4728 -0.5844  1.7200
 8071TIP3   OH248407   5.204   1.253   4.914 -0.4446  0.6269 -0.1819
 8071TIP3    H148408   5.286   1.212   4.885 -1.4102 -1.9258  0.4729
 8071TIP3    H248409   5.186   1.319   4.847 -0.2994 -2.0182 -3.0564
 8072TIP3   OH248410   6.126   5.864   5.704 -0.0624 -0.0423  0.5928
 8072TIP3    H148411   6.043   5.833   5.739 -0.4640 -1.1066 -1.1885
 8072TIP3    H248412   6.186   5.861   5.778 -1.3788 -0.1013  1.7003
 8073TIP3   OH248413   0.309   2.820   6.634  0.2255  0.5826  0.2785
 8073TIP3    H148414   0.254   2.756   6.590  1.2724  0.4421 -0.8529
 8073TIP3    H248415   0.287   2.904   6.593 -0.1696  0.7515  0.8226
 8074TIP3   OH248416   1.254   3.123   5.723 -0.0583 -0.0338 -0.3968
 8074TIP3    H148417   1.175   3.088   5.763 -0.6179  1.9706  0.3584
 8074TIP3    H248418   1.325   3.070   5.760 -1.0130 -2.0040 -1.2538
 8075TIP3   OH248419   3.693   0.291   5.734 -0.4079  0.4768  0.1726
 8075TIP3    H148420   3.669   0.263   5.822 -0.5736  0.5702  0.1573
 8075TIP3    H248421   3.659   0.222   5.677  0.0940  0.1863  0.2132
 8076TIP3   OH248422   7.541   5.467   5.378  0.5776  0.6069 -0.1221
 8076TIP3    H148423   7.555   5.412   5.454  0.3653  1.5664  0.6317
 8076TIP3    H248424   7.627   5.477   5.338  0.4214 -1.3416 -1.0605
 8077TIP3   OH248425   5.892   5.892   4.014  0.4775 -0.0675 -0.4987
 8077TIP3    H148426   5.854   5.852   4.092 -0.3164  0.5372 -0.5584
 8077TIP3    H248427   5.869   5.832   3.943 -1.3479  0.8054 -0.7041
 8078TIP3   OH248428   1.603   3.500   4.779 -0.0707 -0.5748  0.0700
 8078TIP3    H148429   1.576   3.530   4.692 -1.1759 -0.1890  0.5219
 8078TIP3    H248430   1.612   3.581   4.830  1.0845 -0.7623  0.1833
 8079TIP3   OH248431   3.506   4.615   4.442 -0.2819 -0.0166  0.6736
 8079TIP3    H148432   3.534   4.548   4.380 -1.6935 -0.0665  0.0452
 8079TIP3    H248433   3.586   4.641   4.488  0.6078 -0.7492 -0.4192
 8080TIP3   OH248434   0.819   7.106   3.987  0.0367 -0.2321 -0.0813
 8080TIP3    H148435   0.827   7.016   3.956 -1.3381 -0.5444  0.3765
 8080TIP3    H248436   0.899   7.149   3.958  0.5185 -1.4867 -0.6887
 8081TIP3   OH248437   1.308   7.026   4.523  0.3305 -0.4024  0.2739
 8081TIP3    H148438   1.362   6.980   4.587 -0.7620 -1.3328  0.5736
 8081TIP3    H248439   1.339   6.995   4.438  1.4392  0.4418  0.3548
 8082TIP3   OH248440   2.309   6.744   3.868 -0.5113 -0.4983  0.3961
 8082TIP3    H148441   2.255   6.680   3.822 -0.3041 -0.7590  0.5091
 8082TIP3    H248442   2.247   6.808   3.902 -0.6096  0.0705 -0.8121
 8083TIP3   OH248443   0.345   3.610   4.229  0.4266 -0.0289 -0.1559
 8083TIP3    H148444   0.251   3.591   4.230  0.1550  1.2041 -0.3691
 8083TIP3    H248445   0.351   3.699   4.195  1.7086 -0.2235 -0.4963
 8084TIP3   OH248446   0.817   0.375   6.273 -0.3957 -0.4024  0.4669
 8084TIP3    H148447   0.738   0.412   6.234 -0.7890 -0.0972  1.4996
 8084TIP3    H248448   0.803   0.384   6.367  0.7568 -0.5965  0.6716
 8085TIP3   OH248449   3.770   6.054   4.993 -0.1850 -0.4859 -0.2092
 8085TIP3    H148450   3.751   5.965   4.964 -1.9809 -0.2701  0.2224
 8085TIP3    H248451   3.782   6.104   4.912 -1.9035 -0.5706 -0.5531
 8086TIP3   OH248452   2.805   6.232   5.166 -0.2010  0.3245  0.3719
 8086TIP3    H148453   2.836   6.312   5.124  0.2761  0.1169  0.3208
 8086TIP3    H248454   2.710   6.235   5.156 -0.3569  1.7533  1.9077
 8087TIP3   OH248455   1.515   7.143   5.750  0.3260 -0.2847 -0.2400
 8087TIP3    H148456   1.575   7.116   5.681 -2.3960 -1.7737 -2.2455
 8087TIP3    H248457   1.446   7.191   5.704 -0.6083  0.4039  1.7618
 8088TIP3   OH248458   5.463   7.277   6.409  0.4510  0.0106 -0.3535
 8088TIP3    H148459   5.448   7.212   6.340 -1.7152 -0.7684  0.7402
 8088TIP3    H248460   5.389   7.337   6.400  0.0241 -0.2247  1.3613
 8089TIP3   OH248461   4.836   2.961   5.607  0.3168 -0.0004  0.5381
 8089TIP3    H148462   4.835   2.867   5.628 -1.5668  0.5200  3.4000
 8089TIP3    H248463   4.863   3.003   5.689  1.1067  1.9922 -0.6746
 8090TIP3   OH248464   3.479   5.672   5.563  0.1555  0.2017  0.1510
 8090TIP3    H148465   3.422   5.625   5.502  1.1873  0.4213 -1.0126
 8090TIP3    H248466   3.469   5.764   5.540 -0.8105  0.4657  1.5204
 8091TIP3   OH248467   6.741   1.713   5.797  0.2775 -0.3889 -0.1707
 8091TIP3    H148468   6.749   1.704   5.892  2.1014 -0.4633 -0.2985
 8091TIP3    H248469   6.732   1.623   5.765 -0.9090 -0.3303 -0.0547
 8092TIP3   OH248470   6.778   1.740   5.343  0.1297 -0.0453 -0.2312
 8092TIP3    H148471   6.797   1.719   5.251  0.1365  0.5748 -0.3755
 8092TIP3    H248472   6.752   1.832   5.342  2.3334  0.6575  0.6817
 8093TIP3   OH248473   2.850   6.696   4.847  0.5069 -0.4729  0.3576
 8093TIP3    H148474   2.798   6.621   4.817 -1.4631  0.3073  1.5561
 8093TIP3    H248475   2.785   6.765   4.863  1.6201  0.0195  3.6512
 8094TIP3   OH248476   0.084   2.571   5.847 -0.2514  0.1452  0.1153
 8094TIP3    H148477   0.119   2.581   5.758 -0.7726  2.0213  0.0826
 8094TIP3    H248478  -0.006   2.603   5.841 -0.0770  0.9485  1.4631
 8095TIP3   OH248479   2.173   4.762   5.637  0.4543  0.7680 -0.0478
 8095TIP3    H148480   2.169   4.824   5.709  1.1919 -0.3704  1.0257
 8095TIP3    H248481   2.264   4.766   5.607  0.5353  0.1687  0.0944
 8096TIP3   OH248482   6.279   0.203   4.829  0.0979  0.5125 -0.0886
 8096TIP3    H148483   6.186   0.219   4.811  0.0639 -0.3022 -0.6774
 8096TIP3    H248484   6.292   0.110   4.812  1.2559  0.8254 -1.0450
 8097TIP3   OH248485   3.588   4.967   5.368  0.1048  0.2363  0.2037
 8097TIP3    H148486   3.677   4.961   5.402 -0.2862  0.8582  1.3942
 8097TIP3    H248487   3.578   5.058   5.342 -0.3007  0.2627  0.4395
 8098TIP3   OH248488   2.367   0.804   3.805  0.2281  0.3058 -0.4839
 8098TIP3    H148489   2.287   0.753   3.792 -0.5391  1.5607 -0.9112
 8098TIP3    H248490   2.354   0.882   3.751  1.3392  0.9692  0.1729
 8099TIP3   OH248491   0.266   2.720   3.998 -0.0250  0.8560  0.1966
 8099TIP3    H148492   0.290   2.738   3.907  1.4352 -0.5737  0.2506
 8099TIP3    H248493   0.350   2.715   4.044 -0.5248 -1.5425  0.9784
 8100TIP3   OH248494   1.795   2.065   3.748  0.3342 -0.6033 -0.0880
 8100TIP3    H148495   1.705   2.059   3.716 -0.0915  0.2697  0.8950
 8100TIP3    H248496   1.789   2.040   3.841  0.5174  2.5390  0.8731
 8101TIP3   OH248497   0.662   4.736   5.836  0.0045  0.3768 -0.4807
 8101TIP3    H148498   0.611   4.725   5.917  2.3159  1.2806  1.2260
 8101TIP3    H248499   0.602   4.781   5.776 -1.6328  0.1637  0.8984
 8102TIP3   OH248500   4.936   7.099   6.522  0.1208 -0.5432  0.1261
 8102TIP3    H148501   5.027   7.089   6.495  0.2794 -0.6754  0.7054
 8102TIP3    H248502   4.939   7.100   6.618 -0.7661 -3.2953  0.2541
 8103TIP3   OH248503   5.778   2.951   5.600 -0.4885  0.0492  0.3224
 8103TIP3    H148504   5.743   3.009   5.533  1.1617  0.6607 -0.0728
 8103TIP3    H248505   5.743   2.865   5.578  2.8993 -0.6240 -3.8435
 8104TIP3   OH248506   4.671   6.014   5.631 -0.0920  0.1885  0.6028
 8104TIP3    H148507   4.745   5.957   5.611 -0.6474 -0.1122 -0.7450
 8104TIP3    H248508   4.709   6.086   5.681  0.8230 -0.7580  1.3223
 8105TIP3   OH248509   2.404   1.982   3.822  0.7407 -0.1190  0.0542
 8105TIP3    H148510   2.444   1.980   3.909  0.3489 -2.2620  0.2226
 8105TIP3    H248511   2.320   1.936   3.833  0.0723  0.7475 -1.1804
 8106TIP3   OH248512   3.436   1.790   4.957  0.0256  0.0735 -0.1200
 8106TIP3    H148513   3.363   1.741   4.917  0.1333 -0.0562 -0.1580
 8106TIP3    H248514   3.420   1.783   5.051  0.6423 -0.9728 -0.0774
 8107TIP3   OH248515   3.051   2.705   5.583  0.3960 -0.1049  0.3242
 8107TIP3    H148516   2.993   2.665   5.519  0.3487 -0.0516  0.3337
 8107TIP3    H248517   3.005   2.698   5.666 -1.0811  2.8000 -0.1185
 8108TIP3   OH248518   7.285   3.666   3.990  0.4110 -0.8132 -0.2488
 8108TIP3    H148519   7.215   3.640   3.930  0.7086 -2.2093 -0.0264
 8108TIP3    H248520   7.246   3.733   4.046 -1.3079 -2.7059  0.9654
 8109TIP3   OH248521   3.211   6.996   5.011 -0.5164 -0.0096 -0.0696
 8109TIP3    H148522   3.151   6.931   5.047  1.1035 -2.3693 -1.3298
 8109TIP3    H248523   3.185   7.003   4.919  0.8748 -0.8345 -0.5550
 8110TIP3   OH248524   5.865   5.866   5.887 -0.2180 -0.1501  0.0375
 8110TIP3    H148525   5.794   5.928   5.872  0.0766 -0.1495 -1.4872
 8110TIP3    H248526   5.907   5.897   5.968 -0.7258  1.0032 -0.1243
 8111TIP3   OH248527   4.206   1.895   6.873 -0.3131  0.0818 -0.0590
 8111TIP3    H148528   4.209   1.814   6.823  0.9001 -0.5070  0.9349
 8111TIP3    H248529   4.217   1.964   6.807 -0.6544 -0.5702 -0.8171
 8112TIP3   OH248530   7.510   2.207   6.651  0.3080  0.0074  0.3531
 8112TIP3    H148531   7.567   2.134   6.674  0.0447 -0.7084 -1.1670
 8112TIP3    H248532   7.431   2.167   6.615 -0.8959  1.0053  1.7482
 8113TIP3   OH248533   2.047   2.488   3.655 -0.3635 -0.1315 -0.2532
 8113TIP3    H148534   2.022   2.418   3.595  1.8535 -0.9177 -0.3769
 8113TIP3    H248535   2.019   2.458   3.741 -1.2647 -0.2102 -0.5717
 8114TIP3   OH248536   1.337   6.222   3.605 -0.1916  0.0842 -0.3769
 8114TIP3    H148537   1.262   6.218   3.545 -0.6159 -1.9341  0.2136
 8114TIP3    H248538   1.401   6.161   3.568  0.4094  0.3946  0.1272
 8115TIP3   OH248539   2.756   0.871   3.977 -0.3376 -0.1769  0.4431
 8115TIP3    H148540   2.778   0.869   3.884 -1.2268 -0.1129  0.2227
 8115TIP3    H248541   2.708   0.953   3.988  1.0709  0.5735  1.2807
 8116TIP3   OH248542   3.864   5.766   4.123  0.5814 -0.4668  0.1029
 8116TIP3    H148543   3.922   5.813   4.183 -2.4584 -0.2725  3.3021
 8116TIP3    H248544   3.821   5.835   4.072  1.6309 -0.4604 -0.7988
 8117TIP3   OH248545   6.372   4.148   5.421  0.1077 -0.6003 -0.0849
 8117TIP3    H148546   6.301   4.170   5.480 -0.4481  0.3833 -1.0753
 8117TIP3    H248547   6.329   4.105   5.347  0.6223 -0.5820 -0.4013
 8118TIP3   OH248548   0.743   6.869   6.853  0.0320  0.2072 -0.1729
 8118TIP3    H148549   0.789   6.923   6.789 -0.7529  1.6715  0.4687
 8118TIP3    H248550   0.655   6.906   6.859  0.4028  0.8970  2.6013
 8119TIP3   OH248551   2.174   1.152   3.959 -0.2452 -0.2148 -0.0999
 8119TIP3    H148552   2.140   1.233   3.919 -0.8369 -0.3141  0.1874
 8119TIP3    H248553   2.246   1.126   3.902 -0.4358  0.1894 -0.5377
 8120TIP3   OH248554   0.987   1.847   5.170  0.2398 -0.2775 -0.1372
 8120TIP3    H148555   1.028   1.882   5.091 -2.7156 -2.0456 -2.6650
 8120TIP3    H248556   0.928   1.917   5.199 -0.6611 -0.6004 -1.1475
 8121TIP3   OH248557   6.952   1.653   4.578  0.0814 -0.1701  0.3636
 8121TIP3    H148558   6.919   1.684   4.494 -0.8709  0.1313  0.8430
 8121TIP3    H248559   7.043   1.684   4.581 -0.0286  0.2380 -0.3302
 8122TIP3   OH248560   1.019   4.865  10.761 -0.2342 -0.4556  0.3564
 8122TIP3    H148561   1.030   4.782  10.807  3.1607 -0.1745  0.3186
 8122TIP3    H248562   0.999   4.928  10.831  1.0526 -0.6883  0.9584
 8123TIP3   OH248563   5.572   3.999   4.701  0.7615  0.7377  0.1552
 8123TIP3    H148564   5.490   4.037   4.734  0.1831 -1.8295  2.0100
 8123TIP3    H248565   5.589   4.047   4.619 -1.5418  2.6588  0.6685
 8124TIP3   OH248566   1.587   4.795   3.706 -0.1679 -0.0625  0.3581
 8124TIP3    H148567   1.616   4.764   3.621 -2.0200 -1.6293  0.2414
 8124TIP3    H248568   1.660   4.774   3.765  0.1314 -1.2359 -0.4021
 8125TIP3   OH248569   6.026   5.662   4.365 -0.3081 -1.1314 -0.2236
 8125TIP3    H148570   5.937   5.689   4.340 -0.5071 -0.9059  0.6964
 8125TIP3    H248571   6.013   5.605   4.440  0.2904 -1.6913 -0.5375
 8126TIP3   OH248572   7.326   1.243   6.302 -0.3096  0.7893  0.0332
 8126TIP3    H148573   7.247   1.204   6.338 -0.3829  0.3633 -0.5603
 8126TIP3    H248574   7.368   1.287   6.376  0.8169 -2.1068  1.2552
 8127TIP3   OH248575   3.695   4.819   6.624  0.1301 -0.2560  0.3359
 8127TIP3    H148576   3.611   4.791   6.660  0.5307  0.2206  1.7158
 8127TIP3    H248577   3.727   4.886   6.685  0.9809  0.4042 -0.7874
 8128TIP3   OH248578   0.989   5.637   6.563  0.3447 -0.5641  0.1812
 8128TIP3    H148579   1.047   5.576   6.518 -1.7566 -0.5978 -2.7191
 8128TIP3    H248580   1.029   5.723   6.550  1.6257 -0.9229  1.4922
 8129TIP3   OH248581   5.385   7.288   4.146  0.3007 -0.1966  0.0572
 8129TIP3    H148582   5.303   7.309   4.191  0.5946 -0.5171  0.7689
 8129TIP3    H248583   5.358   7.246   4.065 -0.2515 -1.5919  0.9238
 8130TIP3   OH248584   0.283   5.174   5.676  0.2298  0.0004 -0.7458
 8130TIP3    H148585   0.344   5.249   5.680  0.6160 -0.3395 -0.1376
 8130TIP3    H248586   0.215   5.195   5.740 -0.4150  0.4675 -1.5567
 8131TIP3   OH248587   0.152   4.675   6.115 -0.1818 -0.5158  0.1942
 8131TIP3    H148588   0.192   4.616   6.178 -0.7744 -0.5600  0.5382
 8131TIP3    H248589   0.097   4.733   6.168 -0.8707 -0.7014 -0.2997
 8132TIP3   OH248590   0.492   2.988   4.458  0.3528 -0.5263  0.0151
 8132TIP3    H148591   0.402   2.993   4.427  1.1142  2.9071 -2.2235
 8132TIP3    H248592   0.543   2.963   4.381  1.6332  1.6128  0.0726
 8133TIP3   OH248593   2.197   0.392   5.094 -0.6479  0.0867 -0.2969
 8133TIP3    H148594   2.246   0.465   5.059 -1.8595  0.9351 -0.2769
 8133TIP3    H248595   2.128   0.432   5.148 -1.1925 -1.0600 -0.0936
 8134TIP3   OH248596   0.659   2.719  11.916 -0.0203  0.4541  0.4038
 8134TIP3    H148597   0.689   2.784  11.853  1.5091  0.6463  1.2763
 8134TIP3    H248598   0.598   2.664  11.867 -0.3651  1.7693 -0.6829
 8135TIP3   OH248599   0.795   0.445   6.549  0.0199  0.0210  0.1228
 8135TIP3    H148600   0.752   0.490   6.622  1.0952 -0.0118  0.7994
 8135TIP3    H248601   0.883   0.425   6.582 -0.3252 -2.3211 -0.2574
 8136TIP3   OH248602   4.305   4.980   4.964 -0.1071  0.7644 -0.0468
 8136TIP3    H148603   4.257   4.937   5.034 -0.9108 -0.7070 -1.4144
 8136TIP3    H248604   4.278   5.071   4.968 -0.2560  0.6782  1.4153
 8137TIP3   OH248605   1.699   1.741   4.064  0.2834 -0.3176 -0.0675
 8137TIP3    H148606   1.696   1.765   4.156  2.3175  3.8932 -0.8382
 8137TIP3    H248607   1.792   1.747   4.040 -0.3934  1.2531 -2.8207
 8138TIP3   OH248608   0.403   3.348   4.172  0.9248 -0.6854 -0.1735
 8138TIP3    H148609   0.364   3.315   4.253  0.8383 -0.7197 -0.2293
 8138TIP3    H248610   0.426   3.439   4.191 -0.8654 -0.0777 -0.7156
 8139TIP3   OH248611   1.220   4.415   6.528  0.0679  0.7247  0.1311
 8139TIP3    H148612   1.135   4.451   6.502  0.1974  1.2755  0.4567
 8139TIP3    H248613   1.232   4.339   6.471 -1.7508 -0.8322  1.6953
 8140TIP3   OH248614   2.987   0.019   4.440 -0.0563  0.8770  0.1073
 8140TIP3    H148615   2.915   0.080   4.429 -1.6487 -1.1775 -1.7892
 8140TIP3    H248616   2.968  -0.025   4.523 -2.2385 -1.0324 -1.2822
 8141TIP3   OH248617   0.442   4.219   5.668  0.4233  0.7641  0.0863
 8141TIP3    H148618   0.423   4.142   5.615 -1.2843 -0.3942  2.2343
 8141TIP3    H248619   0.538   4.218   5.678  0.4836 -0.7169 -0.4180
 8142TIP3   OH248620   4.433   0.030   5.805  0.1667  0.1214 -0.1580
 8142TIP3    H148621   4.478   0.044   5.889  0.0524  0.5500 -0.1664
 8142TIP3    H248622   4.438   0.115   5.761  1.8657 -0.5586 -1.3954
 8143TIP3   OH248623   3.890   6.160   4.672  0.0089  0.1523  0.2761
 8143TIP3    H148624   3.936   6.243   4.678 -0.5791  0.4624  0.6899
 8143TIP3    H248625   3.958   6.095   4.653  0.3021  0.8946 -1.3161
 8144TIP3   OH248626   4.296   7.402   6.592  0.3524 -0.0820 -0.1032
 8144TIP3    H148627   4.224   7.437   6.539  0.6158  0.3893 -0.1620
 8144TIP3    H248628   4.283   7.308   6.592  0.8435 -0.1954 -1.7715
 8145TIP3   OH248629   1.086   0.218   4.047 -0.0118 -0.3855 -0.7615
 8145TIP3    H148630   1.119   0.141   4.094 -1.4000 -2.2428 -2.6549
 8145TIP3    H248631   1.150   0.287   4.066 -0.6547 -0.7856  4.1608
 8146TIP3   OH248632   2.046   0.515   5.491 -0.0285 -0.1346 -0.2882
 8146TIP3    H148633   2.129   0.512   5.443  0.5414 -1.5776  0.7161
 8146TIP3    H248634   2.006   0.430   5.475  0.9174 -1.3379  2.9328
 8147TIP3   OH248635   4.129   4.829   3.832 -0.6627 -0.1112  0.1736
 8147TIP3    H148636   4.080   4.902   3.796 -0.8942 -0.5779 -0.4757
 8147TIP3    H248637   4.121   4.838   3.927 -0.2156  1.0175  0.1139
 8148TIP3   OH248638   1.567   2.822   5.294  0.0327  0.1476 -0.0303
 8148TIP3    H148639   1.478   2.828   5.258 -0.0196 -2.2343 -0.4342
 8148TIP3    H248640   1.553   2.795   5.385  0.3082 -2.7770 -0.7631
 8149TIP3   OH248641   4.218   0.008   4.674  0.3683  0.0117  0.4880
 8149TIP3    H148642   4.287  -0.032   4.621  1.3701  2.2228  0.0355
 8149TIP3    H248643   4.264   0.062   4.737 -0.8957 -0.8938  2.2814
 8150TIP3   OH248644   6.848   5.243   4.057  0.1227 -0.0058  0.2868
 8150TIP3    H148645   6.766   5.283   4.085  0.1916  0.5086 -0.2237
 8150TIP3    H248646   6.822   5.161   4.016 -0.3021  0.8430 -1.2355
 8151TIP3   OH248647   3.950   3.699   4.473  0.1730 -0.1399  0.8690
 8151TIP3    H148648   4.015   3.638   4.439 -1.0463  0.0679 -2.1748
 8151TIP3    H248649   3.923   3.661   4.556  2.5403 -1.3777  1.1838
 8152TIP3   OH248650   3.712   2.485   4.693  0.5724  0.5835  0.6437
 8152TIP3    H148651   3.695   2.403   4.739  2.2529  0.5534  1.2913
 8152TIP3    H248652   3.626   2.514   4.662 -0.0757 -1.2922  0.5934
 8153TIP3   OH248653   0.433   6.537   5.204 -0.0704  0.0219 -0.5149
 8153TIP3    H148654   0.447   6.484   5.125  2.0076  1.5183 -1.2268
 8153TIP3    H248655   0.453   6.477   5.276  2.6886 -0.1710 -1.3102
 8154TIP3   OH248656   5.851   6.153   5.467  0.5787 -0.0461 -0.2341
 8154TIP3    H148657   5.824   6.089   5.402 -2.5110  1.1922 -0.3734
 8154TIP3    H248658   5.871   6.232   5.417  0.0286  0.3635  0.1743
 8155TIP3   OH248659   6.888   3.238   5.571  0.1634 -0.0156 -0.1118
 8155TIP3    H148660   6.945   3.176   5.525  1.9442 -0.0043  1.9496
 8155TIP3    H248661   6.938   3.319   5.576 -1.5518  1.2175 -1.4392
 8156TIP3   OH248662   6.658   7.239   3.961 -0.7258  0.4610  0.0112
 8156TIP3    H148663   6.731   7.200   3.913 -0.9832  0.4250 -0.3502
 8156TIP3    H248664   6.694   7.318   4.000 -1.1007  1.7992 -2.1966
 8157TIP3   OH248665   3.364   0.500   4.804 -0.3591 -0.0213 -0.4295
 8157TIP3    H148666   3.360   0.522   4.897 -0.2226  0.7314 -0.5981
 8157TIP3    H248667   3.393   0.409   4.802  0.1071  0.1083  0.2454
 8158TIP3   OH248668   4.041   5.390   3.957 -0.0899  0.4880  0.4518
 8158TIP3    H148669   4.090   5.338   4.021  0.5146  1.0011  0.4072
 8158TIP3    H248670   4.106   5.445   3.915 -0.7751  1.5744  0.7667
 8159TIP3   OH248671   6.559   6.338   5.459  0.0839  0.0104 -0.2065
 8159TIP3    H148672   6.654   6.328   5.449  0.2883  1.4173  0.1003
 8159TIP3    H248673   6.528   6.362   5.371  0.0460 -0.2202 -0.2562
 8160TIP3   OH248674   5.837   6.562   5.972 -0.5989 -0.0549 -0.0988
 8160TIP3    H148675   5.876   6.521   6.049 -2.3231 -2.2422 -0.3037
 8160TIP3    H248676   5.911   6.581   5.914  0.5712  0.3123  1.4556
 8161TIP3   OH248677   4.090   2.532   5.489 -0.1643 -0.3775  0.2997
 8161TIP3    H148678   4.042   2.471   5.434  0.0334  0.6348 -1.0630
 8161TIP3    H248679   4.029   2.604   5.504 -0.6272 -1.1477  2.4431
 8162TIP3   OH248680   2.003   7.201   4.749  0.9445 -0.9073 -0.1176
 8162TIP3    H148681   2.023   7.217   4.657  2.0420  1.6382  0.4636
 8162TIP3    H248682   2.079   7.154   4.783  2.0501  0.9864  0.1417
 8163TIP3   OH248683   5.963   4.669   4.591 -0.1503 -0.6613  0.2571
 8163TIP3    H148684   5.984   4.691   4.682 -0.6294  0.5552  0.0915
 8163TIP3    H248685   6.020   4.726   4.539 -3.1357  2.2124 -0.1972
 8164TIP3   OH248686   1.710   0.849   5.165 -0.3006 -0.1157  0.1709
 8164TIP3    H148687   1.664   0.828   5.246 -0.5104  0.9385  0.3482
 8164TIP3    H248688   1.651   0.819   5.096 -0.4117 -0.4447  0.4079
 8165TIP3   OH248689   5.205   3.075   4.993  0.0057 -0.3228  0.1037
 8165TIP3    H148690   5.173   3.063   4.904 -1.3918  0.4771  0.4851
 8165TIP3    H248691   5.300   3.065   4.985  0.0381  0.9761 -1.6795
 8166TIP3   OH248692   0.337   2.121   4.592  0.2800  0.7918 -1.0198
 8166TIP3    H148693   0.297   2.148   4.510 -1.6117  1.7170  0.1221
 8166TIP3    H248694   0.286   2.167   4.659 -1.1854 -3.2054  0.9290
 8167TIP3   OH248695   2.910   2.069   4.767 -0.8295 -0.0312  0.1303
 8167TIP3    H148696   2.929   2.045   4.676 -0.4141 -1.4802  0.5774
 8167TIP3    H248697   2.815   2.087   4.767 -0.8344 -0.0114 -0.5813
 8168TIP3   OH248698   3.676   2.316   4.891 -0.1680  0.4654 -0.0400
 8168TIP3    H148699   3.619   2.354   4.957 -1.3172  0.3068 -0.9182
 8168TIP3    H248700   3.674   2.222   4.909  1.1164  0.5971  0.9162
 8169TIP3   OH248701   7.093   6.033   4.124  0.2560 -0.4904 -0.0317
 8169TIP3    H148702   7.090   5.950   4.173 -0.0865 -0.5162 -0.0932
 8169TIP3    H248703   7.135   6.094   4.183  0.1189 -0.6007  0.1821
 8170TIP3   OH248704   5.083   2.921   3.827  0.3460 -0.3639 -0.6097
 8170TIP3    H148705   5.033   3.003   3.828  0.3633 -0.3534 -0.5961
 8170TIP3    H248706   5.173   2.948   3.848  0.4670 -0.3109 -1.1809
 8171TIP3   OH248707   1.893   3.599   5.013 -0.0945 -0.2754 -0.2089
 8171TIP3    H148708   1.870   3.529   4.952  1.0670 -1.2202  0.3762
 8171TIP3    H248709   1.953   3.557   5.075  0.8302  1.2964  0.0201
 8172TIP3   OH248710   0.826   5.330   5.741 -0.2117  0.3342 -0.0890
 8172TIP3    H148711   0.764   5.281   5.688 -0.7236  1.3670 -0.4845
 8172TIP3    H248712   0.889   5.265   5.771 -0.6289 -0.4798 -0.9266
 8173TIP3   OH248713   0.027   3.366   7.041  0.4008  0.0731 -0.0923
 8173TIP3    H148714  -0.048   3.344   6.986 -0.9856  2.7798  0.5647
 8173TIP3    H248715   0.075   3.433   6.992 -0.3577  1.8670  1.4841
 8174TIP3   OH248716   4.281   3.241   5.783  0.4998 -0.6338 -0.2551
 8174TIP3    H148717   4.336   3.313   5.753  0.5501 -0.3731  0.4507
 8174TIP3    H248718   4.223   3.280   5.848 -1.0400 -0.7383 -1.5055
 8175TIP3   OH248719   1.461   0.113   5.357 -0.0494 -0.8017 -0.1224
 8175TIP3    H148720   1.538   0.167   5.341 -0.3390 -0.4545 -0.3607
 8175TIP3    H248721   1.478   0.032   5.309  0.3998 -0.9352  0.2615
 8176TIP3   OH248722   0.491   6.157   4.756  0.1682 -0.2414 -0.1699
 8176TIP3    H148723   0.516   6.140   4.665  0.8865  0.8085 -0.1964
 8176TIP3    H248724   0.396   6.171   4.753  0.4777  2.1754 -1.2104
 8177TIP3   OH248725   6.991   2.454   5.445 -0.0502 -0.0878  0.0363
 8177TIP3    H148726   7.067   2.504   5.476 -0.1047 -0.4346  0.7525
 8177TIP3    H248727   6.992   2.374   5.498 -0.1890 -0.6717 -0.8306
 8178TIP3   OH248728   1.919   6.302   5.873  0.0316  0.0023 -0.1402
 8178TIP3    H148729   1.907   6.395   5.852  0.4024  0.3394  1.0741
 8178TIP3    H248730   1.909   6.297   5.968 -0.9287 -1.3633 -0.2829
 8179TIP3   OH248731   0.246   6.571   5.983  0.0200 -0.6377  0.0825
 8179TIP3    H148732   0.322   6.565   6.041  0.6195 -0.0873 -0.6203
 8179TIP3    H248733   0.267   6.644   5.925 -0.9945 -0.5720 -0.2072
 8180TIP3   OH248734   0.297   4.378   5.485 -0.1860 -0.2140  0.3959
 8180TIP3    H148735   0.332   4.337   5.564  1.4394  0.5155  0.0859
 8180TIP3    H248736   0.362   4.360   5.418 -1.9366 -1.5807 -1.0561
 8181TIP3   OH248737   3.361   0.190   5.167  0.2055  0.1638  0.0885
 8181TIP3    H148738   3.438   0.136   5.188 -0.1008  0.1710  1.2965
 8181TIP3    H248739   3.291   0.127   5.152  0.0614  0.1996  0.6074
 8182TIP3   OH248740   3.145   5.999   4.753  0.2947  0.2701  0.3099
 8182TIP3    H148741   3.155   6.080   4.801  0.9630  1.6285 -1.9718
 8182TIP3    H248742   3.052   5.997   4.729  0.1513  0.0410  0.8713
 8183TIP3   OH248743   7.550   2.322   4.804  0.0493  0.3405 -0.0846
 8183TIP3    H148744   7.524   2.414   4.803 -1.2233  0.0514  1.4966
 8183TIP3    H248745   7.646   2.325   4.810 -0.0251  1.5992  1.1165
 8184TIP3   OH248746   1.506   6.900   4.648  0.4797 -0.3185  0.4875
 8184TIP3    H148747   1.503   6.834   4.718  1.2000 -0.9042 -0.0213
 8184TIP3    H248748   1.526   6.850   4.569 -0.6780  0.2858 -0.2170
 8185TIP3   OH248749   5.576   0.724   5.233 -0.3678 -0.2419 -0.3447
 8185TIP3    H148750   5.613   0.651   5.184 -1.8374 -0.1132 -1.7182
 8185TIP3    H248751   5.482   0.706   5.236 -0.3024 -0.8611  3.4943
 8186TIP3   OH248752   7.296   5.641   5.370  0.2817  0.2263 -0.0339
 8186TIP3    H148753   7.247   5.566   5.403 -1.0753  1.1540  0.1588
 8186TIP3    H248754   7.385   5.628   5.402  0.0251 -1.1782  0.1653
 8187TIP3   OH248755   6.916   4.646   4.977 -0.2731  0.1601 -0.3906
 8187TIP3    H148756   6.953   4.687   4.899 -0.2276  0.9388  0.0260
 8187TIP3    H248757   6.821   4.649   4.963 -0.2320 -1.9309 -1.5055
 8188TIP3   OH248758   2.706   0.372   5.802 -0.5498  0.2422 -0.2701
 8188TIP3    H148759   2.709   0.399   5.711 -1.7898 -1.5133 -0.8746
 8188TIP3    H248760   2.766   0.433   5.847 -1.2418  2.2620 -1.9073
 8189TIP3   OH248761   0.769   3.076   6.337 -0.8255 -0.1005  0.6322
 8189TIP3    H148762   0.788   2.993   6.294  0.7561 -0.0870  1.2288
 8189TIP3    H248763   0.675   3.072   6.358 -0.8772 -1.5076  0.2110
 8190TIP3   OH248764   1.114   4.425   5.627  0.7806 -0.4292 -0.5081
 8190TIP3    H148765   1.196   4.473   5.616  1.6923 -1.6844  0.4116
 8190TIP3    H248766   1.099   4.425   5.722 -1.1922  1.1652 -0.7413
 8191TIP3   OH248767   1.610   3.028   5.480 -0.4201 -0.0622 -0.9689
 8191TIP3    H148768   1.560   2.995   5.405  0.0945  1.0731 -1.8552
 8191TIP3    H248769   1.692   2.979   5.478 -1.0159 -1.1268 -0.1946
 8192TIP3   OH248770   2.455   0.936   4.026  0.1290 -0.1294 -0.0267
 8192TIP3    H148771   2.440   1.017   3.978 -3.0536 -0.2999  0.5150
 8192TIP3    H248772   2.436   0.866   3.962  1.2636 -0.4743 -0.0187
 8193TIP3   OH248773   6.061   7.626   4.181 -0.0703 -0.2877  0.9596
 8193TIP3    H148774   6.085   7.614   4.089 -1.5699 -0.5764  0.5938
 8193TIP3    H248775   6.049   7.538   4.214 -0.2362 -0.1594  1.2391
 8194TIP3   OH248776   4.862   5.633   6.241 -0.5228  0.1752 -0.2550
 8194TIP3    H148777   4.884   5.557   6.294 -1.2636 -0.3036 -0.6161
 8194TIP3    H248778   4.820   5.694   6.302 -0.9761 -0.1930 -0.1891
 8195TIP3   OH248779   7.024   4.971   5.126  0.4333  0.2141  0.4979
 8195TIP3    H148780   7.005   5.012   5.041 -0.3234 -0.9147  0.0974
 8195TIP3    H248781   7.085   4.901   5.105 -2.1334 -2.1485  0.3119
 8196TIP3   OH248782   3.852   2.792   3.684  0.6781 -0.0671  0.5264
 8196TIP3    H148783   3.941   2.822   3.665  0.1176  0.8460 -0.8147
 8196TIP3    H248784   3.812   2.779   3.598 -0.8747  0.7573  1.0800
 8197TIP3   OH248785   4.748   0.563   5.484 -0.3932  0.1210  0.2802
 8197TIP3    H148786   4.734   0.477   5.444  0.7766 -0.6550  1.4577
 8197TIP3    H248787   4.821   0.601   5.435 -0.6077  0.2351  0.0531
 8198TIP3   OH248788   6.018   5.175   5.396  0.4543  0.0719 -0.3009
 8198TIP3    H148789   5.928   5.192   5.369 -0.0132 -2.1351 -0.2963
 8198TIP3    H248790   6.040   5.248   5.454 -1.2297  0.7787 -0.5014
 8199TIP3   OH248791   2.310   7.629   6.398 -0.3868  0.4899 -0.9306
 8199TIP3    H148792   2.335   7.546   6.438 -0.5550 -0.3410 -2.4711
 8199TIP3    H248793   2.215   7.630   6.402 -0.4093  0.3388 -1.4362
 8200TIP3   OH248794   0.623   2.963   4.208 -0.6515 -0.5234  0.0206
 8200TIP3    H148795   0.582   2.889   4.164 -0.2496 -1.5204  1.2657
 8200TIP3    H248796   0.712   2.934   4.227  0.0610  0.9060 -0.9366
 8201TIP3   OH248797   6.125   0.578   4.397 -0.3188 -0.4998 -0.3583
 8201TIP3    H148798   6.101   0.512   4.333 -1.6916 -1.1329  0.7496
 8201TIP3    H248799   6.203   0.542   4.440  0.1576 -0.4206 -1.1420
 8202TIP3   OH248800   0.618   7.652   4.858  0.0283  0.2060  0.6750
 8202TIP3    H148801   0.642   7.577   4.911 -0.9491 -0.0977  0.7023
 8202TIP3    H248802   0.606   7.616   4.770 -1.7911  0.0432  0.9479
 8203TIP3   OH248803   0.771   6.578   3.801 -0.0601  0.0995  0.0375
 8203TIP3    H148804   0.785   6.561   3.895  0.0035  2.3974  0.5162
 8203TIP3    H248805   0.684   6.618   3.797 -0.8013 -1.5514 -1.1508
 8204TIP3   OH248806   7.044   6.024   3.767  0.0750  0.6294 -0.0741
 8204TIP3    H148807   7.027   5.931   3.784  0.6853  0.2318 -1.5603
 8204TIP3    H248808   7.111   6.048   3.831 -0.6731  0.2788  0.8696
 8205TIP3   OH248809   5.205   1.453   5.314  0.3236  0.3349  0.1073
 8205TIP3    H148810   5.158   1.537   5.321 -1.0415 -0.3155 -0.8049
 8205TIP3    H248811   5.246   1.456   5.228 -1.3639 -0.6845 -0.7940
 8206TIP3   OH248812   3.889   5.823   5.492 -0.3770 -0.0985 -0.4546
 8206TIP3    H148813   3.870   5.732   5.473 -0.6605 -0.4984  1.4707
 8206TIP3    H248814   3.804   5.862   5.511 -0.0376 -0.1481  1.3747
 8207TIP3   OH248815   1.514   4.392   5.743 -0.5560 -0.4966 -0.0408
 8207TIP3    H148816   1.595   4.346   5.725 -0.3344 -0.0890 -0.1017
 8207TIP3    H248817   1.458   4.372   5.668 -0.2528 -0.1975 -0.3518
 8208TIP3   OH248818   4.371   0.087   5.328  0.2604  0.5099 -0.0246
 8208TIP3    H148819   4.362   0.062   5.236  0.0799 -0.4718  0.2410
 8208TIP3    H248820   4.284   0.114   5.355 -0.3895 -1.8895  0.5708
 8209TIP3   OH248821   5.581   7.406   5.732 -0.1567  0.0589  0.3050
 8209TIP3    H148822   5.616   7.494   5.719  0.0847 -0.3912 -3.0660
 8209TIP3    H248823   5.657   7.353   5.756 -0.0298  0.4781  0.8498
 8210TIP3   OH248824   3.863   6.980   5.044 -0.1463  0.6286 -0.0158
 8210TIP3    H148825   3.914   6.945   5.117 -1.7089 -0.4698  0.6073
 8210TIP3    H248826   3.836   7.067   5.074 -2.0292 -0.3766  1.4330
 8211TIP3   OH248827   5.153   5.488   5.368  0.3201 -0.2410  0.2043
 8211TIP3    H148828   5.167   5.457   5.457 -2.1035 -0.1737  0.6791
 8211TIP3    H248829   5.127   5.409   5.319  0.8125 -0.1286 -0.2462
 8212TIP3   OH248830   1.035   3.554   5.225  0.0924 -0.7727  0.1681
 8212TIP3    H148831   1.114   3.505   5.249 -1.4036 -1.7295  4.0195
 8212TIP3    H248832   1.051   3.642   5.259  0.3047 -0.3564 -0.9901
 8213TIP3   OH248833   4.153   1.019   4.841 -0.2241  0.0420  0.4066
 8213TIP3    H148834   4.088   0.971   4.892 -0.5700 -0.1064 -0.1640
 8213TIP3    H248835   4.111   1.034   4.756  1.0697 -1.5269 -0.5836
 8214TIP3   OH248836   6.608   1.696   4.908 -0.7083  0.5770 -0.4273
 8214TIP3    H148837   6.527   1.671   4.863 -1.1721 -0.0102  0.6922
 8214TIP3    H248838   6.581   1.760   4.973 -0.1995  0.7145 -0.3473
 8215TIP3   OH248839   2.316   0.793   5.904  0.4435 -0.0453 -0.3821
 8215TIP3    H148840   2.300   0.764   5.814 -1.7601  0.9950 -0.3899
 8215TIP3    H248841   2.347   0.883   5.895 -2.9493  1.2919 -0.1182
 8216TIP3   OH248842   5.272   6.009   4.801  0.0104  0.1543 -0.5049
 8216TIP3    H148843   5.343   5.979   4.745 -0.0737  2.6343 -2.0945
 8216TIP3    H248844   5.315   6.065   4.866 -0.4033  1.2794 -1.1791
 8217TIP3   OH248845   3.393   3.003   4.213  0.5262  0.0290  0.0390
 8217TIP3    H148846   3.338   2.925   4.209 -0.2310  0.5984 -1.8583
 8217TIP3    H248847   3.332   3.076   4.200  1.5687  0.7322 -1.1435
 8218TIP3   OH248848   1.955   2.055   5.336  0.2358  0.9156 -0.0104
 8218TIP3    H148849   2.004   2.103   5.270 -0.5351  0.8883 -0.6154
 8218TIP3    H248850   1.904   1.990   5.287  0.4041  0.2235  0.6934
 8219TIP3   OH248851   1.644   2.104   6.050 -0.0169  0.1023 -0.1984
 8219TIP3    H148852   1.641   2.022   6.002  0.1158  0.3763 -0.6759
 8219TIP3    H248853   1.553   2.122   6.072 -0.1172  0.1621 -0.6585
 8220TIP3   OH248854   1.425   4.060   5.591 -0.3927  0.7411 -0.6272
 8220TIP3    H148855   1.337   4.083   5.560 -0.3878  1.9817  0.1920
 8220TIP3    H248856   1.484   4.117   5.542  0.0290 -0.3468 -1.4485
 8221TIP3   OH248857   0.269   1.291   4.110 -0.3185 -0.3978  0.6078
 8221TIP3    H148858   0.238   1.201   4.123 -0.4050 -0.3440  0.7733
 8221TIP3    H248859   0.333   1.284   4.040 -0.7167 -0.5061  0.2541
 8222TIP3   OH248860   0.213   3.544   6.108 -0.2098  0.5993  0.2179
 8222TIP3    H148861   0.180   3.630   6.082 -0.1968  0.2305 -1.0952
 8222TIP3    H248862   0.305   3.545   6.082 -0.2753  0.1123 -0.0510
 8223TIP3   OH248863   5.459   4.963   4.594 -1.0170 -0.5274 -0.7108
 8223TIP3    H148864   5.516   4.955   4.518 -0.8279  0.4415 -0.6809
 8223TIP3    H248865   5.399   4.889   4.586  0.4054 -1.7425 -0.5758
 8224TIP3   OH248866   1.097   0.182   5.117  0.5213 -0.3138  0.1806
 8224TIP3    H148867   1.115   0.130   5.196  0.0382  0.2956  0.6926
 8224TIP3    H248868   1.080   0.116   5.049  0.4833 -0.8373  0.6861
 8225TIP3   OH248869   5.388   6.480   5.320 -0.1418 -0.5590 -0.3434
 8225TIP3    H148870   5.373   6.519   5.234  2.0660 -0.3645 -0.6931
 8225TIP3    H248871   5.446   6.407   5.304 -0.9237 -1.4842  0.8287
 8226TIP3   OH248872   5.871   3.720   5.533 -0.4441 -0.0110 -0.8887
 8226TIP3    H148873   5.777   3.711   5.544 -0.3749 -0.8969 -0.9065
 8226TIP3    H248874   5.908   3.699   5.619 -0.3578  3.0204 -0.0821
 8227TIP3   OH248875   0.872   4.606   4.752  0.1342 -0.0208 -0.0414
 8227TIP3    H148876   0.873   4.592   4.847 -1.5888  0.9545  0.1679
 8227TIP3    H248877   0.962   4.592   4.724  0.4962 -1.1699  1.6129
 8228TIP3   OH248878   4.349   1.491   6.314 -0.0072 -0.0673  0.0282
 8228TIP3    H148879   4.355   1.531   6.401 -2.7250 -0.5489  0.5547
 8228TIP3    H248880   4.377   1.560   6.254 -3.3917  2.4466  0.9908
 8229TIP3   OH248881   0.320   0.115   5.643  0.4169  0.4569  0.3847
 8229TIP3    H148882   0.257   0.043   5.643 -0.7636  1.4741 -0.2618
 8229TIP3    H248883   0.355   0.116   5.554  0.5112  0.6267  0.4246
 8230TIP3   OH248884   5.552   5.609   3.793  0.2622 -0.5229 -0.1669
 8230TIP3    H148885   5.533   5.573   3.706 -0.7608  0.3733 -0.3241
 8230TIP3    H248886   5.507   5.549   3.853  0.5682 -0.8673 -0.2731
 8231TIP3   OH248887   0.499   4.782   3.853 -0.0738 -0.0032  0.2615
 8231TIP3    H148888   0.552   4.770   3.775 -0.9802  1.7832 -0.6898
 8231TIP3    H248889   0.562   4.787   3.925  0.7435 -2.2576 -0.2108
 8232TIP3   OH248890   5.382   7.140   6.165 -0.2604  0.1186 -0.3338
 8232TIP3    H148891   5.432   7.212   6.127  0.8974 -0.8705 -0.7731
 8232TIP3    H248892   5.322   7.114   6.095  1.0024 -0.8856 -1.0856
 8233TIP3   OH248893   1.132   2.732   4.929 -0.2893  0.1832  0.6300
 8233TIP3    H148894   1.126   2.666   4.860 -2.9294  0.6280  0.3113
 8233TIP3    H248895   1.107   2.686   5.009  0.9187  0.1160  0.9905
 8234TIP3   OH248896   3.146   1.897   5.437  0.0769 -0.0066 -0.4786
 8234TIP3    H148897   3.215   1.860   5.493  0.2550  0.9850 -0.0216
 8234TIP3    H248898   3.082   1.827   5.429  0.3784 -0.4045  0.4097
 8235TIP3   OH248899   2.396   0.557   5.004 -0.2803  0.6496  0.3863
 8235TIP3    H148900   2.448   0.487   4.964  0.7431  1.0158  1.0417
 8235TIP3    H248901   2.369   0.611   4.930 -1.3669 -0.6059 -0.1654
 8236TIP3   OH248902   0.988   6.045   4.953  0.6665  0.0033 -0.1551
 8236TIP3    H148903   0.897   6.073   4.946  0.7965  0.9865  1.4259
 8236TIP3    H248904   1.027   6.108   5.014  1.7234 -1.9424  1.2911
 8237TIP3   OH248905   5.422   5.282   5.321  0.0275 -0.0642  0.8301
 8237TIP3    H148906   5.419   5.374   5.298  0.8362 -0.4376 -0.9232
 8237TIP3    H248907   5.437   5.281   5.416  0.8736  1.6030  0.7422
 8238TIP3   OH248908   1.141   0.438   6.468 -0.1986 -0.2798  0.2910
 8238TIP3    H148909   1.220   0.480   6.501 -0.7453  0.5962  0.5299
 8238TIP3    H248910   1.159   0.421   6.376  0.4509 -0.5537  0.4642
 8239TIP3   OH248911   3.782   3.071   5.430 -0.1594 -0.4622 -0.1765
 8239TIP3    H148912   3.861   3.020   5.444 -1.5011 -2.5088  0.2892
 8239TIP3    H248913   3.812   3.150   5.384  2.1514 -1.0535  0.2205
 8240TIP3   OH248914   3.521   0.759   3.831  0.1684  0.1812 -0.0148
 8240TIP3    H148915   3.538   0.824   3.763  0.2617 -0.4590 -0.6220
 8240TIP3    H248916   3.608   0.732   3.860  0.1305  0.2611  0.1767
 8241TIP3   OH248917   6.082   5.982   3.641  0.2561  0.5018 -0.0398
 8241TIP3    H148918   6.160   6.024   3.605 -0.4123  0.7468 -1.2830
 8241TIP3    H248919   6.046   6.045   3.702 -1.2507  2.2679 -2.5476
 8242TIP3   OH248920   3.579   7.077   4.811  0.1451  0.0189 -0.3702
 8242TIP3    H148921   3.632   6.997   4.806 -1.7131 -1.2522 -0.7394
 8242TIP3    H248922   3.553   7.082   4.903 -0.5851 -0.4083 -0.5438
 8243TIP3   OH248923   2.035   5.918   6.385 -0.0530 -0.0333  0.1550
 8243TIP3    H148924   2.060   5.830   6.359  0.5958  0.7305 -2.0771
 8243TIP3    H248925   1.956   5.936   6.334  0.7810  1.2588 -0.7303
 8244TIP3   OH248926   0.754   0.089   4.576  0.4377 -0.6996  0.6872
 8244TIP3    H148927   0.724   0.001   4.596  1.0623 -0.5816  2.2208
 8244TIP3    H248928   0.850   0.082   4.570  0.4336 -0.2927 -0.1352
 8245TIP3   OH248929   7.053   1.628   5.777 -0.2399 -0.5309 -0.3905
 8245TIP3    H148930   6.973   1.592   5.738  0.5756 -0.7046 -2.0170
 8245TIP3    H248931   7.055   1.719   5.746  0.3746 -0.6450 -0.7054
 8246TIP3   OH248932   3.510   4.588   3.879 -0.0226 -0.3419 -0.6111
 8246TIP3    H148933   3.605   4.585   3.873  0.0816 -0.3031  0.7689
 8246TIP3    H248934   3.487   4.676   3.848  0.4539 -0.0723 -0.2115
 8247TIP3   OH248935   7.136   3.811   5.954 -0.3051  0.4706 -0.5388
 8247TIP3    H148936   7.212   3.761   5.923 -0.8408 -0.1020 -0.9533
 8247TIP3    H248937   7.064   3.782   5.898 -0.9192  0.7169  0.1130
 8248TIP3   OH248938   6.374   1.704   4.338  0.2133  0.7321  0.0908
 8248TIP3    H148939   6.385   1.797   4.359  0.1386  0.1662  3.2015
 8248TIP3    H248940   6.459   1.665   4.360 -0.3223 -0.1675  0.6433
 8249TIP3   OH248941   5.629   5.793   4.959  0.8836 -0.0761  0.4384
 8249TIP3    H148942   5.723   5.807   4.974  0.8057 -0.6310  1.5742
 8249TIP3    H248943   5.596   5.879   4.933  1.4779  0.4465  1.3370
 8250TIP3   OH248944   4.590   0.893   4.800  0.4060  0.3637 -0.5573
 8250TIP3    H148945   4.557   0.816   4.845  0.7899 -0.4709 -1.6360
 8250TIP3    H248946   4.612   0.955   4.870 -0.9333 -0.0620  0.2781
 8251TIP3   OH248947   2.646   4.971   5.915  0.1142 -0.1334  0.4302
 8251TIP3    H148948   2.562   4.963   5.871 -0.4252 -0.9122  1.5506
 8251TIP3    H248949   2.703   5.013   5.850 -0.3132 -2.2351 -1.4445
 8252TIP3   OH248950   7.461   0.405   5.288 -0.0243 -0.3907 -0.0057
 8252TIP3    H148951   7.493   0.353   5.362  0.0980  1.2982  1.1836
 8252TIP3    H248952   7.486   0.355   5.211  0.7853 -1.6959  1.0668
 8253TIP3   OH248953   4.361   5.953   3.804 -0.0614 -0.1529  0.3674
 8253TIP3    H148954   4.384   6.013   3.733 -1.3579  1.9883  1.6039
 8253TIP3    H248955   4.266   5.965   3.815 -0.3092 -2.2658  0.8825
 8254TIP3   OH248956   6.803   0.055   6.215  0.4619  0.3887  0.5991
 8254TIP3    H148957   6.882   0.070   6.268 -0.0990  1.2836  1.2143
 8254TIP3    H248958   6.756   0.138   6.219  0.7281  0.7583 -1.9019
 8255TIP3   OH248959   2.686   1.136   3.951 -0.1335 -0.3241 -0.1230
 8255TIP3    H148960   2.753   1.183   3.901  0.2300  0.5218  1.1067
 8255TIP3    H248961   2.695   1.170   4.040 -2.1195 -0.2998  0.1043
 8256TIP3   OH248962   1.234   6.032   5.987 -0.2482 -0.4525 -0.0461
 8256TIP3    H148963   1.275   6.113   6.015  1.0312 -1.3671  0.8259
 8256TIP3    H248964   1.161   6.019   6.048  0.2261 -0.5227  0.5028
 8257TIP3   OH248965   7.525   1.450   4.809 -0.1648  0.4977 -0.0597
 8257TIP3    H148966   7.595   1.445   4.744  0.1579 -0.6935  0.3659
 8257TIP3    H248967   7.565   1.418   4.890 -0.9899  0.5378  0.3691
 8258TIP3   OH248968   6.196   4.804   4.500  0.2283 -0.1888 -0.1358
 8258TIP3    H148969   6.196   4.877   4.437 -0.5996 -1.1314 -1.2529
 8258TIP3    H248970   6.272   4.822   4.555  2.1350 -0.2933 -2.5448
 8259TIP3   OH248971   4.684   5.567   5.185  0.5455 -0.1571 -0.5389
 8259TIP3    H148972   4.638   5.583   5.267  0.8382  0.7082 -0.5358
 8259TIP3    H248973   4.619   5.588   5.117 -0.3785 -2.7835 -0.5875
 8260TIP3   OH248974   6.887   0.970   6.235 -0.1184 -0.2824  0.0915
 8260TIP3    H148975   6.862   0.890   6.190 -1.4342 -0.0283  0.3133
 8260TIP3    H248976   6.850   1.040   6.182 -0.5797  0.0793  0.8698
 8261TIP3   OH248977   6.012   3.029   4.355  0.2881  0.6483 -0.3905
 8261TIP3    H148978   6.078   2.984   4.407 -0.3774 -0.6204 -0.6110
 8261TIP3    H248979   5.940   2.966   4.348 -0.9529  1.9917 -0.1357
 8262TIP3   OH248980   2.031   5.845   4.604 -0.6678 -0.2010 -0.1653
 8262TIP3    H148981   2.075   5.923   4.639 -1.4712  0.4309 -0.5295
 8262TIP3    H248982   2.021   5.864   4.510 -2.0527 -0.1627 -0.0228
 8263TIP3   OH248983   3.571   2.436   4.385  0.3611 -0.4027 -0.3580
 8263TIP3    H148984   3.581   2.380   4.462 -0.1708 -1.2242 -0.8713
 8263TIP3    H248985   3.661   2.460   4.362  0.5617 -0.6138  0.1821
 8264TIP3   OH248986   0.200   6.643   4.179  0.0447  0.2031  0.0666
 8264TIP3    H148987   0.291   6.648   4.149  0.2782 -0.3006  0.6651
 8264TIP3    H248988   0.205   6.666   4.272 -0.5604  1.0157 -0.0965
 8265TIP3   OH248989   4.687   4.683   4.891 -0.6914  0.1911 -0.4922
 8265TIP3    H148990   4.658   4.659   4.803  0.9463  1.8814 -1.5614
 8265TIP3    H248991   4.684   4.778   4.893 -3.6523  0.1922  2.4182
 8266TIP3   OH248992   0.413   0.180   3.880 -0.1047  0.0706 -0.2202
 8266TIP3    H148993   0.476   0.246   3.909 -1.2562  1.2949 -0.3891
 8266TIP3    H248994   0.339   0.231   3.846 -0.9072 -1.3179 -0.6378
 8267TIP3   OH248995   3.627   6.319   6.425  0.0914  0.0740  0.1007
 8267TIP3    H148996   3.566   6.381   6.386 -2.5404 -0.8898  2.3853
 8267TIP3    H248997   3.600   6.234   6.391  1.2791 -0.2233 -0.1347
 8268TIP3   OH248998   2.313   6.614   5.202  0.1291 -0.2292  0.1191
 8268TIP3    H148999   2.408   6.603   5.199  0.0391 -1.0387  0.0635
 8268TIP3    H249000   2.295   6.649   5.290  0.4684 -0.0962  0.1360
 8269TIP3   OH249001   0.821   0.387   5.912  0.1793  0.2646 -0.2599
 8269TIP3    H149002   0.754   0.330   5.950 -0.0985  0.2958 -0.6920
 8269TIP3    H249003   0.856   0.336   5.839  0.7546  0.1761  0.0795
 8270TIP3   OH249004   6.296   2.600   6.191 -0.2743  0.2432 -0.2877
 8270TIP3    H149005   6.206   2.572   6.179 -0.3407  0.7198 -1.0086
 8270TIP3    H249006   6.290   2.683   6.238 -0.3430  1.2225 -1.9438
 8271TIP3   OH249007   4.295   1.143   4.415 -0.2359 -0.2819  0.0371
 8271TIP3    H149008   4.381   1.122   4.379 -0.2251  0.1571 -0.2106
 8271TIP3    H249009   4.261   1.211   4.357 -0.9024 -0.6986 -0.0760
 8272TIP3   OH249010   1.114   5.758   5.883  0.0601  0.0893  0.1629
 8272TIP3    H149011   1.193   5.804   5.857 -0.4000  0.1288 -1.2482
 8272TIP3    H249012   1.113   5.679   5.829 -0.5978 -0.1713  0.5390
 8273TIP3   OH249013   5.989   4.746   6.157 -0.2476  0.3090 -0.3926
 8273TIP3    H149014   5.962   4.827   6.199 -1.3543 -0.4497  0.4178
 8273TIP3    H249015   5.909   4.693   6.153  0.4036 -0.6628 -1.0857
 8274TIP3   OH249016   5.552   4.186   6.272 -0.3029 -0.0340  0.2365
 8274TIP3    H149017   5.612   4.146   6.334 -0.1670 -0.0931  0.0697
 8274TIP3    H249018   5.472   4.202   6.322 -0.2950 -0.3418  0.3538
 8275TIP3   OH249019   4.626   2.662   3.969 -0.0093 -0.1924  0.4871
 8275TIP3    H149020   4.589   2.658   4.057  0.9221  0.4382  0.9190
 8275TIP3    H249021   4.659   2.751   3.961  2.6970 -1.0857  0.6863
 8276TIP3   OH249022   0.768   6.823   4.462  0.0034  0.7654  0.2562
 8276TIP3    H149023   0.698   6.886   4.481  1.3339  1.6992  2.5070
 8276TIP3    H249024   0.833   6.874   4.415  0.2394  0.5713  0.3707
 8277TIP3   OH249025   5.598   7.071   5.624 -0.1173  0.2243 -0.6205
 8277TIP3    H149026   5.641   7.026   5.551  0.6844 -0.8056  0.4486
 8277TIP3    H249027   5.607   7.011   5.698 -1.6611  0.8752  0.1334
 8278TIP3   OH249028   5.942   4.864   4.189  0.4007  0.5322 -0.5882
 8278TIP3    H149029   5.923   4.882   4.281  0.8433 -0.3032 -0.3265
 8278TIP3    H249030   5.970   4.949   4.154  2.5026  0.4167  0.6239
 8279TIP3   OH249031   6.312   2.463   6.595  0.0063 -0.2104  0.2551
 8279TIP3    H149032   6.407   2.466   6.605  0.1569 -0.8486 -0.8761
 8279TIP3    H249033   6.291   2.370   6.586 -0.8597 -0.1635  1.5793
 8280TIP3   OH249034   3.404   4.133   5.090 -0.1642  0.5261 -0.1423
 8280TIP3    H149035   3.411   4.039   5.107 -1.3999 -0.0550 -2.4385
 8280TIP3    H249036   3.470   4.151   5.023 -0.1405  1.2653  0.0629
 8281TIP3   OH249037   1.155   5.465   3.960  0.3114 -0.0576  0.3007
 8281TIP3    H149038   1.168   5.545   3.910  0.8082 -0.3218 -0.0008
 8281TIP3    H249039   1.194   5.484   4.045  0.0608  0.1597  0.3695
 8282TIP3   OH249040   4.709   2.324   6.432 -0.5539 -0.0389  0.6682
 8282TIP3    H149041   4.772   2.256   6.406  1.6807  1.9784  0.4803
 8282TIP3    H249042   4.716   2.391   6.364 -3.7182 -0.1332  0.1061
 8283TIP3   OH249043   0.490   1.233   3.926  0.0987 -0.3664 -0.1714
 8283TIP3    H149044   0.579   1.265   3.911  0.3124  0.7802  2.7531
 8283TIP3    H249045   0.493   1.140   3.905  2.1917 -0.4818  0.4484
 8284TIP3   OH249046   2.259   6.885   6.010 -0.1251  0.2616  0.1234
 8284TIP3    H149047   2.276   6.800   6.051  0.2952 -0.7151 -1.9494
 8284TIP3    H249048   2.345   6.927   6.006 -0.5005  1.3471  2.1969
 8285TIP3   OH249049   2.629   7.335   5.372 -0.0332 -0.2714  0.7042
 8285TIP3    H149050   2.616   7.303   5.283  0.6289  0.3662  0.3713
 8285TIP3    H249051   2.545   7.374   5.396 -0.3055 -0.7078  0.4776
 8286TIP3   OH249052   1.507   5.360   5.034 -0.1057 -0.0526 -0.0644
 8286TIP3    H149053   1.482   5.427   4.971  1.5206 -0.2479 -0.9635
 8286TIP3    H249054   1.576   5.310   4.990  2.0491  0.5992  2.3047
 8287TIP3   OH249055   1.095   5.788   5.506  0.9398  0.1701 -0.3988
 8287TIP3    H149056   1.125   5.820   5.591  1.5791 -1.7980  0.1686
 8287TIP3    H249057   1.161   5.818   5.444  1.6764 -0.2785  0.1531
 8288TIP3   OH249058   1.517   1.841   5.758  0.0510  0.0978 -0.4463
 8288TIP3    H149059   1.527   1.781   5.684 -0.4005  1.2500 -1.4838
 8288TIP3    H249060   1.590   1.819   5.817  1.1634 -0.0180 -1.8186
 8289TIP3   OH249061   0.655   7.425   5.025 -0.2791  0.0274 -0.1234
 8289TIP3    H149062   0.737   7.379   5.006  0.0203  0.1480  0.8058
 8289TIP3    H249063   0.587   7.370   4.986  0.2429 -0.0272 -0.9852
 8290TIP3   OH249064   1.724   6.506   3.657  0.7715 -0.1204  0.3425
 8290TIP3    H149065   1.790   6.493   3.725  0.4730 -0.5296  0.5573
 8290TIP3    H249066   1.642   6.513   3.705  0.4399 -1.2667 -0.0215
 8291TIP3   OH249067   6.813   3.203   4.437  0.2635 -0.1262 -0.2806
 8291TIP3    H149068   6.834   3.112   4.460  0.0467  0.4521  2.4585
 8291TIP3    H249069   6.766   3.238   4.513  2.2551  2.9406 -0.2856
 8292TIP3   OH249070   6.315   2.629   4.489 -0.5346  0.0980 -0.0572
 8292TIP3    H149071   6.333   2.555   4.431  0.0149 -0.0707  0.3234
 8292TIP3    H249072   6.400   2.668   4.505 -0.7435  0.4187  0.2729
 8293TIP3   OH249073   0.452   7.643   4.056 -0.1175  0.4023 -0.3299
 8293TIP3    H149074   0.434   7.708   3.989  2.2261  0.3016 -1.1525
 8293TIP3    H249075   0.402   7.566   4.030 -1.6224  1.3186 -0.2393
 8294TIP3   OH249076   7.413   5.010   4.014 -0.1706  0.2155  0.9519
 8294TIP3    H149077   7.462   4.934   4.046 -1.2371 -1.0649 -0.3285
 8294TIP3    H249078   7.332   5.010   4.064 -0.8454 -0.4315 -0.1185
 8295TIP3   OH249079   1.084   1.459   5.505 -0.1743 -0.7435  0.3155
 8295TIP3    H149080   1.151   1.447   5.573 -0.0548  0.2570  0.3860
 8295TIP3    H249081   1.081   1.554   5.490 -0.6384 -0.8933 -0.6381
 8296TIP3   OH249082   5.429   2.478   5.043 -0.2001 -1.2248  0.1839
 8296TIP3    H149083   5.394   2.408   4.988  0.8110 -0.4817 -1.4810
 8296TIP3    H249084   5.402   2.455   5.131 -0.7527 -3.1725 -0.4483
 8297TIP3   OH249085   5.288   2.104   5.831 -0.1122  0.6555 -0.4238
 8297TIP3    H149086   5.250   2.087   5.917  1.0335  0.6081  0.0961
 8297TIP3    H249087   5.380   2.078   5.840  0.5834  2.7144 -0.9988
 8298TIP3   OH249088   3.356   5.718   5.163 -0.0751 -0.1669 -0.3204
 8298TIP3    H149089   3.360   5.777   5.087 -1.1056 -0.2556 -0.4669
 8298TIP3    H249090   3.273   5.741   5.206  0.4586 -0.1757  0.7395
 8299TIP3   OH249091   0.265   6.416   5.719  0.3076 -0.4093 -0.5301
 8299TIP3    H149092   0.288   6.460   5.801 -1.4507 -0.9279  0.3042
 8299TIP3    H249093   0.266   6.323   5.741  0.0508 -0.5655 -1.1633
 8300TIP3   OH249094   5.887   7.376   3.950  0.3680  0.6438 -0.1100
 8300TIP3    H149095   5.954   7.324   3.907  0.9555  0.1553  1.3399
 8300TIP3    H249096   5.804   7.341   3.917  0.7398 -1.4107  0.9917
 8301TIP3   OH249097   2.844   7.307   4.579 -0.6186  0.0645 -0.1730
 8301TIP3    H149098   2.864   7.361   4.502 -1.0266 -1.1138 -1.1341
 8301TIP3    H249099   2.775   7.248   4.549 -1.1549 -0.0674  1.2668
 8302TIP3   OH249100   5.401   6.559   6.268 -0.2115 -0.4732  0.0408
 8302TIP3    H149101   5.333   6.514   6.217 -1.1978 -0.7772  1.5562
 8302TIP3    H249102   5.469   6.493   6.281  0.1286 -0.3428 -0.9913
 8303TIP3   OH249103   7.223   5.169   6.489 -0.1832 -0.3394  0.1610
 8303TIP3    H149104   7.181   5.087   6.517  0.8062 -0.9931 -0.1870
 8303TIP3    H249105   7.243   5.214   6.571 -1.8450  0.1521  0.3195
 8304TIP3   OH249106   5.048   2.682   6.133 -0.2727  0.0275 -1.1172
 8304TIP3    H149107   4.997   2.756   6.167  0.1413  1.4553 -3.4163
 8304TIP3    H249108   5.128   2.682   6.186 -1.6710 -1.0031  1.1954
 8305TIP3   OH249109   6.421   6.672   4.545 -0.1334 -0.0122  0.1814
 8305TIP3    H149110   6.344   6.723   4.519 -0.6614  0.3605  2.2742
 8305TIP3    H249111   6.390   6.581   4.547 -0.2933  0.0426  0.2402
 8306TIP3   OH249112   2.841   1.420   4.436 -0.0289  0.0380  0.0305
 8306TIP3    H149113   2.748   1.429   4.456  0.1649  2.8515  0.1238
 8306TIP3    H249114   2.849   1.449   4.345  0.7065 -0.5726 -0.1052
 8307TIP3   OH249115   0.585   4.142   5.002  0.2424 -0.3676 -0.1117
 8307TIP3    H149116   0.596   4.081   4.928  0.4760  1.0765 -1.3132
 8307TIP3    H249117   0.659   4.123   5.060  0.7658 -0.7051 -0.8668
 8308TIP3   OH249118   0.132   3.579   4.531 -0.1202  0.2611  0.7648
 8308TIP3    H149119   0.116   3.674   4.528 -0.2978  0.2378  0.9164
 8308TIP3    H249120   0.107   3.548   4.444 -0.5482  0.2821  0.8747
 8309TIP3   OH249121   3.866   4.700   3.853 -0.3337  0.7460  0.3638
 8309TIP3    H149122   3.949   4.711   3.806 -0.5585 -0.3093 -0.3199
 8309TIP3    H249123   3.886   4.636   3.921 -0.2736  1.4732  1.0361
 8310TIP3   OH249124   2.049   6.756   6.258  0.1376 -0.2219 -0.1918
 8310TIP3    H149125   2.023   6.664   6.251 -0.3738  0.0338 -1.9229
 8310TIP3    H249126   2.145   6.753   6.267  0.5921 -0.8827 -3.8267
 8311TIP3   OH249127   6.388   3.559   5.389  0.5193  0.7377 -0.7654
 8311TIP3    H149128   6.304   3.578   5.347 -0.5085 -0.2544  0.7393
 8311TIP3    H249129   6.431   3.499   5.328  0.0755  1.1038 -1.4629
 8312TIP3   OH249130   4.645   0.815   5.459 -0.4241 -0.1424 -0.5469
 8312TIP3    H149131   4.658   0.732   5.413  2.0055 -1.4685  2.1629
 8312TIP3    H249132   4.697   0.878   5.409 -0.1390 -0.8555 -1.1779
 8313TIP3   OH249133   2.598   3.692   4.804  0.1113 -0.0238  0.2587
 8313TIP3    H149134   2.552   3.706   4.887 -0.0178 -1.1780  0.3999
 8313TIP3    H249135   2.686   3.665   4.830  0.0085 -0.5912  0.0387
 8314TIP3   OH249136   3.778   4.510   5.423  0.2278 -0.8959 -1.1047
 8314TIP3    H149137   3.815   4.567   5.355  0.2062  1.6978  0.9046
 8314TIP3    H249138   3.688   4.540   5.432  0.5349 -0.4194  0.7654
 8315TIP3   OH249139   4.754   5.593   5.548  0.6233 -0.2501 -0.6886
 8315TIP3    H149140   4.765   5.521   5.610  0.9096  0.4434  0.0840
 8315TIP3    H249141   4.665   5.581   5.513  0.3681 -0.5245  0.0330
 8316TIP3   OH249142   3.978   5.209   5.661 -0.4805  0.3924  0.2691
 8316TIP3    H149143   4.007   5.118   5.659 -0.5188  0.3856 -0.4009
 8316TIP3    H249144   3.889   5.206   5.625 -0.8119  0.5816  1.0682
 8317TIP3   OH249145   1.894   1.759   4.978 -0.3013 -0.3716  0.4832
 8317TIP3    H149146   1.895   1.665   4.960  0.8587 -0.3272  0.2113
 8317TIP3    H249147   1.897   1.800   4.892  0.7247 -0.1151  0.6298
 8318TIP3   OH249148   0.488   3.351   5.188  0.2853  0.4070 -0.0474
 8318TIP3    H149149   0.583   3.344   5.198  0.1113 -2.8036  0.1807
 8318TIP3    H249150   0.474   3.367   5.095  1.0411  0.1854 -0.2031
 8319TIP3   OH249151   4.476   0.959   6.347  0.5477  0.1703 -0.0691
 8319TIP3    H149152   4.484   0.867   6.373 -1.4758 -0.0569 -0.0821
 8319TIP3    H249153   4.508   1.008   6.423 -1.1005 -0.5431  1.1539
 8320TIP3   OH249154   0.215   7.506   4.585 -0.9253 -0.1621 -0.1663
 8320TIP3    H149155   0.296   7.524   4.536  0.3514 -0.6291  1.6653
 8320TIP3    H249156   0.189   7.418   4.556 -0.6159 -0.1246 -0.5665
 8321TIP3   OH249157   0.420   5.154   4.151 -0.0548  0.5159  0.4129
 8321TIP3    H149158   0.455   5.186   4.068 -2.2759  0.0093 -0.8167
 8321TIP3    H249159   0.461   5.068   4.163 -0.9867 -0.2000 -1.1396
 8322TIP3   OH249160   1.756   0.519   4.078  0.6746 -0.1444 -0.3793
 8322TIP3    H149161   1.787   0.429   4.067  1.1394  0.1135 -1.3011
 8322TIP3    H249162   1.662   0.511   4.092  0.7356 -0.7820 -0.3112
 8323TIP3   OH249163   4.937   3.203   3.852  0.2274  0.1011  0.6556
 8323TIP3    H149164   5.021   3.244   3.830 -0.1046 -0.2392 -1.3983
 8323TIP3    H249165   4.872   3.255   3.804 -0.2830 -2.2895 -1.4581
 8324TIP3   OH249166   2.740   1.504   4.194 -0.2041  0.0328 -0.3469
 8324TIP3    H149167   2.669   1.542   4.143  0.1193  1.9937  0.5693
 8324TIP3    H249168   2.806   1.573   4.198  1.8116 -1.7303 -1.1844
 8325TIP3   OH249169   3.655   2.318   5.827  0.0062 -0.6076  0.0894
 8325TIP3    H149170   3.651   2.290   5.919 -0.0001 -1.2569 -0.1073
 8325TIP3    H249171   3.568   2.352   5.809  0.5516  1.3564  0.8906
 8326TIP3   OH249172   2.420   7.232   4.756 -0.5414  0.0251 -0.2078
 8326TIP3    H149173   2.458   7.241   4.669 -1.0699  2.0751 -0.2812
 8326TIP3    H249174   2.352   7.165   4.746  0.0020 -0.4036 -1.1351
 8327TIP3   OH249175   1.387   1.087   5.488  0.2034 -0.1185  0.3438
 8327TIP3    H149176   1.307   1.116   5.443 -0.3023 -1.0328  0.6120
 8327TIP3    H249177   1.359   1.010   5.537  1.6223 -1.5512 -0.9712
 8328TIP3   OH249178   1.257   1.983   4.025  0.1410  0.4371 -0.3437
 8328TIP3    H149179   1.349   1.997   4.046  0.2650  2.8686 -2.0736
 8328TIP3    H249180   1.258   1.925   3.949  0.4594  2.1589 -1.7306
 8329TIP3   OH249181   2.939   6.933   6.291 -0.1367 -0.4999 -0.2778
 8329TIP3    H149182   2.923   6.997   6.221 -1.8865 -0.5893 -0.0044
 8329TIP3    H249183   3.008   6.876   6.256  2.8816  2.5037  0.1494
 8330TIP3   OH249184   4.183   7.180   4.359 -0.0895 -0.1180  0.2763
 8330TIP3    H149185   4.209   7.108   4.416  0.5685 -0.4038 -0.3744
 8330TIP3    H249186   4.128   7.139   4.292  1.3773 -0.2677 -0.8782
 8331TIP3   OH249187   1.098   5.794   4.615 -0.2778  0.1158 -0.2734
 8331TIP3    H149188   1.145   5.849   4.678  0.1963  0.1558 -0.6464
 8331TIP3    H249189   1.039   5.854   4.569 -1.0240 -0.0170  0.5007
 8332TIP3   OH249190   3.830   3.279   5.253  0.1142  0.1616  0.6120
 8332TIP3    H149191   3.878   3.242   5.178  0.3571 -3.7710  2.4838
 8332TIP3    H249192   3.764   3.336   5.213  2.6851  1.4086 -2.3152
 8333TIP3   OH249193   7.668   2.171   4.080 -0.1177 -0.7721  0.2268
 8333TIP3    H149194   7.762   2.183   4.098 -0.1147 -0.1973 -0.1367
 8333TIP3    H249195   7.650   2.081   4.107 -0.1559  0.0488  3.2713
 8334TIP3   OH249196   6.815   3.787   6.718 -0.5307 -0.3178 -0.1240
 8334TIP3    H149197   6.743   3.731   6.688 -0.3186 -0.8865  0.4104
 8334TIP3    H249198   6.894   3.736   6.701 -0.1225  0.8130 -1.8934
 8335TIP3   OH249199   4.292   3.537   3.447  0.0931  0.3653  0.4740
 8335TIP3    H149200   4.210   3.525   3.399  0.6751  0.9526 -0.7146
 8335TIP3    H249201   4.268   3.525   3.539 -1.3262  0.5525  0.1528
 8336TIP3   OH249202   5.999   0.078   9.559 -0.2895 -0.1819 -0.0622
 8336TIP3    H149203   5.979   0.165   9.523  1.3032  0.6206  0.9053
 8336TIP3    H249204   6.088   0.059   9.530 -0.4928 -1.3629  0.0236
 8337TIP3   OH249205   3.103   1.484   4.649 -0.3907  0.0130  0.2626
 8337TIP3    H149206   3.065   1.400   4.625  0.7812 -0.6268  0.5477
 8337TIP3    H249207   3.071   1.545   4.583  0.0515 -1.0007 -0.9259
 8338TIP3   OH249208   4.688   5.885   5.196 -0.2970  0.2780 -0.5935
 8338TIP3    H149209   4.612   5.907   5.250  1.5542  0.2953  2.2120
 8338TIP3    H249210   4.694   5.790   5.200  0.8650  0.3883  0.7922
 8339TIP3   OH249211   2.648   7.621   6.504 -1.0526  0.0612 -0.1988
 8339TIP3    H149212   2.591   7.638   6.579  0.6121 -0.7363  1.3266
 8339TIP3    H249213   2.687   7.536   6.522  0.6276  0.5742 -1.1533
 8340TIP3   OH249214   0.913   3.413   5.032  0.3240  0.5739 -0.2994
 8340TIP3    H149215   0.952   3.331   5.065  2.7857  0.4900 -2.9896
 8340TIP3    H249216   0.933   3.477   5.100  0.0456 -0.6616  1.0042
 8341TIP3   OH249217   1.095   6.125   3.778  0.1426 -0.0008  0.3625
 8341TIP3    H149218   1.164   6.181   3.740  0.5542 -1.7632 -1.6889
 8341TIP3    H249219   1.015   6.153   3.732 -0.0751  0.3532  0.9408
 8342TIP3   OH249220   2.663   1.774   4.283  0.3294 -0.1819 -0.2554
 8342TIP3    H149221   2.745   1.777   4.233  0.0213  3.7204 -0.8514
 8342TIP3    H249222   2.690   1.755   4.373  1.8069  0.1291 -0.6128
 8343TIP3   OH249223   6.245   1.663   5.035 -0.0641  0.1892  0.0056
 8343TIP3    H149224   6.163   1.638   4.992 -0.4034  2.3267 -0.7044
 8343TIP3    H249225   6.306   1.591   5.015 -1.6911 -1.3959  0.4671
 8344TIP3   OH249226   0.030   4.611   4.621 -0.1930 -0.1218  0.9730
 8344TIP3    H149227   0.119   4.579   4.607  0.6893  1.9598  1.4944
 8344TIP3    H249228   0.034   4.659   4.703 -1.5945  0.6848  0.6044
 8345TIP3   OH249229   0.455   4.351   6.739  0.5203 -0.8988  0.1823
 8345TIP3    H149230   0.521   4.402   6.786  0.8161 -1.5097  0.4410
 8345TIP3    H249231   0.374   4.366   6.787  0.4903 -0.2279 -0.0745
 8346TIP3   OH249232   4.293   6.859   5.347  0.3565 -0.5788 -0.2102
 8346TIP3    H149233   4.335   6.808   5.417 -0.9471  0.2546  1.2511
 8346TIP3    H249234   4.335   6.945   5.351 -1.8342  0.5224  1.7897
 8347TIP3   OH249235   1.465   2.497   4.695 -0.3163  0.1421 -0.1716
 8347TIP3    H149236   1.519   2.497   4.616 -0.9837  0.1925 -0.6366
 8347TIP3    H249237   1.478   2.411   4.734  2.0090  0.9782  1.0664
 8348TIP3   OH249238   5.895   5.113  12.415  0.2599  0.4250 -0.2395
 8348TIP3    H149239   5.804   5.116  12.444  0.1212  1.1090 -0.7096
 8348TIP3    H249240   5.939   5.181  12.466  0.3832  0.4695 -0.4026
 8349TIP3   OH249241   6.281   5.744   4.492 -0.4756  0.1113 -0.2295
 8349TIP3    H149242   6.333   5.824   4.484  1.6712 -1.3280 -1.3178
 8349TIP3    H249243   6.218   5.749   4.420 -0.4952  0.8760 -0.1687
 8350TIP3   OH249244   2.952   2.959   5.198  0.1764 -0.0633  0.2525
 8350TIP3    H149245   2.899   2.887   5.233  1.8434 -2.2201 -1.2979
 8350TIP3    H249246   3.005   2.989   5.272  0.3609 -1.3702  0.6806
 8351TIP3   OH249247   0.918   5.460   6.218 -0.2826  0.1190  0.3368
 8351TIP3    H149248   0.936   5.541   6.171 -1.5371  0.2973  0.1094
 8351TIP3    H249249   0.884   5.400   6.151  1.0250 -0.7472  0.4223
 8352TIP3   OH249250   4.312   7.420   6.000  0.1721 -0.1816  0.0480
 8352TIP3    H149251   4.402   7.398   6.022  0.8829  1.4162 -1.1134
 8352TIP3    H249252   4.260   7.375   6.067  1.8481 -0.5423  1.1815
 8353TIP3   OH249253   7.048   6.752   5.090  0.0891  0.3655 -0.5729
 8353TIP3    H149254   7.098   6.709   5.159 -0.7081 -0.2693 -0.3737
 8353TIP3    H249255   7.038   6.842   5.120 -1.6823 -0.2881  0.9890
 8354TIP3   OH249256   0.340   0.379   4.722 -0.1658  0.5330 -0.1544
 8354TIP3    H149257   0.313   0.290   4.744 -0.8504  0.6901 -0.3537
 8354TIP3    H249258   0.426   0.368   4.681  0.5327  0.1135  1.3424
 8355TIP3   OH249259   2.689   2.779   4.323  0.0563  0.2237  0.0264
 8355TIP3    H149260   2.707   2.858   4.272 -1.4219  0.0145 -0.8674
 8355TIP3    H249261   2.600   2.754   4.299  0.6661 -2.0387 -0.1388
 8356TIP3   OH249262   5.116   3.821   4.045  0.5674  0.1268 -0.2842
 8356TIP3    H149263   5.148   3.852   3.961  2.0058  0.0335  0.2025
 8356TIP3    H249264   5.027   3.792   4.027  0.9784 -0.2750 -1.8699
 8357TIP3   OH249265   4.564   4.991   5.726 -0.0413  0.7667  0.2768
 8357TIP3    H149266   4.567   5.076   5.769 -0.1846  1.6845 -1.4389
 8357TIP3    H249267   4.473   4.963   5.732  0.0740  0.5536  1.1442
 8358TIP3   OH249268   2.378   2.997   6.001 -0.1185  0.1755 -0.0496
 8358TIP3    H149269   2.358   3.052   6.077  2.0579  3.0871 -1.3896
 8358TIP3    H249270   2.344   3.046   5.927  0.9771 -0.7946 -1.2346
 8359TIP3   OH249271   2.344   5.070   6.079 -0.6020  0.7062  0.1376
 8359TIP3    H149272   2.266   5.041   6.032 -0.1720  0.2515 -0.3066
 8359TIP3    H249273   2.310   5.111   6.159 -1.2557 -0.9517  0.7648
 8360TIP3   OH249274   3.834   7.129   4.065 -0.4045  0.5752  0.8231
 8360TIP3    H149275   3.787   7.045   4.057  2.4937 -1.3155  1.9509
 8360TIP3    H249276   3.891   7.132   3.989 -0.4698  1.5528  0.8045
 8361TIP3   OH249277   1.488   6.948   5.019  0.0322 -0.8545  0.4880
 8361TIP3    H149278   1.545   6.885   4.975 -0.3814 -0.0082 -1.3439
 8361TIP3    H249279   1.463   6.904   5.100 -0.6692 -3.2866 -0.9446
 8362TIP3   OH249280   1.523   0.234   5.633  0.1468  0.6458 -0.3429
 8362TIP3    H149281   1.463   0.192   5.571  0.3773 -0.4052  0.1235
 8362TIP3    H249282   1.608   0.235   5.587 -0.0517  1.4602 -0.7127
 8363TIP3   OH249283   0.965   5.409   5.158 -0.4240 -0.0927 -0.1570
 8363TIP3    H149284   0.947   5.440   5.247  0.4778  0.4007 -0.1352
 8363TIP3    H249285   1.034   5.468   5.126  2.0082 -2.5429  0.1997
 8364TIP3   OH249286   5.834   1.679   4.131 -0.0931  0.5111  0.5575
 8364TIP3    H149287   5.929   1.688   4.129 -0.2627  2.4415 -0.4366
 8364TIP3    H249288   5.802   1.732   4.058 -1.8946 -1.1316  0.0529
 8365TIP3   OH249289   0.605   2.632   5.410  0.1657  0.6129  0.3469
 8365TIP3    H149290   0.558   2.554   5.381  1.2880  0.1270 -0.2333
 8365TIP3    H249291   0.548   2.705   5.384  1.0858  0.2270 -3.2302
 8366TIP3   OH249292   7.176   3.604   4.460  0.1746 -0.8665 -0.1349
 8366TIP3    H149293   7.112   3.647   4.402  0.5453  0.8899  0.6797
 8366TIP3    H249294   7.246   3.668   4.469  1.3593 -2.1685  0.1870
 8367TIP3   OH249295   1.062   1.455   4.298  0.7356  0.2317 -0.1819
 8367TIP3    H149296   1.088   1.422   4.384 -0.3353 -2.0867 -0.6501
 8367TIP3    H249297   1.143   1.455   4.248  0.7321 -2.8735 -0.4209
 8368TIP3   OH249298   2.689   7.181   4.879  0.1393  0.0859  0.0954
 8368TIP3    H149299   2.628   7.245   4.843 -0.2797  0.0807  0.7777
 8368TIP3    H249300   2.771   7.196   4.832  0.1642  1.4082  0.5183
 8369TIP3   OH249301   5.537   5.569   6.026 -0.0327 -0.0182 -0.2320
 8369TIP3    H149302   5.606   5.580   5.960 -0.2759 -0.1890 -0.5152
 8369TIP3    H249303   5.559   5.487   6.070  1.3293  1.1088  1.3412
 8370TIP3   OH249304   2.648   3.775   6.587  0.0215  0.1691 -0.2797
 8370TIP3    H149305   2.680   3.850   6.538  0.1849  1.8809  2.2383
 8370TIP3    H249306   2.596   3.813   6.658 -3.1128 -2.2726 -1.0297
 8371TIP3   OH249307   1.703   4.072   3.969 -0.1322  0.3204 -0.4188
 8371TIP3    H149308   1.650   4.148   3.947 -0.1206  0.3237 -0.4363
 8371TIP3    H249309   1.790   4.094   3.937  0.3470  1.1251  1.3508
 8372TIP3   OH249310   5.254   7.231   3.920 -0.1314 -0.0254 -0.0452
 8372TIP3    H149311   5.171   7.260   3.883 -0.9041 -1.8498  0.1342
 8372TIP3    H249312   5.259   7.138   3.897  2.2026  0.1863 -0.6226
 8373TIP3   OH249313   0.559   5.828   3.997  0.2809 -0.3105  0.5248
 8373TIP3    H149314   0.487   5.889   3.986 -0.4830 -1.3416 -0.4353
 8373TIP3    H249315   0.636   5.883   4.009 -0.6879  0.8089  1.8640
 8374TIP3   OH249316   1.972   6.506   6.293 -0.2277  0.5427 -0.3751
 8374TIP3    H149317   1.957   6.420   6.253  1.1068  0.4701 -0.7634
 8374TIP3    H249318   1.945   6.494   6.384  0.6691 -0.5323 -0.2223
 8375TIP3   OH249319   3.479   1.650   5.861 -0.9302  0.1373  0.0092
 8375TIP3    H149320   3.480   1.741   5.831 -1.4571 -0.1390 -0.9030
 8375TIP3    H249321   3.550   1.645   5.924 -0.6095  1.0778 -0.2555
 8376TIP3   OH249322   5.833   4.772   5.361 -0.0276  0.0424  0.1114
 8376TIP3    H149323   5.829   4.782   5.456 -0.5895 -0.3267  0.1323
 8376TIP3    H249324   5.747   4.801   5.329  0.4542  0.9722 -0.3669
 8377TIP3   OH249325   0.825   4.241   5.447 -0.1370  0.0769 -0.2813
 8377TIP3    H149326   0.801   4.233   5.539 -0.8139 -0.8949 -0.5244
 8377TIP3    H249327   0.794   4.159   5.407  0.7964  0.1633 -1.2275
 8378TIP3   OH249328   4.242   5.792   5.392 -0.5014  0.2791 -0.7537
 8378TIP3    H149329   4.234   5.776   5.486 -0.8463 -2.6292 -1.1677
 8378TIP3    H249330   4.262   5.885   5.384 -1.5199  0.8254  2.1244
 8379TIP3   OH249331   0.831   0.535   5.289  0.2470 -0.5479  0.1054
 8379TIP3    H149332   0.801   0.617   5.247  0.9508  0.1589  0.9469
 8379TIP3    H249333   0.843   0.558   5.381  0.5864 -1.5756  0.3290
 8380TIP3   OH249334   5.484   6.486   4.935 -0.1653  1.0713 -0.3254
 8380TIP3    H149335   5.415   6.525   4.989 -1.1508 -0.0515 -0.7278
 8380TIP3    H249336   5.491   6.545   4.860 -0.2562  1.5200  0.0151
 8381TIP3   OH249337   5.268   4.698   6.471  0.3069 -0.2539 -0.4297
 8381TIP3    H149338   5.319   4.617   6.471  0.6204 -0.0904  1.2206
 8381TIP3    H249339   5.295   4.743   6.391 -1.1135 -2.4862 -2.2985
 8382TIP3   OH249340   0.494   6.181   6.177 -0.4115 -0.1066  0.0067
 8382TIP3    H149341   0.583   6.206   6.201  0.0175  0.0742 -1.6412
 8382TIP3    H249342   0.478   6.100   6.225  0.8429 -0.4364 -0.0933
 8383TIP3   OH249343   5.059   3.725   5.989  0.3097  0.0564  1.6865
 8383TIP3    H149344   5.052   3.637   5.951  0.1257  0.1774  1.4350
 8383TIP3    H249345   4.970   3.759   5.984  0.8039  1.2383 -0.6081
 8384TIP3   OH249346   0.853   3.486   4.494 -0.0556  0.0886  0.0834
 8384TIP3    H149347   0.776   3.486   4.437  1.2208  1.7001 -1.7652
 8384TIP3    H249348   0.839   3.412   4.553 -2.2264 -0.6539 -1.2441
 8385TIP3   OH249349   3.934   1.237   6.720  0.1391 -0.0872  0.1013
 8385TIP3    H149350   3.950   1.250   6.813 -1.2001  0.9133  0.2303
 8385TIP3    H249351   3.879   1.311   6.695  0.9607 -0.0103 -1.6291
 8386TIP3   OH249352   4.847   1.515   4.307 -0.1037 -0.0074  0.3071
 8386TIP3    H149353   4.942   1.502   4.297 -0.0256  0.7383 -0.0790
 8386TIP3    H249354   4.837   1.554   4.394  0.2376  2.1709 -0.5389
 8387TIP3   OH249355   3.608   2.963   4.391 -0.3742  0.2702 -0.0308
 8387TIP3    H149356   3.526   2.991   4.349 -0.3265 -0.4019 -0.5855
 8387TIP3    H249357   3.664   3.040   4.386  0.0073 -0.0788 -2.1995
 8388TIP3   OH249358   0.389   0.364   4.198 -0.2356  0.0590  0.0056
 8388TIP3    H149359   0.450   0.357   4.125 -0.6137  0.1296 -0.3214
 8388TIP3    H249360   0.419   0.440   4.248  1.0304 -0.9618  0.8732
 8389TIP3   OH249361   0.590   5.050   4.857  0.0011  0.0251 -0.1614
 8389TIP3    H149362   0.596   5.033   4.951  0.2600 -0.8019 -0.3216
 8389TIP3    H249363   0.681   5.047   4.826  0.0583  1.6108 -0.2291
 8390TIP3   OH249364   6.571   5.246   6.004 -0.4756 -0.2278 -0.7942
 8390TIP3    H149365   6.647   5.248   5.946 -0.2695 -3.5545 -0.8375
 8390TIP3    H249366   6.600   5.196   6.080 -2.4895 -1.3468 -0.6894
 8391TIP3   OH249367   2.271   3.537   4.053  0.6041  0.4320  0.9561
 8391TIP3    H149368   2.271   3.458   4.107  1.0134  0.6582  1.2854
 8391TIP3    H249369   2.313   3.604   4.107  1.8652  0.4321  0.0311
 8392TIP3   OH249370   1.578   6.105   4.422  0.5091  0.0042  0.2232
 8392TIP3    H149371   1.626   6.076   4.499  0.2607 -1.0547 -0.0082
 8392TIP3    H249372   1.528   6.028   4.394 -1.0279  0.9727  0.2264
 8393TIP3   OH249373   7.679   0.442   4.958  0.0420 -0.2032  0.3103
 8393TIP3    H149374   7.757   0.391   4.982 -0.3530 -0.3612  1.3040
 8393TIP3    H249375   7.605   0.386   4.982 -0.4059 -0.6215 -1.8538
 8394TIP3   OH249376   1.544   4.548   3.909 -0.5614  0.0861 -0.0987
 8394TIP3    H149377   1.587   4.590   3.835  1.1651 -1.1847  0.1315
 8394TIP3    H249378   1.468   4.604   3.928 -0.3330  1.1044 -2.0077
 8395TIP3   OH249379   5.362   5.498   5.195  0.1818 -0.2539 -0.5186
 8395TIP3    H149380   5.327   5.506   5.107 -0.6973 -2.9398 -0.4938
 8395TIP3    H249381   5.291   5.460   5.247  1.0110  0.2990  1.1086
 8396TIP3   OH249382   2.963   6.836   4.638 -0.0977 -0.3204 -0.2489
 8396TIP3    H149383   2.936   6.786   4.715 -2.6321  1.3859  0.1022
 8396TIP3    H249384   3.046   6.877   4.663 -0.4832 -0.4148  1.2927
 8397TIP3   OH249385   0.371   1.028   5.690 -0.1101  0.1599 -0.1425
 8397TIP3    H149386   0.289   1.058   5.729  0.3141 -0.6003  1.4476
 8397TIP3    H249387   0.377   1.075   5.607 -2.0364  0.3909 -0.2005
 8398TIP3   OH249388   2.710   0.939   5.408 -0.4686 -0.2370  0.8821
 8398TIP3    H149389   2.717   0.955   5.502 -2.5436  0.5348  0.9496
 8398TIP3    H249390   2.689   0.846   5.401 -1.7392  0.0014  1.2949
 8399TIP3   OH249391   5.578   1.805   4.415 -0.1135 -0.2245 -0.3560
 8399TIP3    H149392   5.582   1.894   4.452 -0.2982 -0.7524  1.0137
 8399TIP3    H249393   5.669   1.776   4.412 -0.0719 -0.0668 -0.5828
 8400TIP3   OH249394   7.135   5.548   6.695 -0.1502  0.2102  0.5008
 8400TIP3    H149395   7.078   5.474   6.716  1.5329 -1.5593 -0.8018
 8400TIP3    H249396   7.093   5.589   6.619  0.0608 -0.8113 -0.1849
 8401TIP3   OH249397   0.693   5.457   4.807  0.3348  0.3414  0.8389
 8401TIP3    H149398   0.683   5.528   4.870  0.1630  1.7564 -0.7063
 8401TIP3    H249399   0.725   5.383   4.858  0.4119  1.4924  2.5214
 8402TIP3   OH249400   7.255   3.243   4.784  0.0227  0.6967 -0.0850
 8402TIP3    H149401   7.277   3.325   4.828  1.9210 -0.7653  1.9144
 8402TIP3    H249402   7.300   3.176   4.835  1.0247 -1.3457 -3.3188
 8403TIP3   OH249403   5.069   7.219   5.991  0.2902  0.4613  0.1986
 8403TIP3    H149404   5.014   7.225   6.070  1.6821 -0.3999  1.2896
 8403TIP3    H249405   5.111   7.133   5.999  0.0685  0.1353 -1.7824
 8404TIP3   OH249406   2.927   2.905   4.658 -0.2913  0.0539 -0.2460
 8404TIP3    H149407   2.933   2.912   4.562 -1.3057 -1.8920 -0.5027
 8404TIP3    H249408   2.873   2.827   4.673 -0.2584  0.3887  1.9284
 8405TIP3   OH249409   7.499   0.610   4.356 -0.1369 -0.1410  0.3423
 8405TIP3    H149410   7.572   0.592   4.296 -0.2057  1.3868 -0.2312
 8405TIP3    H249411   7.422   0.575   4.310  0.0230 -0.4183  0.2771
 8406TIP3   OH249412   2.820   3.125   3.594 -0.5889  0.2176  0.2332
 8406TIP3    H149413   2.913   3.150   3.587 -1.0024  1.7528 -0.0262
 8406TIP3    H249414   2.776   3.205   3.620 -2.0036 -0.2561 -0.6441
 8407TIP3   OH249415   4.833   3.667   6.328  0.3454  0.4003  0.0232
 8407TIP3    H149416   4.867   3.756   6.320  0.1566  0.4788  0.0701
 8407TIP3    H249417   4.891   3.624   6.391  1.1353  0.1369 -0.8599
 8408TIP3   OH249418   6.166   5.685   5.128 -0.0981 -0.1372 -0.3286
 8408TIP3    H149419   6.181   5.591   5.128 -0.2987 -0.1733  0.3168
 8408TIP3    H249420   6.244   5.722   5.086 -0.2477 -0.6146 -1.0524
 8409TIP3   OH249421   2.318   3.762   4.193  0.2465  0.1481 -0.2721
 8409TIP3    H149422   2.413   3.775   4.189  0.3434 -0.7127 -0.9894
 8409TIP3    H249423   2.283   3.850   4.207  1.1137  0.5716 -0.6644
 8410TIP3   OH249424   4.908   0.539   4.631 -0.2233  0.5218 -0.1861
 8410TIP3    H149425   4.856   0.468   4.667 -0.6560 -0.1500 -2.0282
 8410TIP3    H249426   4.849   0.584   4.570  0.4773  1.5788 -0.1189
 8411TIP3   OH249427   1.605   4.168   5.376 -0.2435  0.3846  0.1138
 8411TIP3    H149428   1.636   4.080   5.354 -1.4075 -0.1702  0.5945
 8411TIP3    H249429   1.681   4.224   5.363  1.2044 -0.9958  1.9450
 8412TIP3   OH249430   2.946   1.238   5.416 -0.3226  0.1150  0.2065
 8412TIP3    H149431   3.005   1.309   5.440 -0.7995  0.0528  1.6180
 8412TIP3    H249432   2.884   1.233   5.488  1.0417 -3.2564  1.2990
 8413TIP3   OH249433   4.644   6.298   3.766 -0.5422 -0.0745 -0.1461
 8413TIP3    H149434   4.584   6.350   3.713 -0.3355  1.4033  1.0050
 8413TIP3    H249435   4.703   6.362   3.806  0.0797 -1.2423  0.9009
 8414TIP3   OH249436   7.316   6.656   4.390  0.0427 -0.0142 -0.4185
 8414TIP3    H149437   7.263   6.603   4.451  0.3912  1.2323  1.0297
 8414TIP3    H249438   7.370   6.593   4.343  0.2328 -0.9847  1.0516
 8415TIP3   OH249439   4.529   5.432   4.658 -0.3762 -0.3685  0.0002
 8415TIP3    H149440   4.511   5.479   4.577  0.0322  0.6436  0.4808
 8415TIP3    H249441   4.600   5.481   4.699  0.6735 -1.9189  0.1117
 8416TIP3   OH249442   2.211   4.347   5.331 -0.3542  0.6523 -0.1029
 8416TIP3    H149443   2.262   4.307   5.260  2.8321  1.2443  1.6867
 8416TIP3    H249444   2.224   4.289   5.406 -0.9536  1.7229  0.8700
 8417TIP3   OH249445   6.453   5.488   5.942 -0.3505 -0.3283  0.3666
 8417TIP3    H149446   6.489   5.417   5.995  0.4383 -0.6604 -0.5773
 8417TIP3    H249447   6.359   5.486   5.958 -0.3156 -1.4926  0.4592
 8418TIP3   OH249448   5.462   5.912   4.611 -0.0533 -0.0216 -0.1013
 8418TIP3    H149449   5.501   5.986   4.565  1.4990 -2.1383 -2.4684
 8418TIP3    H249450   5.519   5.838   4.590 -1.2312 -1.8476  2.5463
 8419TIP3   OH249451   5.331   2.735   4.856 -0.9913  0.0272  0.7888
 8419TIP3    H149452   5.267   2.665   4.845 -2.1772  1.2710 -0.5581
 8419TIP3    H249453   5.374   2.715   4.940 -2.1309 -1.6168  1.0307
 8420TIP3   OH249454   0.365   6.530   3.417  0.2774 -0.0472  0.0403
 8420TIP3    H149455   0.388   6.623   3.411  0.0416  0.1609  1.8740
 8420TIP3    H249456   0.313   6.514   3.339  2.7387  0.5876 -1.8732
 8421TIP3   OH249457   1.860   5.299   4.104  0.5304  0.0520  0.2436
 8421TIP3    H149458   1.952   5.325   4.098  0.7334 -0.8114 -0.5814
 8421TIP3    H249459   1.852   5.225   4.044 -1.2139  1.5311 -1.4790
 8422TIP3   OH249460   0.504   4.397   4.622  0.0400  0.0579 -0.1002
 8422TIP3    H149461   0.567   4.360   4.561  0.6111  1.5619 -0.4672
 8422TIP3    H249462   0.527   4.357   4.706 -0.1213 -1.2766 -0.6595
 8423TIP3   OH249463   3.429   0.457   5.080 -0.7747 -0.4851  0.3687
 8423TIP3    H149464   3.516   0.482   5.112 -0.5881  0.4794 -0.8216
 8423TIP3    H249465   3.409   0.376   5.127  0.6057 -0.5217  0.9468
 8424TIP3   OH249466   4.434   1.249   4.744 -0.1189 -0.8785 -0.4824
 8424TIP3    H149467   4.461   1.236   4.653 -0.6123  0.5145 -0.8702
 8424TIP3    H249468   4.516   1.266   4.791 -0.0057  0.5343 -1.1101
 8425TIP3   OH249469   3.188   7.234   4.625  0.0829  0.3692 -0.4789
 8425TIP3    H149470   3.164   7.235   4.533 -0.9761 -1.3182 -0.2553
 8425TIP3    H249471   3.268   7.183   4.629  0.0060  0.2520 -0.4348
 8426TIP3   OH249472   4.417   0.506   6.150 -0.4027  0.0731 -0.2233
 8426TIP3    H149473   4.389   0.553   6.072  1.1333 -0.7493 -1.3516
 8426TIP3    H249474   4.478   0.566   6.194  0.0510 -0.0938 -0.6090
 8427TIP3   OH249475   1.441   3.162   5.236 -0.3172  0.4156  0.1039
 8427TIP3    H149476   1.529   3.186   5.264 -0.6230  1.2854  0.3455
 8427TIP3    H249477   1.430   3.206   5.151 -0.8135  1.0081  0.4627
 8428TIP3   OH249478   0.957   7.148   5.206  0.6181 -0.0855 -0.3275
 8428TIP3    H149479   0.998   7.231   5.182  0.0706 -0.0494 -1.1879
 8428TIP3    H249480   1.012   7.081   5.165  1.9161 -0.2687  1.5815
 8429TIP3   OH249481   1.714   0.298   4.640 -0.2827  0.5069 -0.0405
 8429TIP3    H149482   1.653   0.232   4.608 -0.7281  0.2358  1.3215
 8429TIP3    H249483   1.701   0.299   4.735  3.2735 -1.0219  0.6043
 8430TIP3   OH249484   2.200   7.021   4.786  0.3632 -0.0345  0.2886
 8430TIP3    H149485   2.218   6.975   4.704 -2.6999 -3.0278  1.0597
 8430TIP3    H249486   2.235   6.962   4.854 -1.4097 -0.0854  1.2243
 8431TIP3   OH249487   7.281   0.458   4.219  0.0361 -0.2272  0.2805
 8431TIP3    H149488   7.329   0.386   4.179 -1.2706 -2.0004  1.7640
 8431TIP3    H249489   7.226   0.417   4.286 -3.3343  1.6911 -1.0708
 8432TIP3   OH249490   5.920   3.080   5.888  0.2801 -0.4499 -0.1235
 8432TIP3    H149491   5.996   3.139   5.889  0.1996 -0.3482  0.1471
 8432TIP3    H249492   5.946   3.009   5.829  1.0285 -0.9936  0.8246
 8433TIP3   OH249493   2.610   6.608   5.150 -0.3629 -0.1349  0.2912
 8433TIP3    H149494   2.654   6.554   5.216 -0.4759  0.2664  0.7105
 8433TIP3    H249495   2.602   6.552   5.073 -1.1967 -0.9810  0.9716
 8434TIP3   OH249496   3.358   0.940   6.480 -0.1349 -0.4544  0.5091
 8434TIP3    H149497   3.288   0.987   6.435  0.2929  0.3912  0.7049
 8434TIP3    H249498   3.325   0.851   6.489 -2.1073  0.3663  2.4612
 8435TIP3   OH249499   2.119   1.636   5.249  0.0471  0.3908  0.7841
 8435TIP3    H149500   2.164   1.703   5.199 -2.6322 -0.4895 -3.2403
 8435TIP3    H249501   2.080   1.683   5.323  0.3142  2.7995 -0.5082
 8436TIP3   OH249502   0.192   4.213   4.778  0.0485 -0.0971 -0.2406
 8436TIP3    H149503   0.233   4.232   4.863  0.2776 -0.6721 -0.2188
 8436TIP3    H249504   0.119   4.274   4.773  0.0290 -0.0624  0.3791
 8437TIP3   OH249505   5.785   3.492   4.581 -0.2253  0.0088  0.5688
 8437TIP3    H149506   5.748   3.507   4.494  3.4530  1.1892 -1.0163
 8437TIP3    H249507   5.853   3.426   4.566  1.1269  0.9236  2.3097
 8438TIP3   OH249508   2.376   1.994   4.687 -0.4327 -0.6377 -0.5530
 8438TIP3    H149509   2.377   1.957   4.599 -1.3910  1.4740 -1.5425
 8438TIP3    H249510   2.378   1.918   4.746  1.1239 -2.0738 -2.3518
 8439TIP3   OH249511   6.594   2.880   5.410 -0.6051  0.0109  0.7505
 8439TIP3    H149512   6.663   2.896   5.475 -0.2727 -1.4327  0.7931
 8439TIP3    H249513   6.574   2.787   5.418 -0.0520 -0.3992 -1.6743
 8440TIP3   OH249514   3.884   2.980   4.148 -0.1852  0.0777 -0.3879
 8440TIP3    H149515   3.810   3.021   4.192 -0.7606  0.7659 -1.9479
 8440TIP3    H249516   3.946   2.960   4.219 -1.4679  0.2834  0.8287
 8441TIP3   OH249517   3.225   3.635   5.249  0.2760 -0.1011  0.1154
 8441TIP3    H149518   3.141   3.588   5.254  1.2207 -1.8672  0.3626
 8441TIP3    H249519   3.287   3.577   5.294  1.6455  1.1399 -0.1120
 8442TIP3   OH249520   7.130   5.764   5.172 -0.1433  0.8893 -0.3788
 8442TIP3    H149521   7.202   5.827   5.162 -1.0605  2.0176 -0.1420
 8442TIP3    H249522   7.162   5.699   5.234  1.1157  0.6832 -1.2234
 8443TIP3   OH249523   1.253   2.310   5.244  0.0375  0.3465 -0.2444
 8443TIP3    H149524   1.236   2.257   5.321 -2.0223  1.0862 -0.1247
 8443TIP3    H249525   1.313   2.379   5.274  1.5853 -1.0228 -0.0672
 8444TIP3   OH249526   0.200   5.836   4.000  0.0856 -0.1297  0.3509
 8444TIP3    H149527   0.245   5.912   3.963  0.0946  0.3236  1.2609
 8444TIP3    H249528   0.247   5.761   3.966 -0.7379  0.1881 -1.6639
 8445TIP3   OH249529   2.526   7.439   4.207  0.4589 -0.1033  0.0772
 8445TIP3    H149530   2.553   7.348   4.202  1.1559  0.0791  0.3859
 8445TIP3    H249531   2.604   7.489   4.185 -0.7087  0.4157 -3.5379
 8446TIP3   OH249532   0.907   1.346   5.145  0.9846  0.6080  0.1269
 8446TIP3    H149533   1.002   1.339   5.137  0.8900 -0.4283 -0.2680
 8446TIP3    H249534   0.873   1.310   5.063  0.2739  2.5283 -0.4623
 8447TIP3   OH249535   3.886   3.401   5.486 -0.3846  0.1606 -0.2375
 8447TIP3    H149536   3.892   3.398   5.390 -0.6600 -3.7710 -0.2986
 8447TIP3    H249537   3.962   3.350   5.516  0.2031  2.0661  1.7596
 8448TIP3   OH249538   3.549   6.261   4.818  0.4167  0.3680  0.1325
 8448TIP3    H149539   3.619   6.326   4.805 -0.1776  0.7238 -1.6661
 8448TIP3    H249540   3.556   6.204   4.741 -0.4293 -0.3973  0.6170
 8449TIP3   OH249541   4.378   2.089   5.351 -0.3700  0.0400  0.2439
 8449TIP3    H149542   4.444   2.151   5.382  0.4287 -0.8629  0.4305
 8449TIP3    H249543   4.296   2.136   5.356  0.3682  1.5331 -0.9056
 8450TIP3   OH249544   3.634   4.464   4.742 -0.4402  0.8655  0.1315
 8450TIP3    H149545   3.720   4.489   4.706  0.4290 -1.6851  0.1925
 8450TIP3    H249546   3.654   4.391   4.801 -2.6430  0.4303  0.3976
 8451TIP3   OH249547   3.014   0.393   6.123  0.2697  0.5204  0.2765
 8451TIP3    H149548   2.979   0.405   6.211 -1.0004 -4.1627  0.6869
 8451TIP3    H249549   3.108   0.378   6.136  0.5472  2.1939  0.4520
 8452TIP3   OH249550   3.713   6.423   5.536 -0.1608 -0.0729  0.8852
 8452TIP3    H149551   3.776   6.486   5.500  0.9445 -1.4183  0.3623
 8452TIP3    H249552   3.643   6.419   5.471 -0.0323  0.3180  0.7235
 8453TIP3   OH249553   3.674   3.276   3.869 -0.4185  0.0543  0.0259
 8453TIP3    H149554   3.715   3.192   3.888  1.2093  0.7690 -0.0866
 8453TIP3    H249555   3.734   3.341   3.907 -1.1685  1.1872 -0.6551
 8454TIP3   OH249556   3.757   2.979   3.907  0.0088 -0.2780 -0.0719
 8454TIP3    H149557   3.839   2.959   3.952 -0.7931 -0.6402  1.2958
 8454TIP3    H249558   3.751   2.915   3.837  0.2788 -1.1006  0.6441
 8455TIP3   OH249559   5.063   3.099   5.232  0.5190 -0.2069  0.1130
 8455TIP3    H149560   5.118   3.071   5.158 -0.4392  0.9642 -1.0918
 8455TIP3    H249561   5.020   3.018   5.261 -0.8623 -0.3666 -2.1538
 8456TIP3   OH249562   6.254   4.629   4.976  0.3653 -0.3165 -0.3836
 8456TIP3    H149563   6.253   4.665   5.065  3.0211  1.4091 -0.9318
 8456TIP3    H249564   6.244   4.535   4.988 -0.9176 -0.0032  1.5793
 8457TIP3   OH249565   1.224   0.764   3.900  0.0732 -0.3632 -0.1027
 8457TIP3    H149566   1.252   0.831   3.837  0.0633 -1.8268 -1.7397
 8457TIP3    H249567   1.131   0.752   3.882 -0.1161 -0.2678  0.7477
 8458TIP3   OH249568   4.805   0.358   3.952 -0.3213  0.4120  0.2632
 8458TIP3    H149569   4.803   0.286   3.888  2.3459  0.6267 -0.1657
 8458TIP3    H249570   4.716   0.361   3.986 -1.2347 -1.2839 -1.7032
 8459TIP3   OH249571   2.616   5.784   4.299 -0.0670 -0.0575  0.1110
 8459TIP3    H149572   2.644   5.749   4.214 -0.7694  0.7453 -0.4530
 8459TIP3    H249573   2.672   5.860   4.313  0.6528 -0.6899  0.7957
 8460TIP3   OH249574   7.448   5.852   4.406 -0.6911 -0.4306 -0.5088
 8460TIP3    H149575   7.467   5.759   4.401 -2.6849 -0.9584  0.6801
 8460TIP3    H249576   7.468   5.885   4.318 -1.7726 -2.3649 -1.5529
 8461TIP3   OH249577   6.245   3.543   6.110 -0.0585 -0.2285  0.2253
 8461TIP3    H149578   6.176   3.490   6.147 -1.6086  1.8817  0.5174
 8461TIP3    H249579   6.200   3.604   6.051  1.6211  0.6822 -0.1931
 8462TIP3   OH249580   4.745   6.499   5.680  0.1355  0.2367 -0.9985
 8462TIP3    H149581   4.709   6.559   5.746 -0.0448 -0.1149 -0.7701
 8462TIP3    H249582   4.840   6.508   5.688  0.1267 -0.1573 -0.3483
 8463TIP3   OH249583   5.077   0.930   5.251 -0.1671 -0.1965 -0.1090
 8463TIP3    H149584   5.085   1.021   5.279 -1.9225  0.0671 -0.3974
 8463TIP3    H249585   5.011   0.931   5.182 -0.2645 -1.6932 -0.0694
 8464TIP3   OH249586   5.696   2.751   5.378  0.3374 -0.5201 -0.1375
 8464TIP3    H149587   5.669   2.696   5.305  1.3487 -0.9766 -0.1868
 8464TIP3    H249588   5.719   2.835   5.338 -1.9615  0.2518  0.0273
 8465TIP3   OH249589   7.532   1.844   5.471  0.0172 -0.4268 -0.7698
 8465TIP3    H149590   7.568   1.756   5.459  0.3067 -0.6173  1.1876
 8465TIP3    H249591   7.448   1.842   5.425 -0.7166 -2.2563  0.5523
 8466TIP3   OH249592   7.529   7.021   5.547  0.2857 -0.0693  0.2297
 8466TIP3    H149593   7.482   6.958   5.602 -0.2620 -0.6244 -0.8459
 8466TIP3    H249594   7.509   6.995   5.458 -0.5036  2.0178 -0.2666
 8467TIP3   OH249595   3.879   2.439   6.434  0.2217 -0.5143  0.0907
 8467TIP3    H149596   3.802   2.420   6.379 -0.8980  2.4604  0.4286
 8467TIP3    H249597   3.948   2.461   6.372 -0.0213 -0.5332 -0.1891
 8468TIP3   OH249598   0.961   3.968   4.786  0.2343 -0.3161  0.4400
 8468TIP3    H149599   1.008   3.982   4.869 -0.4683  1.3034  0.5970
 8468TIP3    H249600   0.929   4.054   4.762  0.7154 -0.6870 -1.7287
 8469TIP3   OH249601   0.137   7.638   4.816  0.1196  0.1097 -0.3931
 8469TIP3    H149602   0.043   7.623   4.814 -0.0489  1.0732 -0.1296
 8469TIP3    H249603   0.166   7.619   4.726 -0.3745  0.1499 -0.5631
 8470TIP3   OH249604   1.526   1.992   4.758 -0.0241 -0.0689  0.1882
 8470TIP3    H149605   1.557   1.919   4.703 -2.0259 -0.1052 -0.9964
 8470TIP3    H249606   1.582   1.989   4.835  1.3024 -1.5719 -0.7608
 8471TIP3   OH249607   2.293   3.157   5.799  0.1057  0.2574  0.1652
 8471TIP3    H149608   2.369   3.215   5.801 -0.0088  0.4905 -1.4139
 8471TIP3    H249609   2.218   3.216   5.806  0.0299 -0.0079  2.2693
 8472TIP3   OH249610   1.921   7.202   5.880 -0.5999  0.1580  0.0615
 8472TIP3    H149611   1.831   7.211   5.848 -1.6526 -2.5399  1.9176
 8472TIP3    H249612   1.926   7.261   5.955 -0.9742 -0.0512  0.2511
 8473TIP3   OH249613   5.399   4.071   4.220  0.6316  0.4056 -0.0462
 8473TIP3    H149614   5.479   4.017   4.223  1.0463  0.3763 -4.5229
 8473TIP3    H249615   5.431   4.159   4.199 -0.3971  1.2956  1.8755
 8474TIP3   OH249616   1.794   4.320   5.713 -0.0615 -0.0179  0.4213
 8474TIP3    H149617   1.830   4.244   5.668 -1.5777 -0.7127  0.3371
 8474TIP3    H249618   1.824   4.395   5.662  0.8756 -0.5951  0.1067
 8475TIP3   OH249619   4.522   1.300   6.272  0.2504  0.0426  0.4991
 8475TIP3    H149620   4.465   1.373   6.296 -1.0878 -0.3394 -1.3130
 8475TIP3    H249621   4.466   1.242   6.221  1.7524 -1.4009  0.4211
 8476TIP3   OH249622   0.996   0.960   4.121 -0.2409 -0.2957 -0.3240
 8476TIP3    H149623   0.930   1.010   4.168 -0.1016 -0.9536  0.6007
 8476TIP3    H249624   1.058   0.933   4.189  1.9395  1.7201 -1.3878
 8477TIP3   OH249625   2.269   2.579   5.832 -0.4311 -0.0848 -0.0790
 8477TIP3    H149626   2.190   2.589   5.779 -1.5813 -1.9257  1.2069
 8477TIP3    H249627   2.339   2.564   5.767 -1.1971  0.9612 -1.1983
 8478TIP3   OH249628   4.867   0.300   6.760  0.3285 -0.2884  0.5775
 8478TIP3    H149629   4.855   0.212   6.723  1.2349  0.1419 -0.8160
 8478TIP3    H249630   4.956   0.325   6.736 -0.8028  2.1371 -1.6734
 8479TIP3   OH249631   4.985   7.019   4.604 -0.2627 -0.2513  0.6451
 8479TIP3    H149632   5.015   6.929   4.612  0.5964 -0.0096  0.2449
 8479TIP3    H249633   5.044   7.059   4.540  1.0928  1.3173  2.7207
 8480TIP3   OH249634   7.052   5.276   5.762 -0.2018  0.5602  0.3726
 8480TIP3    H149635   6.982   5.225   5.720 -0.4737  0.3777  1.0457
 8480TIP3    H249636   7.124   5.214   5.772 -0.3439  0.4463  0.7038
 8481TIP3   OH249637   2.333   7.630   4.925 -0.2312  0.0756 -0.2717
 8481TIP3    H149638   2.261   7.691   4.939 -0.0432  0.1650  0.3186
 8481TIP3    H249639   2.396   7.651   4.994  0.5178  0.2268 -1.0015
 8482TIP3   OH249640   7.133   4.730   5.446 -0.1281 -0.7871  0.1373
 8482TIP3    H149641   7.174   4.667   5.387 -0.3372 -1.1593  0.3795
 8482TIP3    H249642   7.089   4.675   5.511  2.9820 -0.5203  2.7491
 8483TIP3   OH249643   1.384   5.051   4.813 -0.0606  0.2936 -0.9431
 8483TIP3    H149644   1.424   5.112   4.751 -1.2724  0.5704 -1.4803
 8483TIP3    H249645   1.387   4.966   4.769 -3.5466  0.9349 -2.7886
 8484TIP3   OH249646   2.278   0.272   6.659  0.4073 -0.0186  0.2233
 8484TIP3    H149647   2.287   0.351   6.712 -2.5914  0.8967 -0.4563
 8484TIP3    H249648   2.206   0.291   6.599  0.2089 -2.9393 -0.6203
 8485TIP3   OH249649   6.705   2.451   6.059 -0.4621  0.5499 -0.1090
 8485TIP3    H149650   6.724   2.383   6.124  0.3026  1.6243  0.8381
 8485TIP3    H249651   6.613   2.438   6.036 -0.6211 -0.1342  0.8635
 8486TIP3   OH249652   6.808   2.270   4.851 -0.3163 -0.0693 -0.0708
 8486TIP3    H149653   6.732   2.304   4.899  0.5021  2.2579 -0.2807
 8486TIP3    H249654   6.874   2.340   4.858  0.9190 -0.9499 -2.0005
 8487TIP3   OH249655   4.960   4.752   5.317  0.1266  0.1543  0.4227
 8487TIP3    H149656   4.890   4.804   5.278  0.1362 -0.0883  0.0700
 8487TIP3    H249657   4.943   4.755   5.411 -0.4258  0.0008  0.3332
 8488TIP3   OH249658   5.218   5.166   4.364  0.3729 -0.1216 -0.0679
 8488TIP3    H149659   5.194   5.201   4.449  0.2189  1.3586 -0.6927
 8488TIP3    H249660   5.223   5.071   4.377 -0.5570  0.0038  1.3462
 8489TIP3   OH249661   7.420   4.086   4.979 -0.3515 -0.1192 -0.1926
 8489TIP3    H149662   7.447   4.016   4.920 -0.0245 -0.6760  0.5854
 8489TIP3    H249663   7.449   4.055   5.066  0.7142  1.4220  0.0425
 8490TIP3   OH249664   3.489   1.326   4.120  0.5726  0.0410  0.0001
 8490TIP3    H149665   3.518   1.337   4.030  1.6986 -0.3668  0.3012
 8490TIP3    H249666   3.540   1.252   4.153 -1.4871 -1.3407  0.2778
 8491TIP3   OH249667   6.553   6.991   3.698 -0.1676 -0.7071  0.5014
 8491TIP3    H149668   6.646   7.016   3.696 -0.5671  0.8972 -0.0717
 8491TIP3    H249669   6.554   6.897   3.712  1.5046 -0.4967  2.2160
 8492TIP3   OH249670   7.122   4.443   3.916  0.0323 -0.3552  0.0518
 8492TIP3    H149671   7.048   4.452   3.856  1.2299  0.1946 -1.4091
 8492TIP3    H249672   7.117   4.520   3.972  0.8225  0.9806 -1.6190
 8493TIP3   OH249673   6.843   4.537   5.863  0.6013  0.6678 -0.0300
 8493TIP3    H149674   6.853   4.567   5.953  1.1298 -0.5018  0.3105
 8493TIP3    H249675   6.842   4.442   5.868  0.3022  0.5815 -1.2322
 8494TIP3   OH249676   5.597   4.165   5.107  0.0278 -0.5070 -0.2773
 8494TIP3    H149677   5.538   4.210   5.167 -0.5377 -1.4703 -0.0869
 8494TIP3    H249678   5.678   4.216   5.111 -0.1979 -0.2013  0.8523
 8495TIP3   OH249679   3.081   4.934   5.086 -0.7850 -0.2432 -0.6769
 8495TIP3    H149680   3.053   4.881   5.161  1.5017 -2.3486 -1.2070
 8495TIP3    H249681   3.094   4.871   5.015 -1.1820  1.4829 -2.3583
 8496TIP3   OH249682   4.710   6.097   3.967 -0.1572  0.3114  0.2366
 8496TIP3    H149683   4.637   6.036   3.959 -0.6837  1.1351 -1.6034
 8496TIP3    H249684   4.691   6.167   3.905  1.6786  1.0903  0.4706
 8497TIP3   OH249685   6.645   6.786   4.659  0.2298 -0.7214  0.8195
 8497TIP3    H149686   6.644   6.821   4.748  1.2718 -0.2898  0.6699
 8497TIP3    H249687   6.557   6.751   4.646 -0.6682  1.2810  1.2000
 8498TIP3   OH249688   0.146   0.922   6.268  0.5258 -0.6774  0.5569
 8498TIP3    H149689   0.221   0.864   6.280  1.1969 -0.0950 -0.6941
 8498TIP3    H249690   0.081   0.867   6.224  0.7068 -0.8170  0.4610
 8499TIP3   OH249691   5.468   4.350   4.448  0.7492 -0.0426 -0.5284
 8499TIP3    H149692   5.382   4.315   4.473  0.6785 -0.3217 -1.1608
 8499TIP3    H249693   5.520   4.346   4.529  0.2363 -0.0741 -0.1966
 8500TIP3   OH249694   3.835   0.209   5.292 -0.1026  0.1151  0.0225
 8500TIP3    H149695   3.828   0.124   5.334  0.6577 -0.0758 -0.2225
 8500TIP3    H249696   3.847   0.190   5.199 -2.5951  0.5481 -0.4574
 8501TIP3   OH249697   4.196   1.196   3.564 -0.1585 -0.1679 -0.8556
 8501TIP3    H149698   4.249   1.118   3.548 -0.1217 -0.1625 -0.7612
 8501TIP3    H249699   4.126   1.166   3.621  0.7826  0.2120  0.5558
 8502TIP3   OH249700   0.503   5.616   5.277 -0.0484 -0.2361 -0.1700
 8502TIP3    H149701   0.541   5.701   5.297 -0.3431 -0.1899  0.2129
 8502TIP3    H249702   0.439   5.634   5.208 -1.3097  0.1466  1.0505
 8503TIP3   OH249703   0.392   1.959   5.409  0.4006 -0.0995  0.1835
 8503TIP3    H149704   0.454   1.886   5.415  0.7582  0.2771  1.7015
 8503TIP3    H249705   0.446   2.033   5.382 -0.0813 -0.4892 -2.0050
 8504TIP3   OH249706   4.966   6.493   5.294 -0.0597 -0.5876  0.6171
 8504TIP3    H149707   5.021   6.546   5.351  0.2678 -3.5039  3.2624
 8504TIP3    H249708   5.008   6.407   5.292 -2.0159 -1.6069 -1.1491
 8505TIP3   OH249709   1.871   1.393   5.649  0.3379  0.1381  0.1321
 8505TIP3    H149710   1.860   1.434   5.563  0.5957 -0.7585 -0.3336
 8505TIP3    H249711   1.961   1.362   5.649  0.4747  0.5109  0.9021
 8506TIP3   OH249712   5.371   4.485   5.884  0.4208  0.0166  0.3605
 8506TIP3    H149713   5.449   4.531   5.851  0.0966  0.4932  0.2586
 8506TIP3    H249714   5.405   4.426   5.951  0.8217  0.4852  0.5733
 8507TIP3   OH249715   3.489   7.423   4.125  0.4679 -0.8142 -0.5990
 8507TIP3    H149716   3.395   7.429   4.105 -0.1806 -1.1196  1.9654
 8507TIP3    H249717   3.493   7.371   4.205  2.6292  1.1306  0.6903
 8508TIP3   OH249718   0.725   2.508   4.018  0.0050  0.0803  0.2413
 8508TIP3    H149719   0.806   2.526   4.065 -0.9890  2.1335  1.3391
 8508TIP3    H249720   0.750   2.447   3.949  2.2918 -0.0061  1.0536
 8509TIP3   OH249721   6.351   5.479   4.818 -1.1276 -0.2607 -0.3114
 8509TIP3    H149722   6.301   5.549   4.860  1.1068  1.1861  0.1746
 8509TIP3    H249723   6.419   5.525   4.768 -0.6752 -2.0717 -1.4653
 8510TIP3   OH249724   0.442   6.779   6.088  0.3770 -1.0449  0.4152
 8510TIP3    H149725   0.438   6.776   5.992  0.2336 -0.3109  0.3897
 8510TIP3    H249726   0.529   6.813   6.108  0.8203 -2.2500  0.5799
 8511TIP3   OH249727   0.718   0.878   6.142 -0.0197  0.2346 -0.1686
 8511TIP3    H149728   0.784   0.947   6.135  0.0311  0.3174  0.9316
 8511TIP3    H249729   0.760   0.810   6.194 -0.7098  0.2009  0.3787
 8512TIP3   OH249730   2.044   1.313   6.667  0.7733  0.2321  0.5572
 8512TIP3    H149731   2.006   1.387   6.714  0.5955  0.7489 -0.3584
 8512TIP3    H249732   2.117   1.351   6.618  0.2749 -0.0501 -0.4396
 8513TIP3   OH249733   6.656   1.606   4.376 -0.5511  0.2995 -0.0821
 8513TIP3    H149734   6.703   1.623   4.295 -0.1629  1.9629  0.4551
 8513TIP3    H249735   6.709   1.648   4.444  0.4636 -3.0671  1.4566
 8514TIP3   OH249736   2.178   5.159   4.176 -0.4185  0.4738 -0.2936
 8514TIP3    H149737   2.225   5.108   4.242 -0.6353  0.0008 -0.4992
 8514TIP3    H249738   2.111   5.099   4.144  1.0354 -0.0747 -2.5124
 8515TIP3   OH249739   3.294   5.868   3.869 -0.0989  0.1485 -0.1496
 8515TIP3    H149740   3.230   5.839   3.804 -0.7083  0.5877  0.2465
 8515TIP3    H249741   3.316   5.790   3.919  0.3060 -0.1770 -0.8089
 8516TIP3   OH249742   3.097   4.590   4.738 -0.2466 -0.1326  0.1331
 8516TIP3    H149743   3.155   4.556   4.670  0.2214 -0.9048  0.8925
 8516TIP3    H249744   3.013   4.546   4.721  0.5976 -2.5948  1.6899
 8517TIP3   OH249745   0.224   0.365   5.404 -0.6127  0.6574  0.4539
 8517TIP3    H149746   0.204   0.349   5.497  0.9653 -2.0698  0.4147
 8517TIP3    H249747   0.181   0.293   5.358  1.0447  0.3123 -0.6146
 8518TIP3   OH249748   5.156   0.345   4.425 -0.1872 -0.7424 -0.0352
 8518TIP3    H149749   5.061   0.329   4.418 -0.4215  0.8012 -1.0713
 8518TIP3    H249750   5.162   0.434   4.461  0.9037 -1.1991  0.9506
 8519TIP3   OH249751   3.327   3.053   3.592  0.1138 -0.7360  0.1687
 8519TIP3    H149752   3.413   3.095   3.597  0.1818 -0.7782 -0.6121
 8519TIP3    H249753   3.327   2.989   3.663 -0.1349  0.8231  1.6351
 8520TIP3   OH249754   2.633   6.186   5.760  0.9155 -0.3877  0.4662
 8520TIP3    H149755   2.723   6.170   5.731  0.9505 -1.2016  0.9837
 8520TIP3    H249756   2.642   6.214   5.851  0.7110  0.7361  0.1597
 8521TIP3   OH249757   2.225   2.339   4.968  0.4853 -0.2403  0.1874
 8521TIP3    H149758   2.273   2.318   4.888  1.7506  0.5645  0.6980
 8521TIP3    H249759   2.256   2.427   4.992  0.4011 -0.6122  1.7487
 8522TIP3   OH249760   2.352   7.347   5.017 -0.5265  0.2326 -0.1810
 8522TIP3    H149761   2.313   7.432   4.995 -1.0828  0.5292  1.7386
 8522TIP3    H249762   2.357   7.301   4.933 -1.3866  1.6812 -1.0832
 8523TIP3   OH249763   0.971   7.625   5.689 -0.2597  0.0871  0.0121
 8523TIP3    H149764   1.027   7.548   5.683  0.7118  0.8970 -2.6594
 8523TIP3    H249765   0.901   7.609   5.625  0.7102  1.9424 -1.5928
 8524TIP3   OH249766   6.878   2.161   5.162 -0.4556 -0.2401  0.9745
 8524TIP3    H149767   6.864   2.189   5.072 -0.1788  0.7025  1.2071
 8524TIP3    H249768   6.801   2.109   5.184 -0.0691 -1.2952 -0.1079
 8525TIP3   OH249769   1.563   3.691   4.289 -0.7649 -0.1575  0.4402
 8525TIP3    H149770   1.539   3.667   4.200  1.5736  0.4256 -0.4170
 8525TIP3    H249771   1.590   3.782   4.283  0.1525 -0.3339  1.5794
 8526TIP3   OH249772   2.919   6.955   3.362 -0.5024  0.0596  0.0028
 8526TIP3    H149773   2.908   7.018   3.291  0.1300 -0.5914 -0.6844
 8526TIP3    H249774   2.856   6.983   3.429 -2.4920 -0.4200 -1.5767
 8527TIP3   OH249775   2.327   3.887   5.486 -0.5780 -0.3608 -0.3268
 8527TIP3    H149776   2.354   3.978   5.488 -2.4346  0.3018 -1.9966
 8527TIP3    H249777   2.409   3.838   5.478  0.4829  1.0854  0.9711
 8528TIP3   OH249778   5.031   7.599   5.631  0.5612 -0.0105 -0.1565
 8528TIP3    H149779   5.003   7.550   5.708  1.2480 -1.8288 -1.0319
 8528TIP3    H249780   5.088   7.540   5.583  0.3156  1.1369 -1.9775
 8529TIP3   OH249781   2.799   0.160   6.262 -0.1011  0.0766 -0.1708
 8529TIP3    H149782   2.856   0.218   6.211  0.7612 -0.1346  0.5325
 8529TIP3    H249783   2.760   0.217   6.329 -1.4719  0.4186 -1.2202
 8530TIP3   OH249784   1.852   6.246   3.680  0.1864 -0.1806 -0.4064
 8530TIP3    H149785   1.786   6.276   3.617 -0.0480  1.1130  0.4019
 8530TIP3    H249786   1.918   6.315   3.679 -0.3783  0.4560  1.5588
 8531TIP3   OH249787   0.151   5.711   5.823  0.1375  0.5221 -0.0876
 8531TIP3    H149788   0.245   5.701   5.837  0.3469  0.1414 -1.6552
 8531TIP3    H249789   0.128   5.643   5.760 -0.6740  2.2733 -1.7971
 8532TIP3   OH249790   2.450   0.326   5.194 -0.3386  0.0849 -0.1749
 8532TIP3    H149791   2.362   0.362   5.178  0.8041  3.2783 -0.0930
 8532TIP3    H249792   2.486   0.313   5.106 -0.2310  0.6717 -0.2231
 8533TIP3   OH249793   6.632   5.400   4.062 -0.5214 -0.4751  0.4487
 8533TIP3    H149794   6.588   5.485   4.068  0.1742 -0.0981  0.3510
 8533TIP3    H249795   6.587   5.355   3.990  0.2949  0.5591 -0.7703
 8534TIP3   OH249796   5.213   1.918   5.639 -0.4265 -0.1048 -0.1213
 8534TIP3    H149797   5.184   1.899   5.549  1.7570  0.0685 -0.9108
 8534TIP3    H249798   5.144   1.880   5.694 -1.9664  0.0128 -1.8454
 8535TIP3   OH249799   6.749   0.093   5.615 -0.3526  0.1713 -0.2136
 8535TIP3    H149800   6.749   0.103   5.710 -0.2291  1.7832 -0.3537
 8535TIP3    H249801   6.826   0.141   5.585 -0.1224 -0.6996 -1.1187
 8536TIP3   OH249802   3.037   6.512   4.541  0.2752  0.2435  0.0403
 8536TIP3    H149803   3.071   6.422   4.538 -0.8179 -0.3596  2.7657
 8536TIP3    H249804   3.107   6.562   4.584 -0.1044  0.1358  0.7994
 8537TIP3   OH249805   2.854   0.697   3.792  0.0017  0.5675  0.5629
 8537TIP3    H149806   2.763   0.684   3.818 -0.3299 -0.5190 -1.0316
 8537TIP3    H249807   2.850   0.760   3.721  0.4836  0.3918  0.3754
 8538TIP3   OH249808   2.491   6.570   3.971 -0.1285 -0.5327 -0.2819
 8538TIP3    H149809   2.443   6.640   3.927 -1.5077 -1.4014 -0.2251
 8538TIP3    H249810   2.424   6.520   4.016  0.9902 -1.1037  0.7990
 8539TIP3   OH249811   7.535   4.268   5.814  0.4601 -0.3881  0.0940
 8539TIP3    H149812   7.599   4.250   5.882  1.3640  0.1437 -0.5854
 8539TIP3    H249813   7.586   4.266   5.732 -0.1237  1.3165 -0.3534
 8540TIP3   OH249814   1.065   4.895   5.863  0.4283 -0.4227 -0.1201
 8540TIP3    H149815   1.011   4.846   5.925  0.7218 -0.7771 -0.1413
 8540TIP3    H249816   1.153   4.860   5.875  0.8689  0.8825  0.6583
 8541TIP3   OH249817   1.136   7.034   5.034  0.0801 -0.4304 -0.3709
 8541TIP3    H149818   1.198   7.099   5.067 -0.9043 -0.1344  1.0245
 8541TIP3    H249819   1.188   6.955   5.023  1.0911  0.3204 -1.1115
 8542TIP3   OH249820   5.944   2.395   5.430 -0.6679 -0.0310 -0.0731
 8542TIP3    H149821   5.966   2.485   5.406  2.3230 -0.7311 -0.4272
 8542TIP3    H249822   5.882   2.367   5.363  0.5785  0.9094 -1.7077
 8543TIP3   OH249823   2.410   2.204   4.138 -0.5760  0.5048  0.0157
 8543TIP3    H149824   2.392   2.296   4.159 -2.5222  0.3383 -0.7722
 8543TIP3    H249825   2.478   2.208   4.071 -0.2479  1.3350  0.3796
 8544TIP3   OH249826   0.878   1.747   5.781  0.1724  0.1285  0.4642
 8544TIP3    H149827   0.870   1.737   5.876  1.7402  1.0000  0.7287
 8544TIP3    H249828   0.903   1.839   5.769 -0.2509  0.0947 -0.8185
 8545TIP3   OH249829   4.024   6.981   5.277 -0.3510  0.0697  0.3571
 8545TIP3    H149830   4.086   7.038   5.230 -0.1249 -0.6820 -0.2717
 8545TIP3    H249831   4.076   6.906   5.303 -1.5463 -2.1268 -2.8988
 8546TIP3   OH249832   5.158   6.576   5.466 -0.2846 -0.0847  0.2165
 8546TIP3    H149833   5.184   6.641   5.532  0.6753  0.9392 -1.1046
 8546TIP3    H249834   5.241   6.546   5.428 -0.8304  0.0980 -1.1876
 8547TIP3   OH249835   7.213   6.477   4.624 -0.4854  0.1857  0.1231
 8547TIP3    H149836   7.191   6.540   4.692 -1.7320 -0.2585  0.1617
 8547TIP3    H249837   7.140   6.415   4.624  0.2283 -0.6954 -0.5827
 8548TIP3   OH249838   7.670   7.374   4.720 -0.4580  0.0541 -0.3609
 8548TIP3    H149839   7.590   7.409   4.761 -0.6795 -2.2990  1.4002
 8548TIP3    H249840   7.655   7.385   4.626 -2.4813  0.4572 -0.0411
 8549TIP3   OH249841   6.625   2.828   4.373 -0.1449 -0.1580 -0.1477
 8549TIP3    H149842   6.704   2.852   4.421 -0.2384  0.9914 -0.5325
 8549TIP3    H249843   6.601   2.908   4.325 -1.3512 -0.5931 -0.2967
 8550TIP3   OH249844   0.544   2.537  12.337  0.0916 -0.2444  0.6096
 8550TIP3    H149845   0.539   2.501  12.426 -0.9472  0.7600  0.9774
 8550TIP3    H249846   0.542   2.632  12.350 -2.0382 -0.0840 -0.5833
 8551TIP3   OH249847   4.643   7.480   4.489  0.0010  0.0500 -0.3413
 8551TIP3    H149848   4.587   7.403   4.499  0.7111 -0.2917  1.4293
 8551TIP3    H249849   4.732   7.444   4.490  0.3424  0.8886  0.5753
 8552TIP3   OH249850   2.861   6.569   4.341  0.4512  0.5157  0.1405
 8552TIP3    H149851   2.868   6.659   4.309 -1.5971  0.7340  0.1531
 8552TIP3    H249852   2.937   6.558   4.397  0.8182  2.1979  0.0449
 8553TIP3   OH249853   0.157   7.247   6.082 -0.3285 -0.0317 -0.6759
 8553TIP3    H149854   0.118   7.172   6.036  2.0680 -0.8909 -1.4600
 8553TIP3    H249855   0.187   7.304   6.012 -0.9702  1.0616 -0.0806
 8554TIP3   OH249856   4.097   5.437   4.272 -0.0787 -0.1689  0.2096
 8554TIP3    H149857   4.020   5.463   4.222 -0.3660 -0.3419  0.5582
 8554TIP3    H249858   4.092   5.341   4.275 -0.3191 -0.1304  0.9819
 8555TIP3   OH249859   0.725   6.082   4.233 -0.2215 -0.4613 -0.2640
 8555TIP3    H149860   0.749   5.990   4.233  2.3774  0.0811  1.7407
 8555TIP3    H249861   0.744   6.113   4.145  0.3330 -1.5316 -0.5287
 8556TIP3   OH249862   3.299   3.185   5.778  0.0449 -0.1411  0.4272
 8556TIP3    H149863   3.362   3.194   5.849  0.4578 -0.8528  0.1647
 8556TIP3    H249864   3.271   3.094   5.783 -1.2404  0.2508  0.7574
 8557TIP3   OH249865   2.264   0.666   5.668  0.3812 -0.1148 -0.5308
 8557TIP3    H149866   2.202   0.593   5.666 -0.2714  0.4413 -0.9091
 8557TIP3    H249867   2.265   0.699   5.578  2.6623 -1.2949 -1.0248
 8558TIP3   OH249868   3.332   0.542   4.106  0.6116  0.0485 -0.1083
 8558TIP3    H149869   3.297   0.453   4.110 -0.4746  0.3764 -1.4160
 8558TIP3    H249870   3.295   0.579   4.025  1.0209  1.6849  0.4034
 8559TIP3   OH249871   5.876   2.057   5.536  0.2312  0.4647 -0.3134
 8559TIP3    H149872   5.875   2.127   5.601 -0.9679 -0.4223  0.6611
 8559TIP3    H249873   5.852   2.100   5.454  0.2288  1.3205  0.1270
 8560TIP3   OH249874   2.533   0.291   4.925 -0.1214  0.5628 -0.2571
 8560TIP3    H149875   2.541   0.205   4.884 -2.2232  0.6911 -1.0458
 8560TIP3    H249876   2.575   0.351   4.863 -0.5689  0.3604 -0.7652
 8561TIP3   OH249877   7.565   0.587   4.612  0.6597 -0.3245  0.1360
 8561TIP3    H149878   7.643   0.531   4.616  0.3954 -0.8264 -1.0086
 8561TIP3    H249879   7.552   0.603   4.518  1.5636  2.9204  0.4675
 8562TIP3   OH249880   3.711   2.414  11.342  0.2207  0.5551  0.3823
 8562TIP3    H149881   3.804   2.393  11.348  0.6224  0.2704 -3.7917
 8562TIP3    H249882   3.668   2.329  11.338 -0.4102  0.6741  2.8464
 8563TIP3   OH249883   7.238   6.145   3.530 -0.0462  1.0984  0.1602
 8563TIP3    H149884   7.256   6.216   3.592  0.8784  0.0194  1.1895
 8563TIP3    H249885   7.164   6.098   3.569 -1.4740  2.1563 -1.1406
 8564TIP3   OH249886   7.561   0.283   5.534 -0.3328  0.0661  0.0587
 8564TIP3    H149887   7.648   0.257   5.566  0.7208 -0.1175 -2.6858
 8564TIP3    H249888   7.507   0.289   5.613  1.7540 -1.3979  1.7046
 8565TIP3   OH249889   0.685   1.191   6.565 -0.0163 -0.1875 -0.6081
 8565TIP3    H149890   0.748   1.238   6.621  1.2904 -2.7240  0.2058
 8565TIP3    H249891   0.683   1.242   6.484  0.5744  1.7583  0.5264
 8566TIP3   OH249892   5.416   0.125   4.471  0.4095  0.3050  0.0880
 8566TIP3    H149893   5.368   0.203   4.445 -0.2652 -0.4741 -1.0773
 8566TIP3    H249894   5.454   0.091   4.390 -0.2420 -1.1860  0.3661
 8567TIP3   OH249895   4.174   4.655   5.791 -0.3547 -0.3571  0.1510
 8567TIP3    H149896   4.124   4.705   5.857  0.2924  0.6763 -0.1136
 8567TIP3    H249897   4.122   4.664   5.711 -0.2667 -0.1329  0.1164
 8568TIP3   OH249898   3.054   2.957   5.488  0.0584  0.7447 -0.2718
 8568TIP3    H149899   3.120   3.020   5.517  0.3711 -0.3575  1.5489
 8568TIP3    H249900   3.074   2.877   5.536 -2.4380  0.3051  0.1751
 8569TIP3   OH249901   6.084   4.320   3.851 -0.0945  0.2288 -0.6401
 8569TIP3    H149902   6.161   4.331   3.907  0.5041  1.0692 -1.5949
 8569TIP3    H249903   6.014   4.365   3.897 -0.0425 -0.5655  0.2520
 8570TIP3   OH249904   2.689   5.135   5.245  0.1419  0.1864  0.3767
 8570TIP3    H149905   2.619   5.190   5.208 -0.2891  0.7017  1.8692
 8570TIP3    H249906   2.746   5.197   5.291  0.9815 -0.3593  0.0937
 8571TIP3   OH249907   4.380   2.396   4.635  0.2054 -0.0272  0.7799
 8571TIP3    H149908   4.331   2.414   4.715 -0.4002  0.0029  0.4122
 8571TIP3    H249909   4.314   2.398   4.566  0.3773 -1.9821  0.4934
 8572TIP3   OH249910   4.955   5.650   5.177 -0.0416  0.2060 -0.8004
 8572TIP3    H149911   4.873   5.600   5.166 -0.5585  0.2097  2.2187
 8572TIP3    H249912   5.018   5.585   5.207  0.0799  0.8031  0.2809
 8573TIP3   OH249913   5.620   6.369   3.963 -0.0782 -0.0870  0.0040
 8573TIP3    H149914   5.575   6.329   4.037 -0.9717 -0.2966 -0.6346
 8573TIP3    H249915   5.656   6.296   3.913 -1.6184 -0.1230 -1.1024
 8574TIP3   OH249916   3.123   0.159   4.899  0.0378  0.4775  1.1293
 8574TIP3    H149917   3.218   0.157   4.892  0.0501 -0.2756  1.4333
 8574TIP3    H249918   3.106   0.164   4.994 -0.2292 -1.1237  1.1961
 8575TIP3   OH249919   6.292   1.433   6.018 -0.2688  0.5212  0.0136
 8575TIP3    H149920   6.259   1.356   6.064 -3.3044  1.5878 -0.1547
 8575TIP3    H249921   6.306   1.403   5.928  0.7438 -0.3236  0.4305
 8576TIP3   OH249922   3.961   4.566   4.084  0.0394 -0.0763  0.1315
 8576TIP3    H149923   4.052   4.555   4.111  0.4397  0.1134 -1.0442
 8576TIP3    H249924   3.936   4.481   4.048  0.5231  0.4673 -1.6184
 8577TIP3   OH249925   0.788   2.030   5.255 -0.5731  0.5327 -0.2760
 8577TIP3    H149926   0.725   2.093   5.221 -0.6915  0.8079  0.4228
 8577TIP3    H249927   0.734   1.965   5.301 -0.5054 -0.4502 -1.5452
 8578TIP3   OH249928   1.941   1.162   4.647  0.3245 -0.1381  0.2862
 8578TIP3    H149929   1.960   1.159   4.741  1.0894 -0.2690  0.1345
 8578TIP3    H249930   2.016   1.118   4.606 -0.0422 -0.1531 -0.3783
 8579TIP3   OH249931   1.028   0.904   5.178  0.6693 -0.3351 -0.0245
 8579TIP3    H149932   1.014   0.994   5.148 -1.7509 -0.6513  0.0049
 8579TIP3    H249933   0.960   0.889   5.243  0.6497 -2.3882 -0.4518
 8580TIP3   OH249934   3.909   4.995   5.882 -0.7033  0.6443  0.2748
 8580TIP3    H149935   3.898   4.960   5.794  2.6362  1.2593 -0.5424
 8580TIP3    H249936   3.908   4.918   5.939 -0.3614 -0.0621 -0.6486
 8581TIP3   OH249937   2.464   0.046   6.699  0.1078  0.2357 -0.6864
 8581TIP3    H149938   2.389   0.028   6.757  1.1316  0.2402  0.6955
 8581TIP3    H249939   2.467   0.141   6.692  1.7357  0.4831  1.8062
 8582TIP3   OH249940   6.817   5.787   4.687  0.0487  0.1452  0.0159
 8582TIP3    H149941   6.897   5.803   4.738  2.1341 -1.3470 -2.5321
 8582TIP3    H249942   6.834   5.705   4.641 -1.8524  1.1389 -2.7099
 8583TIP3   OH249943   6.394   2.635   4.041  0.4522  0.2909  0.5932
 8583TIP3    H149944   6.366   2.623   3.950 -0.0859 -0.2291  0.8233
 8583TIP3    H249945   6.324   2.688   4.080 -0.6516 -1.6633  1.3761
 8584TIP3   OH249946   3.894   7.448   5.739  0.5634  0.4598  0.4347
 8584TIP3    H149947   3.878   7.354   5.736 -1.0679  0.6615  1.6402
 8584TIP3    H249948   3.988   7.456   5.757  0.7850 -0.9058 -0.0219
 8585TIP3   OH249949   6.330   3.263   6.199 -0.1894  0.4916  0.3782
 8585TIP3    H149950   6.381   3.226   6.272  0.9747  0.9331 -0.1784
 8585TIP3    H249951   6.257   3.203   6.188 -0.5577  0.5741  2.1002
 8586TIP3   OH249952   1.123   5.247   6.099 -0.3195  0.4061  0.2068
 8586TIP3    H149953   1.107   5.154   6.112 -0.4157  0.3397 -0.3351
 8586TIP3    H249954   1.037   5.285   6.086 -0.3047  0.6246  0.7241
 8587TIP3   OH249955   5.954   7.163   4.403 -0.5750 -0.0504  0.4304
 8587TIP3    H149956   5.947   7.076   4.363  2.1096  0.2638 -1.0195
 8587TIP3    H249957   6.008   7.150   4.480  1.4846  0.4879 -0.8274
 8588TIP3   OH249958   1.277   4.645   5.645  0.4081 -0.3399  0.3509
 8588TIP3    H149959   1.281   4.670   5.737 -1.6360  1.0347  0.1405
 8588TIP3    H249960   1.292   4.726   5.597  3.6602 -1.4169 -0.6622
 8589TIP3   OH249961   7.384   1.704   5.721  0.7358 -0.6199 -0.3211
 8589TIP3    H149962   7.360   1.795   5.703 -0.2516 -1.1490 -1.8276
 8589TIP3    H249963   7.331   1.652   5.661 -0.5662 -2.3860  2.1743
 8590TIP3   OH249964   0.766   6.407   4.999 -0.2782  0.2086  0.3478
 8590TIP3    H149965   0.812   6.474   4.947 -0.5909  0.1527 -0.0113
 8590TIP3    H249966   0.821   6.395   5.076  1.1295 -0.9700 -0.7791
 8591TIP3   OH249967   3.568   1.241   3.853  0.1069  0.3138 -0.3534
 8591TIP3    H149968   3.644   1.276   3.806 -1.4356  0.5174 -2.8554
 8591TIP3    H249969   3.593   1.151   3.874  1.5255  0.7857  0.0963
 8592TIP3   OH249970   5.481   0.238   5.485  0.5637 -0.0059  0.7572
 8592TIP3    H149971   5.392   0.272   5.470  0.3380 -0.1243  1.7715
 8592TIP3    H249972   5.532   0.273   5.412  0.0123  1.3311  0.9790
 8593TIP3   OH249973   7.281   1.346   3.972  0.0553 -0.4438  0.1174
 8593TIP3    H149974   7.339   1.282   3.930  0.1991  0.3147 -0.8923
 8593TIP3    H249975   7.208   1.295   4.005 -0.3863 -1.0228 -1.6619
 8594TIP3   OH249976   5.942   6.909   5.861 -0.6472 -0.1076 -0.4547
 8594TIP3    H149977   5.976   6.995   5.887 -2.9884  0.7449  0.0186
 8594TIP3    H249978   5.920   6.919   5.768  1.1991 -0.9675 -1.0302
 8595TIP3   OH249979   1.500   5.920   5.560  0.2471 -0.2677  0.3869
 8595TIP3    H149980   1.576   5.863   5.562  0.0924 -0.5449 -0.7168
 8595TIP3    H249981   1.426   5.862   5.581 -0.1010 -0.8756 -2.1758
 8596TIP3   OH249982   0.452   6.849   4.469  0.3017  0.2791 -0.3316
 8596TIP3    H149983   0.393   6.789   4.423 -0.9608  1.3363 -0.1480
 8596TIP3    H249984   0.427   6.843   4.561 -0.7209  1.9905 -0.4617
 8597TIP3   OH249985   4.723   5.288   4.067 -0.0844 -0.2639 -0.0565
 8597TIP3    H149986   4.678   5.232   4.004 -0.1424 -0.1952 -0.0768
 8597TIP3    H249987   4.790   5.232   4.106  0.9188  0.0729 -1.2180
 8598TIP3   OH249988   3.253   3.469   4.020  0.6512 -0.9330  0.0319
 8598TIP3    H149989   3.331   3.513   3.987  1.2699  0.4209  2.9650
 8598TIP3    H249990   3.230   3.517   4.101  0.2371 -4.7843  2.4602
 8599TIP3   OH249991   6.715   0.494   4.985 -0.2126 -0.2786  0.1608
 8599TIP3    H149992   6.656   0.526   5.053 -0.2859 -0.1865  0.0545
 8599TIP3    H249993   6.796   0.544   4.999  0.6734 -2.0118  1.7618
 8600TIP3   OH249994   6.100   3.711   3.843 -0.0850  0.4343  0.8314
 8600TIP3    H149995   6.145   3.734   3.762 -0.3174  0.8159  0.8103
 8600TIP3    H249996   6.147   3.634   3.875  1.3506  1.5109  1.4229
 8601TIP3   OH249997   6.987   1.121   5.611  0.4752  0.5876 -0.2117
 8601TIP3    H149998   6.928   1.159   5.677 -0.5408 -1.5620  0.1906
 8601TIP3    H249999   6.953   1.153   5.528  0.1786  1.2274  0.1446
 8602TIP3   OH250000   4.304   3.709   5.646  0.3477 -0.5696  0.0900
 8602TIP3    H150001   4.321   3.798   5.617 -3.4156  0.3763  0.2676
 8602TIP3    H250002   4.321   3.711   5.741  0.9517 -0.2339 -0.0254
 8603TIP3   OH250003   6.849   3.697   5.299 -0.6200  0.2532  0.1421
 8603TIP3    H150004   6.804   3.657   5.373  2.0879  0.5238  2.0957
 8603TIP3    H250005   6.851   3.791   5.320  0.5818  0.2807  0.0018
 8604TIP3   OH250006   6.875   4.855   5.316  0.1076 -0.4908  0.1419
 8604TIP3    H150007   6.937   4.874   5.246  0.2159  0.8319  0.5649
 8604TIP3    H250008   6.916   4.892   5.395 -1.4196  0.9245  0.3407
 8605TIP3   OH250009   2.167   2.766   5.575 -0.1894 -0.0444  0.6590
 8605TIP3    H150010   2.206   2.712   5.506 -0.3540  0.9027 -0.1902
 8605TIP3    H250011   2.233   2.832   5.595 -0.4585  0.1749  0.8390
 8606TIP3   OH250012   3.199   0.032   6.290  0.1563  0.3267 -0.0741
 8606TIP3    H150013   3.121  -0.005   6.331  0.7974  0.5049  1.3702
 8606TIP3    H250014   3.271   0.009   6.350  1.3633 -0.5173 -1.7440
 8607TIP3   OH250015   1.102   5.191   4.797 -0.0828 -0.4977 -0.4923
 8607TIP3    H150016   1.038   5.136   4.843 -0.6237 -0.5993 -1.3457
 8607TIP3    H250017   1.182   5.181   4.848 -0.2003 -1.9720 -0.5511
 8608TIP3   OH250018   0.033   4.054   3.940 -0.2937  0.1159 -0.2161
 8608TIP3    H150019   0.012   4.040   4.033 -1.5635  2.8278 -0.0065
 8608TIP3    H250020  -0.025   3.993   3.894 -1.9309  0.8991  0.7164
 8609TIP3   OH250021   0.566   7.623   5.846  0.6611 -0.5529 -0.3156
 8609TIP3    H150022   0.476   7.633   5.879  0.8266 -1.4836  0.4644
 8609TIP3    H250023   0.561   7.551   5.784  0.9671 -0.9660  0.1354
 8610TIP3   OH250024   5.930   1.339   4.586  0.0096  0.0420  0.0093
 8610TIP3    H150025   5.953   1.368   4.498  0.8443  1.1586  0.5659
 8610TIP3    H250026   5.984   1.261   4.601 -0.1517 -0.1638 -0.4633
 8611TIP3   OH250027   3.039   3.013   3.961 -0.0254 -0.2254  0.5757
 8611TIP3    H150028   3.047   3.106   3.942  2.7815 -0.5536 -0.2931
 8611TIP3    H250029   3.089   3.000   4.041  0.9889 -1.1841 -0.1745
 8612TIP3   OH250030   0.169   3.798   6.000 -0.7538  0.5363 -0.2890
 8612TIP3    H150031   0.194   3.872   6.056  1.4494  0.2561 -0.7900
 8612TIP3    H250032   0.237   3.796   5.933 -0.1243 -2.6034  0.3156
 8613TIP3   OH250033   0.194   2.587   5.575  0.7688 -0.2082  0.2376
 8613TIP3    H150034   0.211   2.499   5.541  2.0009  0.6561 -1.5774
 8613TIP3    H250035   0.177   2.640   5.497 -1.1658  0.9619  1.3773
 8614TIP3   OH250036   7.636   1.085   5.269 -0.2258  0.0842 -0.4474
 8614TIP3    H150037   7.596   0.999   5.277 -2.0375  1.0316  1.8138
 8614TIP3    H250038   7.575   1.145   5.312  1.4304  2.3778 -1.0483
 8615TIP3   OH250039   2.922   1.461   6.179  0.0025 -0.3116 -0.3208
 8615TIP3    H150040   2.917   1.382   6.233  0.6766 -0.0584  0.1275
 8615TIP3    H250041   2.865   1.524   6.224  1.3213  0.2168  0.6753
 8616TIP3   OH250042   2.571   1.426   4.522  0.0858  0.1261  0.0396
 8616TIP3    H150043   2.505   1.385   4.466 -0.1747  0.7089 -0.0858
 8616TIP3    H250044   2.560   1.384   4.607 -0.1686 -0.0760 -0.0911
 8617TIP3   OH250045   2.005   2.400   4.781 -0.0064  0.0282 -0.1013
 8617TIP3    H150046   2.073   2.384   4.845  1.1980  2.6108 -0.5876
 8617TIP3    H250047   2.052   2.412   4.698 -1.0019  1.5515 -0.5074
 8618TIP3   OH250048   1.707   2.840   5.794  0.0653 -0.1272  0.3270
 8618TIP3    H150049   1.726   2.888   5.874 -0.0176 -0.5260  0.5899
 8618TIP3    H250050   1.794   2.818   5.758  0.1045 -0.5368  0.6672
 8619TIP3   OH250051   3.989   1.749   5.704 -0.3551 -0.0621 -0.0033
 8619TIP3    H150052   3.949   1.818   5.758  2.4955  1.7062  0.0278
 8619TIP3    H250053   3.947   1.758   5.619 -1.1156  0.6704  0.4263
 8620TIP3   OH250054   6.504   3.282   6.003  0.1338  0.1019  0.6310
 8620TIP3    H150055   6.434   3.281   6.067  0.7697  0.3208  1.3395
 8620TIP3    H250056   6.584   3.292   6.054  0.5130  2.7558 -0.2857
 8621TIP3   OH250057   4.956   4.849   6.756 -0.0426  0.5034  0.6719
 8621TIP3    H150058   4.926   4.856   6.666  1.5090 -1.0273 -0.0391
 8621TIP3    H250059   4.878   4.829   6.807 -1.3082  3.4372  0.0609
 8622TIP3   OH250060   6.241   4.750   5.756 -0.2481 -0.0878  0.5139
 8622TIP3    H150061   6.296   4.674   5.733 -0.5894 -0.4787  0.9799
 8622TIP3    H250062   6.151   4.719   5.744 -0.3936  0.8646 -1.2712
 8623TIP3   OH250063   7.487   7.671   6.230  0.7580 -0.3692  0.1216
 8623TIP3    H150064   7.528   7.619   6.299  0.1511 -0.1337  0.6701
 8623TIP3    H250065   7.399   7.633   6.221  0.5180  0.1887  0.1176
 8624TIP3   OH250066   4.381   3.882   5.066  0.3221  0.0044 -0.5247
 8624TIP3    H150067   4.465   3.838   5.062 -0.2981 -1.6773  2.2504
 8624TIP3    H250068   4.318   3.818   5.031 -0.0672  0.4816 -0.7184
 8625TIP3   OH250069   3.443   6.266   5.572  0.4376 -0.1985  0.4342
 8625TIP3    H150070   3.488   6.260   5.488 -0.4240 -0.3341 -0.0289
 8625TIP3    H250071   3.371   6.203   5.565  0.8927 -0.8888  1.6224
 8626TIP3   OH250072   1.002   3.563   4.039 -0.0660 -0.4103  0.4977
 8626TIP3    H150073   1.031   3.472   4.040 -0.4042 -0.5634 -1.0914
 8626TIP3    H250074   0.910   3.559   4.065 -0.0157 -0.4902  0.6675
 8627TIP3   OH250075   6.310   7.195   6.535  1.0329 -0.2517  0.1598
 8627TIP3    H150076   6.384   7.151   6.494  2.4635  1.0884  1.2018
 8627TIP3    H250077   6.323   7.288   6.517  0.5411  0.1730  1.7875
 8628TIP3   OH250078   1.790   6.877   3.878  0.6390 -0.0900  0.5914
 8628TIP3    H150079   1.811   6.834   3.961 -0.2836  0.3743  1.0858
 8628TIP3    H250080   1.867   6.863   3.823  0.9338 -1.1333  1.2318
 8629TIP3   OH250081   2.708   4.412   4.284 -0.2710  0.1794 -0.2171
 8629TIP3    H150082   2.635   4.375   4.235 -1.1612  0.9503  0.4806
 8629TIP3    H250083   2.771   4.341   4.291 -1.5497 -0.9488  0.3225
 8630TIP3   OH250084   6.024   6.772   5.584 -0.5915 -0.3531 -0.0342
 8630TIP3    H150085   6.073   6.788   5.504 -2.3704 -2.0623 -1.5745
 8630TIP3    H250086   5.950   6.717   5.556 -0.8019 -1.7457  2.9362
 8631TIP3   OH250087   4.700   2.438   6.160 -0.4475  0.0383  0.1530
 8631TIP3    H150088   4.749   2.486   6.094  1.0394  0.9062  1.8029
 8631TIP3    H250089   4.754   2.361   6.178 -2.0127 -1.4984 -1.2879
 8632TIP3   OH250090   6.139   5.617   6.384  0.1696  0.4040  0.1800
 8632TIP3    H150091   6.106   5.529   6.402 -0.4024  0.3388 -1.1125
 8632TIP3    H250092   6.150   5.620   6.289 -1.7661  2.3771 -0.0690
 8633TIP3   OH250093   3.546   7.297   6.516 -0.7123 -0.0884 -0.0174
 8633TIP3    H150094   3.558   7.211   6.477  0.0133  0.1008 -0.2308
 8633TIP3    H250095   3.471   7.286   6.575 -0.7850 -0.7969 -0.2288
 8634TIP3   OH250096   0.341   6.316   6.693  0.4933  0.3811  0.0558
 8634TIP3    H150097   0.299   6.237   6.728 -0.8600  1.3572  0.7336
 8634TIP3    H250098   0.421   6.326   6.744 -0.3150  0.5198  1.3339
 8635TIP3   OH250099   0.917   4.895   5.613  0.3323 -0.1813 -0.1467
 8635TIP3    H150100   0.965   4.887   5.695 -0.6082 -2.0012  0.2678
 8635TIP3    H250101   0.890   4.806   5.592  1.7085  0.0072 -3.1762
 8636TIP3   OH250102   2.530   3.688   5.438 -0.0029  0.7784  0.1941
 8636TIP3    H150103   2.556   3.636   5.362 -1.2735  1.1784 -0.5383
 8636TIP3    H250104   2.609   3.693   5.492  1.0688  0.9419 -1.3453
 8637TIP3   OH250105   4.444   1.775   4.462  0.4656  0.0587 -0.1786
 8637TIP3    H150106   4.364   1.746   4.506  0.1436  0.2729 -0.6192
 8637TIP3    H250107   4.429   1.757   4.369  0.5049  1.0759 -0.3941
 8638TIP3   OH250108   2.883   3.567   4.858 -0.9743 -0.1978 -0.2996
 8638TIP3    H150109   2.907   3.554   4.766  0.7379  1.1420 -0.0980
 8638TIP3    H250110   2.957   3.529   4.907 -1.4283 -0.0600  0.4997
 8639TIP3   OH250111   0.561   4.336   6.015 -0.0680 -0.4565 -0.3552
 8639TIP3    H150112   0.620   4.261   6.026 -0.5494 -0.8389 -0.3124
 8639TIP3    H250113   0.614   4.403   5.973  1.0739  0.0389  1.7427
 8640TIP3   OH250114   4.629   6.135   4.454  0.2310 -0.6280 -0.4378
 8640TIP3    H150115   4.713   6.113   4.493 -0.4560 -0.3718  1.2456
 8640TIP3    H250116   4.649   6.153   4.362  1.9379 -0.9377 -0.1470
 8641TIP3   OH250117   3.300   1.220   3.921  0.2110  0.1313  0.3773
 8641TIP3    H150118   3.392   1.230   3.897  0.1253 -1.3542 -0.7107
 8641TIP3    H250119   3.261   1.306   3.903  1.3371  0.7336  0.7249
 8642TIP3   OH250120   6.223   2.890   4.773  0.0427  0.1602 -0.4403
 8642TIP3    H150121   6.314   2.916   4.760 -0.3120  1.3295 -0.7242
 8642TIP3    H250122   6.176   2.973   4.783 -0.9708 -0.4329 -0.1576
 8643TIP3   OH250123   3.677   1.898   4.414  0.0000  0.3038  0.5030
 8643TIP3    H150124   3.684   1.815   4.461 -1.6143  0.2981  0.8006
 8643TIP3    H250125   3.693   1.965   4.480  1.7459  0.2622  0.1719
 8644TIP3   OH250126   6.152   5.241   4.585  0.1212 -0.6479  0.1426
 8644TIP3    H150127   6.151   5.232   4.681 -0.1121  0.4921  0.2615
 8644TIP3    H250128   6.139   5.335   4.570 -0.2739 -0.8773 -1.0199
 8645TIP3   OH250129   4.450   4.290   5.182 -0.7319  0.5209 -0.4947
 8645TIP3    H150130   4.420   4.322   5.097  0.4555  2.6984 -0.1955
 8645TIP3    H250131   4.534   4.335   5.196 -0.1100 -1.0063  1.1307
 8646TIP3   OH250132   7.440   0.973   4.656  0.0847  0.3593  0.1543
 8646TIP3    H150133   7.443   1.039   4.726 -0.4309  1.1772 -0.5761
 8646TIP3    H250134   7.433   0.890   4.702  2.0697  0.6921  1.1342
 8647TIP3   OH250135   5.292   4.000   6.203 -0.0613 -0.4295  0.5719
 8647TIP3    H150136   5.279   4.081   6.252  0.9456 -0.6396  1.2330
 8647TIP3    H250137   5.387   3.995   6.190 -0.3102 -0.3450 -1.5021
 8648TIP3   OH250138   4.144   0.668   4.164 -0.3007 -0.4850  0.2230
 8648TIP3    H150139   4.166   0.589   4.212 -0.4926  1.1393  3.2481
 8648TIP3    H250140   4.130   0.735   4.231 -0.5671  2.0548 -2.1231
 8649TIP3   OH250141   1.659   1.087   5.374  0.0268 -0.2936 -0.2173
 8649TIP3    H150142   1.639   1.004   5.331 -0.8708  0.4517 -1.3214
 8649TIP3    H250143   1.593   1.096   5.443  0.9891 -1.1262  0.8493
 8650TIP3   OH250144   4.679   3.782   3.830 -0.6511  0.1162  0.7501
 8650TIP3    H150145   4.606   3.815   3.881 -0.1051  1.1311  0.9057
 8650TIP3    H250146   4.649   3.697   3.797 -1.6258  0.2001  1.3762
 8651TIP3   OH250147   4.277   0.324   5.739 -0.6101 -0.7335  0.1133
 8651TIP3    H150148   4.222   0.246   5.745 -0.2648 -0.8857  1.5290
 8651TIP3    H250149   4.337   0.317   5.813  1.5137 -0.7082 -1.4975
 8652TIP3   OH250150   3.058   1.049   4.811  0.2625 -0.8209 -0.1095
 8652TIP3    H150151   3.105   0.993   4.872  0.0219 -0.4145  0.4604
 8652TIP3    H250152   3.118   1.122   4.795  0.1665 -0.7283 -0.0473
 8653TIP3   OH250153   0.302   4.967   4.760 -0.2622 -0.1943  0.0509
 8653TIP3    H150154   0.249   4.888   4.768 -0.8229  0.1880  0.1551
 8653TIP3    H250155   0.366   4.946   4.692 -1.2691 -0.2655 -0.9100
 8654TIP3   OH250156   2.549   0.032   6.235  0.6052 -0.6707  0.0728
 8654TIP3    H150157   2.472   0.013   6.289  0.2540 -0.0365 -0.1878
 8654TIP3    H250158   2.623   0.030   6.295  0.2461 -0.1987  0.5378
 8655TIP3   OH250159   2.772   0.894   5.114 -0.2103  0.5493 -0.9291
 8655TIP3    H150160   2.788   0.986   5.135 -1.6012  0.3633  1.2703
 8655TIP3    H250161   2.742   0.856   5.196 -0.0435 -1.7966 -1.8960
 8656TIP3   OH250162   5.490   6.500   4.470 -0.0492  0.0131  0.1100
 8656TIP3    H150163   5.408   6.456   4.494 -0.6770  1.1052  0.0278
 8656TIP3    H250164   5.471   6.593   4.479  0.9525  0.3119 -0.6628
 8657TIP3   OH250165   3.228   6.909   5.709  0.1288  0.1058 -0.1610
 8657TIP3    H150166   3.247   6.943   5.621  0.9289  0.9687  0.3286
 8657TIP3    H250167   3.225   6.987   5.765 -1.1104 -0.3651  0.4665
 8658TIP3   OH250168   5.226   4.290   4.514 -0.2191  0.2294 -0.5331
 8658TIP3    H150169   5.158   4.223   4.506  0.0462 -0.1129 -0.0103
 8658TIP3    H250170   5.202   4.339   4.592  0.3606 -0.1649 -0.0967
 8659TIP3   OH250171   6.072   1.589   5.267 -0.3974  0.3560  0.1530
 8659TIP3    H150172   6.159   1.627   5.260 -0.8336  1.5741  1.0032
 8659TIP3    H250173   6.017   1.645   5.212 -1.0335  0.9378  1.3456
 8660TIP3   OH250174   1.412   4.388   5.987  0.3473  0.1820 -0.8611
 8660TIP3    H150175   1.440   4.386   5.895  0.3907 -0.0972 -0.8431
 8660TIP3    H250176   1.484   4.348   6.035  1.3267  2.3572 -0.4244
 8661TIP3   OH250177   5.924   6.808   4.723  0.1317  0.4312  0.1952
 8661TIP3    H150178   6.012   6.832   4.694  0.5556  0.3414  1.3778
 8661TIP3    H250179   5.899   6.735   4.666  0.5124  0.9332 -0.6390
 8662TIP3   OH250180   4.943   7.230   6.232 -0.2073 -0.6787  0.7521
 8662TIP3    H150181   4.861   7.263   6.270 -1.1382 -1.0361 -0.8473
 8662TIP3    H250182   4.992   7.197   6.307 -0.4356  1.7345  2.0843
 8663TIP3   OH250183   1.460   5.028   6.283  0.0524 -0.3813  0.1882
 8663TIP3    H150184   1.493   5.114   6.307 -0.6271 -0.0882  0.0859
 8663TIP3    H250185   1.535   4.969   6.295 -0.0231 -0.1324  2.2808
 8664TIP3   OH250186   0.293   6.269   4.210 -0.6423  0.1774 -0.2804
 8664TIP3    H150187   0.241   6.192   4.235  0.6100  0.0894  2.3600
 8664TIP3    H250188   0.279   6.277   4.116 -0.6894 -3.4008 -0.7272
 8665TIP3   OH250189   2.158   0.143   4.944  0.1173  0.1727 -0.3512
 8665TIP3    H150190   2.089   0.130   5.008  0.2134  0.9639 -0.0718
 8665TIP3    H250191   2.171   0.238   4.942  1.8832 -0.0076  0.3466
 8666TIP3   OH250192   1.911   6.618   6.025 -0.0584  0.0398  0.6402
 8666TIP3    H150193   1.977   6.549   6.013  0.8193  0.9889 -0.2014
 8666TIP3    H250194   1.962   6.694   6.054 -0.2516  1.6692 -2.7828
 8667TIP3   OH250195   1.199   7.652   3.911 -0.6219  0.0879  0.2708
 8667TIP3    H150196   1.123   7.630   3.965 -1.6789  1.2917 -0.6597
 8667TIP3    H250197   1.163   7.709   3.842  1.0368  0.2391 -0.5002
 8668TIP3   OH250198   5.714   5.194   5.432  0.2350 -0.2477  0.7430
 8668TIP3    H150199   5.716   5.136   5.355  0.6612 -0.1963  0.7138
 8668TIP3    H250200   5.687   5.279   5.397  0.5335 -0.1986  0.6337
 8669TIP3   OH250201   4.951   0.277   4.916 -0.3163 -0.8541 -0.2104
 8669TIP3    H150202   4.910   0.253   4.833 -1.3141 -1.7472  0.5140
 8669TIP3    H250203   4.986   0.365   4.901 -0.4467 -1.0087 -1.5760
 8670TIP3   OH250204   0.523   0.261   4.542  0.2134 -0.0393  0.4281
 8670TIP3    H150205   0.603   0.208   4.548 -1.1566 -2.4921 -1.4395
 8670TIP3    H250206   0.452   0.199   4.554 -1.5015  2.1316  2.3726
 8671TIP3   OH250207   5.524   0.769   4.906 -0.0389  0.8098  0.2595
 8671TIP3    H150208   5.495   0.811   4.988 -1.0142 -0.0522  0.3699
 8671TIP3    H250209   5.549   0.681   4.932 -0.4465  0.5002 -0.3813
 8672TIP3   OH250210   4.912   1.940   4.264 -0.0146  0.0625 -0.2257
 8672TIP3    H150211   4.954   1.997   4.328  2.4832 -0.4796 -1.2873
 8672TIP3    H250212   4.945   1.853   4.282 -0.5202 -0.3655 -1.2486
 8673TIP3   OH250213   3.289   0.909   5.894  0.4579  0.0512  0.1881
 8673TIP3    H150214   3.382   0.916   5.873  0.6161 -0.4918  0.6736
 8673TIP3    H250215   3.251   0.992   5.865  1.3206  0.7988  1.1327
 8674TIP3   OH250216   6.583   2.609   4.591  0.0830  0.4512 -0.3900
 8674TIP3    H150217   6.589   2.525   4.637 -1.1996  0.8985  0.6626
 8674TIP3    H250218   6.620   2.591   4.504 -0.7242 -1.3794 -0.4204
 8675TIP3   OH250219   5.370   5.839   5.631 -0.0510 -0.1523 -0.2717
 8675TIP3    H150220   5.372   5.779   5.706 -0.9637  1.3315  1.0127
 8675TIP3    H250221   5.453   5.824   5.586 -0.0730 -2.0424  0.2501
 8676TIP3   OH250222   1.843   4.812   5.187 -0.5359  0.5284  0.2044
 8676TIP3    H150223   1.817   4.881   5.248  0.1860 -0.2800  1.4734
 8676TIP3    H250224   1.760   4.779   5.152 -0.9285  1.4422  0.2450
 8677TIP3   OH250225   6.428   2.456   5.983 -0.0617 -0.2188 -0.0836
 8677TIP3    H150226   6.366   2.498   6.043  0.7910 -0.9226  1.3579
 8677TIP3    H250227   6.375   2.394   5.933 -0.7829  0.3387 -0.0252
 8678TIP3   OH250228   0.921   2.220   4.791 -0.5676 -0.4622  0.3288
 8678TIP3    H150229   1.014   2.216   4.813 -0.3631  0.1571 -0.3606
 8678TIP3    H250230   0.897   2.311   4.809 -1.1280 -0.7079  0.8249
 8679TIP3   OH250231   6.838   6.074   6.000  0.3231 -0.1680  0.1858
 8679TIP3    H150232   6.813   6.158   6.039  0.9922 -0.1412  0.5813
 8679TIP3    H250233   6.934   6.074   6.002  0.3615 -0.3409 -1.1174
 8680TIP3   OH250234   7.231   5.921   6.289 -0.3308  0.3562  0.1222
 8680TIP3    H150235   7.299   5.863   6.321 -0.0069  0.2838 -0.6797
 8680TIP3    H250236   7.231   5.994   6.351  0.1801  0.1514  0.3708
 8681TIP3   OH250237   6.975   5.616   6.496  0.2965 -0.3581  0.1453
 8681TIP3    H150238   6.883   5.636   6.512  0.5798 -0.0320  1.5159
 8681TIP3    H250239   6.995   5.661   6.414 -0.8227 -0.6567 -0.3126
 8682TIP3   OH250240   0.895   0.256   5.435  0.2450  0.0411  0.0742
 8682TIP3    H150241   0.868   0.166   5.458  0.5446 -0.0650  0.0156
 8682TIP3    H250242   0.831   0.284   5.371 -0.0697  0.0042  0.3680
 8683TIP3   OH250243   0.589   7.024   4.288  0.3090  0.1474  0.1111
 8683TIP3    H150244   0.512   6.984   4.330  1.5516 -4.3018 -1.2526
 8683TIP3    H250245   0.566   7.027   4.195  1.1955  0.3433 -0.1044
 8684TIP3   OH250246   2.710   3.637   5.630  1.2064  0.3198  0.1491
 8684TIP3    H150247   2.791   3.602   5.594  1.0526  0.3703 -0.2596
 8684TIP3    H250248   2.683   3.574   5.696  1.3749  0.1053  0.0132
 8685TIP3   OH250249   1.550   2.736   5.567 -0.2159  0.4182  0.1556
 8685TIP3    H150250   1.538   2.643   5.583 -0.8130  0.4664  0.0150
 8685TIP3    H250251   1.589   2.771   5.647  0.7383 -0.0836 -0.0705
 8686TIP3   OH250252   5.647   7.241   3.901 -0.5157 -0.3598 -0.2225
 8686TIP3    H150253   5.568   7.295   3.896 -0.0073  0.4408  0.0669
 8686TIP3    H250254   5.620   7.155   3.872 -0.7390  0.7013 -3.5549
 8687TIP3   OH250255   7.218   1.847   6.086  0.1531  0.1159  0.5330
 8687TIP3    H150256   7.237   1.901   6.163  0.2466  1.9102 -0.7117
 8687TIP3    H250257   7.298   1.850   6.034  1.1717 -3.4027  1.5667
 8688TIP3   OH250258   1.069   4.539   3.983 -0.1372 -0.5669  0.2054
 8688TIP3    H150259   1.098   4.450   3.963 -0.1911 -0.6936  0.6581
 8688TIP3    H250260   0.997   4.555   3.923  1.4170  0.0946 -1.5596
 8689TIP3   OH250261   7.675   0.944   5.566  0.3303 -0.1687  0.2780
 8689TIP3    H150262   7.637   0.884   5.630  0.0679  0.7968  1.0423
 8689TIP3    H250263   7.612   0.945   5.494  0.8531 -1.6246 -0.2409
 8690TIP3   OH250264   5.451   6.605   5.885 -0.3285  0.1879  0.0388
 8690TIP3    H150265   5.378   6.553   5.920 -1.4721  0.5249 -1.7192
 8690TIP3    H250266   5.496   6.545   5.826  0.5006  0.1706  0.6630
 8691TIP3   OH250267   2.106   5.380   4.045  0.0018  0.3323 -0.0439
 8691TIP3    H150268   2.175   5.442   4.068 -0.0298 -0.0345  1.1380
 8691TIP3    H250269   2.140   5.295   4.076 -0.8019  0.0915  0.1956
 8692TIP3   OH250270   1.726   6.161   4.935 -0.2939  0.1018 -0.1570
 8692TIP3    H150271   1.793   6.178   4.869 -0.0007  0.3659  0.2025
 8692TIP3    H250272   1.711   6.067   4.931  1.2492 -0.2278  0.8483
 8693TIP3   OH250273   1.227   3.019   6.331  0.5323 -0.1440 -0.3876
 8693TIP3    H150274   1.271   3.041   6.413 -1.7864  2.2826  0.3446
 8693TIP3    H250275   1.235   3.098   6.278 -0.4030 -0.6959 -1.3751
 8694TIP3   OH250276   4.683   2.508   5.295  0.1048 -0.5714 -0.8089
 8694TIP3    H150277   4.721   2.593   5.274 -1.3321 -0.2880 -2.5874
 8694TIP3    H250278   4.681   2.461   5.211 -0.8624 -1.6029 -0.2416
 8695TIP3   OH250279   0.334   2.131   5.623  0.2691 -0.4078 -0.2832
 8695TIP3    H150280   0.420   2.117   5.664  0.7064  0.3278 -0.9237
 8695TIP3    H250281   0.319   2.053   5.571 -0.4875 -1.5654  1.5576
 8696TIP3   OH250282   7.188   0.029   4.619 -0.4829 -0.2441  0.3092
 8696TIP3    H150283   7.279   0.023   4.591 -0.0848  2.8667  0.6228
 8696TIP3    H250284   7.190   0.010   4.712 -0.3342 -1.0794  0.1464
 8697TIP3   OH250285   1.677   0.734   4.670  0.3274 -0.0293 -0.3997
 8697TIP3    H150286   1.686   0.658   4.728  1.2443  0.7336  0.5205
 8697TIP3    H250287   1.747   0.724   4.606 -0.0196 -0.3300 -0.7369
 8698TIP3   OH250288   3.146   0.830   6.140  0.5541  0.2795  0.0119
 8698TIP3    H150289   3.180   0.909   6.181  1.1797  0.4902 -0.8866
 8698TIP3    H250290   3.193   0.824   6.057 -2.0439  0.9231 -1.6037
 8699TIP3   OH250291   6.537   7.634   5.908  0.2213 -0.6737  0.1617
 8699TIP3    H150292   6.524   7.559   5.966  0.3393 -1.4662 -0.8183
 8699TIP3    H250293   6.632   7.648   5.908  0.0334  2.1365  3.5818
 8700TIP3   OH250294   2.633   2.143   4.770 -0.1491 -0.3522 -0.4142
 8700TIP3    H150295   2.592   2.163   4.854 -1.0083  0.1111 -0.9303
 8700TIP3    H250296   2.562   2.108   4.716 -0.3619  2.0760 -1.8885
 8701TIP3   OH250297   6.792   4.151   4.479  0.0879 -0.1873  0.2179
 8701TIP3    H150298   6.744   4.167   4.398  1.8289  2.3421 -0.4308
 8701TIP3    H250299   6.881   4.130   4.449  1.7061  4.1366  1.3352
 8702TIP3   OH250300   4.992   4.666   4.484 -0.2008 -0.4154 -0.0482
 8702TIP3    H150301   5.036   4.650   4.401  0.0055  0.8808 -0.2121
 8702TIP3    H250302   4.944   4.748   4.470 -0.2989 -0.2738  1.0539
 8703TIP3   OH250303   4.186   7.502   5.015  0.1896  0.0273  0.2102
 8703TIP3    H150304   4.192   7.426   4.957  0.2559 -1.4787  2.0678
 8703TIP3    H250305   4.129   7.472   5.087  0.6776  1.5386  1.2804
 8704TIP3   OH250306   6.149   4.675   5.279 -0.0785  0.4452 -0.0023
 8704TIP3    H150307   6.223   4.737   5.274  0.9852 -0.8211 -0.4868
 8704TIP3    H250308   6.179   4.607   5.340 -0.8595 -0.0868 -0.1986
 8705TIP3   OH250309   1.668   3.750   5.027 -0.4682  0.2006  0.1140
 8705TIP3    H150310   1.700   3.803   4.955  0.0448 -2.1532 -1.5126
 8705TIP3    H250311   1.738   3.686   5.042 -0.3227  0.9190  3.1008
 8706TIP3   OH250312   2.491   3.607   5.862 -0.0813  0.0365  0.0178
 8706TIP3    H150313   2.427   3.633   5.796  2.1714  0.4809 -2.1502
 8706TIP3    H250314   2.488   3.512   5.862  1.5341 -0.1458 -2.7016
 8707TIP3   OH250315   7.359   4.467   4.699  0.6856 -0.2271  0.1413
 8707TIP3    H150316   7.323   4.406   4.764  1.1772 -1.4783 -0.7309
 8707TIP3    H250317   7.337   4.428   4.615  0.1286  1.3354 -0.4734
 8708TIP3   OH250318   4.358   0.615   5.914  0.3502  0.2099  0.4372
 8708TIP3    H150319   4.306   0.629   5.835  1.2385  1.4148  0.0447
 8708TIP3    H250320   4.449   0.615   5.884  0.6727  0.0601  1.3712
 8709TIP3   OH250321   4.860   3.029   5.876  0.5252  0.2525  0.2272
 8709TIP3    H150322   4.799   3.011   5.948 -0.4782  1.6064 -0.2360
 8709TIP3    H250323   4.924   3.090   5.914  0.9289 -0.2632  0.3904
 8710TIP3   OH250324   1.487   1.424   6.056 -0.1263 -0.5115  0.2300
 8710TIP3    H150325   1.413   1.417   6.116  0.3711 -0.2289  0.8931
 8710TIP3    H250326   1.541   1.494   6.093 -0.4932  0.6339 -1.3021
 8711TIP3   OH250327   5.235   2.007   6.104  0.1048 -0.7686 -0.2042
 8711TIP3    H150328   5.140   2.003   6.117  0.1186 -1.9286 -0.3689
 8711TIP3    H250329   5.268   1.926   6.142  1.3711  0.8395  2.3993
 8712TIP3   OH250330   6.811   1.518   4.789 -0.2976 -0.0329 -0.1119
 8712TIP3    H150331   6.733   1.560   4.823  1.2220  2.3505  0.7159
 8712TIP3    H250332   6.834   1.570   4.712  1.3197  0.3566  0.5880
 8713TIP3   OH250333   0.408   6.577   5.543 -0.3456  0.2618  0.2665
 8713TIP3    H150334   0.355   6.533   5.610  0.9395 -0.2913  0.9492
 8713TIP3    H250335   0.343   6.619   5.486 -1.4633  0.8001  1.8693
 8714TIP3   OH250336   1.373   2.198   5.038 -0.0413  0.1515 -0.3150
 8714TIP3    H150337   1.406   2.119   5.081 -0.9166  0.9835  2.0476
 8714TIP3    H250338   1.331   2.248   5.108 -0.0415  2.4496 -1.8428
 8715TIP3   OH250339   4.694   7.355   5.129 -0.3174  0.5958  0.7532
 8715TIP3    H150340   4.615   7.394   5.091  0.5528  1.6842  0.0108
 8715TIP3    H250341   4.742   7.429   5.165  0.4071 -0.0492  1.1352
 8716TIP3   OH250342   6.508   0.087   4.465 -0.7200 -0.5011 -0.3289
 8716TIP3    H150343   6.513   0.000   4.425 -0.1469 -0.5647 -0.1269
 8716TIP3    H250344   6.447   0.135   4.409  0.1271 -0.5659 -1.3374
 8717TIP3   OH250345   0.719   5.792   4.246  0.1513  0.1706  0.4532
 8717TIP3    H150346   0.662   5.749   4.182  2.7445  0.1541 -2.0426
 8717TIP3    H250347   0.770   5.721   4.284 -0.7011  0.2977  1.8750
 8718TIP3   OH250348   6.512   3.857   5.178  0.7762  0.3579  0.8329
 8718TIP3    H150349   6.568   3.811   5.240 -0.3432 -2.2747  0.0574
 8718TIP3    H250350   6.568   3.874   5.102  0.6825 -2.1706  0.0938
 8719TIP3   OH250351   6.618   3.851   3.726 -0.2475  0.2829 -0.1200
 8719TIP3    H150352   6.695   3.902   3.703  0.7937 -1.5417 -0.8131
 8719TIP3    H250353   6.631   3.828   3.818  0.9854 -1.5571 -0.7150
 8720TIP3   OH250354   4.067   5.183   5.336 -0.5542  0.2449 -0.2833
 8720TIP3    H150355   4.155   5.149   5.352 -1.1463 -1.1013  0.2144
 8720TIP3    H250356   4.079   5.278   5.330  1.0829  0.0169 -1.2552
 8721TIP3   OH250357   6.582   5.153   4.233  0.6092 -0.8691 -0.4697
 8721TIP3    H150358   6.565   5.243   4.260  0.1233 -0.7862 -1.0415
 8721TIP3    H250359   6.579   5.156   4.138  0.7770 -1.4607 -0.4950
 8722TIP3   OH250360   0.282   4.605   7.155 -0.0976 -0.2919  0.0607
 8722TIP3    H150361   0.188   4.607   7.136 -0.1269  0.1761  0.2387
 8722TIP3    H250362   0.311   4.696   7.145  0.2740 -0.3788  0.3060
 8723TIP3   OH250363   0.592   1.453   5.862 -0.1761 -0.1357  0.4913
 8723TIP3    H150364   0.501   1.429   5.849 -0.4057  0.6827  0.4913
 8723TIP3    H250365   0.608   1.437   5.955 -0.5977  0.5765  0.6951
 8724TIP3   OH250366   2.542   3.423   6.705  0.0640  0.2764 -0.5056
 8724TIP3    H150367   2.605   3.452   6.639 -0.8441 -0.3146 -1.6821
 8724TIP3    H250368   2.494   3.352   6.662  0.2707 -0.9772  1.2393
 8725TIP3   OH250369   4.119   0.599   6.073 -0.3698 -0.3829 -0.2094
 8725TIP3    H150370   4.203   0.624   6.032 -0.1235  0.8413  0.9689
 8725TIP3    H250371   4.075   0.546   6.006 -0.5416  2.5056 -2.6324
 8726TIP3   OH250372   5.022   4.689   5.831 -0.0930  0.2712  0.5462
 8726TIP3    H150373   4.980   4.684   5.916 -0.7769 -3.5585  0.1366
 8726TIP3    H250374   4.964   4.641   5.772  2.4956 -1.1207 -1.0615
 8727TIP3   OH250375   7.669   3.746   6.726 -0.8164  0.1771 -0.2473
 8727TIP3    H150376   7.611   3.777   6.657 -0.9686  0.0123 -0.1932
 8727TIP3    H250377   7.610   3.716   6.796 -0.6911 -0.8804 -0.5727
 8728TIP3   OH250378   4.887   0.861   5.055 -0.1765 -0.0611  0.0693
 8728TIP3    H150379   4.819   0.806   5.093 -0.7691  0.0393 -0.8180
 8728TIP3    H250380   4.887   0.840   4.962 -0.8736  1.8691 -0.4248
 8729TIP3   OH250381   3.475   2.012   6.438 -0.3134  0.1454  0.0627
 8729TIP3    H150382   3.415   1.939   6.449 -1.4191  0.7552 -1.5610
 8729TIP3    H250383   3.557   1.982   6.477 -1.9772 -0.1786  3.7228
 8730TIP3   OH250384   4.114   5.444   5.339  0.1304  0.1207 -0.5832
 8730TIP3    H150385   4.184   5.449   5.404 -2.7216  1.8375  2.6774
 8730TIP3    H250386   4.132   5.516   5.279  0.8157  0.9570  0.5938
 8731TIP3   OH250387   5.541   1.461   4.892  0.0347 -0.0786 -0.4551
 8731TIP3    H150388   5.504   1.374   4.879 -1.2616  0.3036  0.4125
 8731TIP3    H250389   5.636   1.449   4.885  0.2621 -2.3710  3.6691
 8732TIP3   OH250390   4.046   2.468   6.235 -0.1407 -0.3258  0.3992
 8732TIP3    H150391   4.115   2.512   6.285  0.1587 -0.4326  0.0848
 8732TIP3    H250392   4.046   2.511   6.150  1.5040 -2.1785 -0.6230
 8733TIP3   OH250393   3.777   3.862   4.349  0.2412 -0.4983 -0.2351
 8733TIP3    H150394   3.835   3.804   4.399  0.0941 -1.6666 -1.3624
 8733TIP3    H250395   3.694   3.858   4.397  0.3781 -0.8371 -0.0156
 8734TIP3   OH250396   5.187   7.116   6.351  0.0178  0.2415  0.0424
 8734TIP3    H150397   5.248   7.075   6.412 -0.2389  1.2423  1.0193
 8734TIP3    H250398   5.240   7.138   6.274  0.4945 -0.4577  0.1646
 8735TIP3   OH250399   1.356   6.235   4.304 -0.2103 -0.0952  0.1336
 8735TIP3    H150400   1.425   6.194   4.356  0.1186  0.2870  0.0029
 8735TIP3    H250401   1.275   6.200   4.340  0.0951 -2.6175 -1.4186
 8736TIP3   OH250402   0.867   2.804   4.862 -0.4561  0.0347  0.7299
 8736TIP3    H150403   0.960   2.781   4.862 -0.7619 -1.4794 -0.8363
 8736TIP3    H250404   0.865   2.897   4.843  0.7747 -0.5724 -3.5093
 8737TIP3   OH250405   0.710   1.649   3.925 -0.4203 -0.4021 -0.0596
 8737TIP3    H150406   0.689   1.726   3.978  1.2526 -0.9780  1.5531
 8737TIP3    H250407   0.773   1.680   3.860  1.1542 -0.5591  1.3161
 8738TIP3   OH250408   6.693   1.206   4.715  0.8569 -0.2885  0.1675
 8738TIP3    H150409   6.702   1.268   4.642  1.7069  0.3792  0.8133
 8738TIP3    H250410   6.603   1.176   4.710  0.7411  0.1866 -0.8145
 8739TIP3   OH250411   5.092   0.400   5.173  0.0954  0.4062 -0.7358
 8739TIP3    H150412   5.098   0.459   5.098 -0.1544 -0.5560 -1.5251
 8739TIP3    H250413   5.002   0.412   5.205  0.5076  1.5596  0.0507
 8740TIP3   OH250414   7.569   1.214   6.504 -0.2238  0.1191  0.1871
 8740TIP3    H150415   7.498   1.259   6.549  0.1583  0.1860  0.7387
 8740TIP3    H250416   7.554   1.121   6.523  0.1427  0.1735  0.7724
 8741TIP3   OH250417   2.860   2.624   4.681  0.3685  0.3433  0.0483
 8741TIP3    H150418   2.821   2.608   4.595  2.2141 -1.9563 -0.4653
 8741TIP3    H250419   2.811   2.568   4.741  0.2927  0.5195  0.1516
 8742TIP3   OH250420   0.790   0.978   5.640 -0.4227 -0.2836 -0.2598
 8742TIP3    H150421   0.850   0.958   5.711 -0.6993 -0.7393 -0.1551
 8742TIP3    H250422   0.714   1.019   5.682 -0.0970  0.5058 -0.4152
 8743TIP3   OH250423   5.829   2.608   5.708 -0.1491 -0.2764 -0.1686
 8743TIP3    H150424   5.777   2.639   5.782  0.8314  1.4335 -0.1234
 8743TIP3    H250425   5.896   2.552   5.748  1.2139  1.7056  0.5067
 8744TIP3   OH250426   6.121   2.089   4.689 -0.0169  0.1361 -0.0565
 8744TIP3    H150427   6.101   2.166   4.636 -0.1764  0.3121  0.2580
 8744TIP3    H250428   6.217   2.090   4.698 -0.0871  0.8265  0.7292
 8745TIP3   OH250429   4.541   1.916   4.678 -0.6812 -0.0462  0.6151
 8745TIP3    H150430   4.513   1.861   4.604 -0.0285 -0.5273  0.7177
 8745TIP3    H250431   4.470   1.906   4.742 -1.5503  0.8519 -0.1639
 8746TIP3   OH250432   2.870   2.903   3.767 -0.1438  0.3288  0.2077
 8746TIP3    H150433   2.879   2.975   3.705  1.8856  0.2575  0.3542
 8746TIP3    H250434   2.911   2.936   3.848  0.2104 -0.7296  0.4797
 8747TIP3   OH250435   3.243   0.680   3.882  0.0662 -0.1562  0.6088
 8747TIP3    H150436   3.280   0.616   3.821 -0.0180 -1.6785  2.0777
 8747TIP3    H250437   3.303   0.755   3.877 -0.2567  0.0259 -1.7170
 8748TIP3   OH250438   7.205   1.190   5.279 -0.4192 -0.3515  0.3414
 8748TIP3    H150439   7.134   1.191   5.342 -0.0485  1.9605  0.7891
 8748TIP3    H250440   7.218   1.281   5.255  2.2819 -0.6995  0.1602
 8749TIP3   OH250441   4.659   4.951   4.823 -0.1147 -0.3154 -0.3649
 8749TIP3    H150442   4.595   5.022   4.831 -0.7036 -0.8617 -0.1028
 8749TIP3    H250443   4.708   4.972   4.744  0.1641  0.7288  0.0677
 8750TIP3   OH250444   0.474   2.595   5.734  0.0130  0.7409  0.5957
 8750TIP3    H150445   0.533   2.523   5.757 -0.4021 -0.2580 -1.2899
 8750TIP3    H250446   0.406   2.554   5.680 -0.3675  2.5037 -0.3381
 8751TIP3   OH250447   0.351   0.129   4.811 -0.4698  0.1018  0.1352
 8751TIP3    H150448   0.421   0.065   4.827 -0.1260  0.3654 -0.2986
 8751TIP3    H250449   0.271   0.079   4.823 -0.2579  0.2670  2.6349
 8752TIP3   OH250450   4.365   0.031   5.063 -0.4579  0.3683  0.0402
 8752TIP3    H150451   4.341   0.088   4.989 -3.1762 -0.3153  0.3003
 8752TIP3    H250452   4.323  -0.053   5.043  2.8024 -1.3962  0.0530
 8753TIP3   OH250453   3.517   3.690   4.691  0.2210  0.3359 -0.3349
 8753TIP3    H150454   3.609   3.691   4.715  0.2349 -0.0287 -0.3784
 8753TIP3    H250455   3.487   3.601   4.710 -0.3170  0.6643  0.4116
 8754TIP3   OH250456   0.413   0.636   4.249 -0.4974 -0.5856  0.4695
 8754TIP3    H150457   0.373   0.700   4.308 -0.4904 -1.3081  1.2814
 8754TIP3    H250458   0.493   0.610   4.295  0.4972  0.2193 -0.7413
 8755TIP3   OH250459   0.939   7.614   5.118  0.3350  0.2017 -0.0679
 8755TIP3    H150460   0.964   7.522   5.118 -1.0988 -0.2183 -1.2144
 8755TIP3    H250461   0.903   7.629   5.205  0.4944 -0.3412  0.0944
 8756TIP3   OH250462   0.440   4.176   6.495 -0.6012  0.4751 -0.0706
 8756TIP3    H150463   0.347   4.196   6.496 -0.6014  0.4656  0.3193
 8756TIP3    H250464   0.478   4.234   6.561 -0.5679 -0.6018  0.9058
 8757TIP3   OH250465   1.370   5.337   5.748  0.1522  0.4634  0.3583
 8757TIP3    H150466   1.462   5.318   5.732  0.3529  0.0222  1.8519
 8757TIP3    H250467   1.368   5.369   5.839 -0.9260  2.2198 -0.2332
 8758TIP3   OH250468   5.726   1.000   6.353 -0.3530 -0.2572 -0.5642
 8758TIP3    H150469   5.659   0.934   6.372  0.5473 -0.4108  2.4816
 8758TIP3    H250470   5.689   1.082   6.385  0.0908  0.0347 -0.7817
 8759TIP3   OH250471   1.346   6.153   5.141 -0.4565 -0.0267 -0.2774
 8759TIP3    H150472   1.340   6.088   5.211 -0.6915  0.6178  0.3056
 8759TIP3    H250473   1.425   6.202   5.160  0.4435 -0.9626 -1.4484
 8760TIP3   OH250474   0.088   6.059   4.160  0.1913  0.3602 -0.0766
 8760TIP3    H150475   0.038   6.109   4.224  0.2646  0.3538 -0.0132
 8760TIP3    H250476   0.103   5.975   4.203 -3.2939 -1.2584 -1.6484
 8761TIP3   OH250477   6.499   2.728   5.826  0.2377  0.3708  0.2015
 8761TIP3    H150478   6.406   2.745   5.813 -0.1531 -1.3980  0.3593
 8761TIP3    H250479   6.504   2.692   5.915  1.1778  1.1161  0.4608
 8762TIP3   OH250480   0.830   3.952   5.447 -0.2587 -0.1823  0.7167
 8762TIP3    H150481   0.854   3.943   5.355  0.2528  2.1654  0.5405
 8762TIP3    H250482   0.907   3.922   5.496  0.5782  1.1764  0.2833
 8763TIP3   OH250483   1.425   0.567   3.940  0.1800  0.1775 -0.4938
 8763TIP3    H150484   1.500   0.615   3.905  0.7861  0.9919  1.7344
 8763TIP3    H250485   1.350   0.622   3.919  0.1915 -0.4507 -2.3950
 8764TIP3   OH250486   0.732   0.456  10.849  0.3051 -0.1785  0.5709
 8764TIP3    H150487   0.788   0.502  10.787 -1.0886  0.5542 -0.2215
 8764TIP3    H250488   0.707   0.524  10.912  1.1970 -0.7683  1.5887
 8765TIP3   OH250489   2.760   6.299   4.445 -0.5221  0.1840 -0.1528
 8765TIP3    H150490   2.754   6.394   4.443  0.3450  0.2789  0.8852
 8765TIP3    H250491   2.852   6.281   4.465 -1.0943 -0.8009  1.9435
 8766TIP3   OH250492   4.269   0.648   5.645  0.1136  0.0315  0.0268
 8766TIP3    H150493   4.291   0.734   5.609 -3.3640  0.6019 -1.1776
 8766TIP3    H250494   4.228   0.602   5.572 -2.9844 -0.5356  1.9289
 8767TIP3   OH250495   4.869   3.865   5.654 -0.4137 -0.1293  0.0704
 8767TIP3    H150496   4.919   3.947   5.661 -2.2453  1.0272  0.1613
 8767TIP3    H250497   4.784   3.891   5.621 -1.7583 -1.7122  2.0382
 8768TIP3   OH250498   2.361   1.032   4.296  0.2005 -0.1847  0.1454
 8768TIP3    H150499   2.399   0.960   4.347 -0.2565  0.0432  0.8230
 8768TIP3    H250500   2.360   1.000   4.206 -0.5597 -1.2809  0.5253
 8769TIP3   OH250501   0.302   6.800   6.318  0.7951 -0.2776 -0.5090
 8769TIP3    H150502   0.342   6.793   6.232 -0.6108 -2.6742 -1.0682
 8769TIP3    H250503   0.292   6.709   6.348 -2.3140  0.2331  0.3954
 8770TIP3   OH250504   3.747   6.624   5.758  0.2086 -0.2211 -0.2807
 8770TIP3    H150505   3.811   6.625   5.829 -0.7297 -0.5073  0.6129
 8770TIP3    H250506   3.745   6.533   5.729  0.6799 -0.0797 -0.7661
 8771TIP3   OH250507   1.469   3.104   6.499 -0.5493  0.0243  0.3616
 8771TIP3    H150508   1.516   3.134   6.577  1.6503 -0.5254 -0.6732
 8771TIP3    H250509   1.464   3.181   6.443  0.7499 -0.3012 -0.2501
 8772TIP3   OH250510   6.000   3.992   6.089  0.3176 -0.3331  0.8825
 8772TIP3    H150511   5.951   3.932   6.034  1.4785 -0.0671 -0.4960
 8772TIP3    H250512   5.936   4.057   6.119 -0.3689 -0.5991  0.0033
 8773TIP3   OH250513   6.026   7.336   4.845 -0.6297 -0.2898  0.6034
 8773TIP3    H150514   5.952   7.397   4.837  0.2809  0.8841  0.8932
 8773TIP3    H250515   6.080   7.374   4.914  0.6855 -0.6661 -0.2014
 8774TIP3   OH250516   2.472   4.873   5.326 -0.0931 -0.2565 -0.0520
 8774TIP3    H150517   2.429   4.937   5.269  1.4645  1.5228  0.6685
 8774TIP3    H250518   2.538   4.832   5.270 -2.7998 -3.3318 -1.2965
 8775TIP3   OH250519   4.774   6.952   5.793 -0.2410 -0.6406  0.2779
 8775TIP3    H150520   4.735   6.929   5.708  0.8022 -0.9723 -0.1255
 8775TIP3    H250521   4.836   7.022   5.773  0.6252 -1.2902  0.6206
 8776TIP3   OH250522   0.039   2.399  10.704 -0.1806  0.3448 -0.3914
 8776TIP3    H150523   0.011   2.309  10.720 -0.6462  0.6133  0.3458
 8776TIP3    H250524  -0.018   2.431  10.634  1.5124 -0.6631 -2.3275
 8777TIP3   OH250525   5.685   0.556   4.394  0.4033  0.4643  0.4100
 8777TIP3    H150526   5.699   0.527   4.484 -0.5450  1.3694  0.8641
 8777TIP3    H250527   5.733   0.493   4.341 -0.4371 -1.0971  1.4345
 8778TIP3   OH250528   0.031   4.370   6.303 -0.1396 -0.2847 -0.4591
 8778TIP3    H150529  -0.045   4.386   6.359 -1.1916  0.4720 -2.0076
 8778TIP3    H250530   0.097   4.433   6.332 -0.0626 -1.0006  0.9549
 8779TIP3   OH250531   3.476   0.152   3.949 -0.4593 -0.3402  0.4253
 8779TIP3    H150532   3.498   0.215   3.880 -0.0780 -1.1110 -0.1771
 8779TIP3    H250533   3.429   0.204   4.014 -2.1767  0.1276 -1.0860
 8780TIP3   OH250534   6.248   4.259   4.987 -0.0984  0.1617  0.8839
 8780TIP3    H150535   6.188   4.325   5.024 -0.5986 -0.3651  1.0344
 8780TIP3    H250536   6.333   4.303   4.984 -0.2531  0.5563  1.7240
 8781TIP3   OH250537   6.548   2.622   5.393 -0.2463  0.3798 -0.4600
 8781TIP3    H150538   6.496   2.637   5.314 -0.0935  1.8191 -0.3154
 8781TIP3    H250539   6.613   2.556   5.367 -0.9354 -0.0291 -1.1813
 8782TIP3   OH250540   4.570   0.953   4.540  0.1687  0.1035 -0.1908
 8782TIP3    H150541   4.574   0.931   4.633 -0.3956  1.1769  0.1097
 8782TIP3    H250542   4.603   1.043   4.535 -1.2619  0.6260 -0.7883
 8783TIP3   OH250543   5.004   6.479   5.728 -0.1347 -0.3338  0.2558
 8783TIP3    H150544   5.062   6.462   5.802  0.2640 -2.2761 -0.4510
 8783TIP3    H250545   5.062   6.476   5.651 -0.5972  1.3050 -0.1969
 8784TIP3   OH250546   4.337   5.888   5.086  0.5007 -0.5487 -0.3576
 8784TIP3    H150547   4.315   5.932   5.168 -0.3866 -1.9941  0.2235
 8784TIP3    H250548   4.263   5.906   5.028  1.7588  1.6554 -1.3942
 8785TIP3   OH250549   5.513   0.241   4.704  0.3176 -0.6657  0.1352
 8785TIP3    H150550   5.484   0.190   4.628 -1.0835 -0.4779  0.5146
 8785TIP3    H250551   5.433   0.257   4.754  0.7616  1.6268  0.2010
 8786TIP3   OH250552   0.453   0.277   5.814 -0.1848 -0.1763  1.4439
 8786TIP3    H150553   0.526   0.292   5.754  0.2215  2.0618  2.3797
 8786TIP3    H250554   0.401   0.208   5.773  1.2231 -0.2209 -0.3827
 8787TIP3   OH250555   1.293   1.814   3.820 -0.3157  0.1679  0.4704
 8787TIP3    H150556   1.296   1.718   3.816 -0.1974  0.0773  1.9975
 8787TIP3    H250557   1.384   1.840   3.837 -0.1045  0.6672 -1.2125
 8788TIP3   OH250558   1.642   4.583   4.157  0.0027  0.5146  0.2563
 8788TIP3    H150559   1.582   4.656   4.174 -1.1228 -0.5526  1.0760
 8788TIP3    H250560   1.624   4.558   4.066 -0.7044  0.3026  0.4469
 8789TIP3   OH250561   4.552   6.533   3.601 -0.2399  0.2166  0.2002
 8789TIP3    H150562   4.494   6.600   3.636 -0.3755  0.3233 -0.2187
 8789TIP3    H250563   4.619   6.581   3.552 -0.4824  0.0451 -0.3146
 8790TIP3   OH250564   7.052   6.958   6.032 -0.5699  0.2695  0.2944
 8790TIP3    H150565   6.960   6.978   6.045 -0.5838  0.1088  0.4484
 8790TIP3    H250566   7.073   6.895   6.101 -0.1706  0.8318  0.6921
 8791TIP3   OH250567   5.957   3.275   4.500  0.0275 -0.0345  0.1400
 8791TIP3    H150568   5.982   3.201   4.445  0.6904  1.8797 -2.2928
 8791TIP3    H250569   6.032   3.287   4.559 -0.7190 -2.1476  1.6548
 8792TIP3   OH250570   2.310   2.255   3.792  0.3021 -0.0255  0.3995
 8792TIP3    H150571   2.358   2.172   3.790  0.0503 -0.1789  0.5056
 8792TIP3    H250572   2.221   2.231   3.763  0.4697  0.3776 -0.4794
 8793TIP3   OH250573   5.973   6.669   3.934 -0.0925 -0.1528  0.0344
 8793TIP3    H150574   6.032   6.722   3.881 -0.6380 -0.0863 -0.5184
 8793TIP3    H250575   6.030   6.628   3.999  0.4886  0.2800 -0.1905
 8794TIP3   OH250576   7.350   0.529   5.817 -0.1095  0.1361 -0.0400
 8794TIP3    H150577   7.416   0.570   5.872  0.8171 -0.8942 -0.3499
 8794TIP3    H250578   7.377   0.550   5.728 -0.5212  0.1725 -0.1584
 8795TIP3   OH250579   2.449   6.386   3.768 -0.0840  0.2714 -0.2534
 8795TIP3    H150580   2.493   6.456   3.816 -0.8377 -0.0612  0.9591
 8795TIP3    H250581   2.515   6.316   3.764 -0.4261 -0.1818  1.4539
 8796TIP3   OH250582   1.381   1.628   6.300 -0.4620 -0.0228  0.2442
 8796TIP3    H150583   1.313   1.663   6.357 -0.9220 -0.2303 -0.1655
 8796TIP3    H250584   1.345   1.544   6.270 -1.0686  0.9198 -1.8387
 8797TIP3   OH250585   3.192   7.622   5.095 -0.1958  0.6301 -0.1966
 8797TIP3    H150586   3.219   7.548   5.040 -0.9150  0.5892 -0.5020
 8797TIP3    H250587   3.201   7.590   5.184  2.6579  1.2546 -0.1709
 8798TIP3   OH250588   2.900   6.153   5.683  0.3826  0.3206  0.3120
 8798TIP3    H150589   2.993   6.144   5.701  0.1748 -2.0212  0.5399
 8798TIP3    H250590   2.884   6.099   5.606 -0.8364  0.4946  0.4088
 8799TIP3   OH250591   3.994   7.340   5.122  0.0939  0.1790 -0.5107
 8799TIP3    H150592   3.927   7.309   5.060 -0.2035 -1.8216  0.7177
 8799TIP3    H250593   4.057   7.268   5.126  1.4635  1.3518 -0.3810
 8800TIP3   OH250594   6.139   1.101   5.209  0.1570  0.2190  0.5124
 8800TIP3    H150595   6.155   1.032   5.273 -0.6410 -2.5528 -2.0434
 8800TIP3    H250596   6.087   1.166   5.256 -0.0573 -1.4875  2.7921
 8801TIP3   OH250597   0.147   6.649   5.447  0.2715  0.5794 -0.0288
 8801TIP3    H150598   0.150   6.557   5.419 -1.1776 -0.4550  2.8669
 8801TIP3    H250599   0.143   6.699   5.365 -0.2588 -1.9969 -1.6791
 8802TIP3   OH250600   2.680   2.981   4.896  0.3328  0.2607 -0.4009
 8802TIP3    H150601   2.724   3.007   4.977  0.0406 -0.3080 -0.0497
 8802TIP3    H250602   2.624   3.055   4.874  1.0214  0.7483 -0.5281
 8803TIP3   OH250603   5.851   6.575   5.470 -0.1017  0.2174  0.2808
 8803TIP3    H150604   5.775   6.527   5.503  0.9619 -0.2465  2.1546
 8803TIP3    H250605   5.901   6.510   5.421  0.5127 -0.2203  1.4562
 8804TIP3   OH250606   1.208   4.559   5.322 -0.3231 -0.1601 -0.3510
 8804TIP3    H150607   1.245   4.565   5.410 -2.4357  1.5147  0.5193
 8804TIP3    H250608   1.200   4.650   5.294 -0.4925 -0.6428 -1.9419
 8805TIP3   OH250609   0.709   6.182   6.730 -0.4978  0.3849 -0.3872
 8805TIP3    H150610   0.658   6.261   6.743  0.5513  1.1570 -0.7622
 8805TIP3    H250611   0.704   6.165   6.636 -0.5107  0.1586 -0.3459
 8806TIP3   OH250612   4.131   1.876   5.064  0.3103  0.0652  0.0311
 8806TIP3    H150613   4.107   1.876   5.157  1.5685  0.6423  0.3729
 8806TIP3    H250614   4.048   1.882   5.018 -0.2555  1.2571  1.1532
 8807TIP3   OH250615   7.348   2.124   4.171  0.6395  0.1670  0.2709
 8807TIP3    H150616   7.408   2.049   4.177 -2.4961 -3.0553 -3.1440
 8807TIP3    H250617   7.372   2.168   4.090  0.3921  0.8747  0.5752
 8808TIP3   OH250618   0.443   4.086   6.226  0.3289  0.3383  0.4858
 8808TIP3    H150619   0.509   4.017   6.222 -1.2680 -1.2853  0.5934
 8808TIP3    H250620   0.443   4.114   6.318  1.0602  0.5645  0.4210
 8809TIP3   OH250621   3.938   6.717   4.773  0.4456 -0.0412  0.6354
 8809TIP3    H150622   3.978   6.740   4.858 -0.4998  1.5504  0.6917
 8809TIP3    H250623   3.967   6.627   4.756 -1.6048 -1.5603  4.0320
 8810TIP3   OH250624   5.090   0.655   6.449 -0.2102 -0.3651  0.4351
 8810TIP3    H150625   5.086   0.576   6.504 -2.6205 -0.3850  0.3202
 8810TIP3    H250626   5.184   0.669   6.435  0.3362 -2.4703  1.5129
 8811TIP3   OH250627   6.316   6.651   5.487  0.1299  0.2277  0.1792
 8811TIP3    H150628   6.403   6.686   5.467  0.5612 -1.2756 -0.8026
 8811TIP3    H250629   6.255   6.720   5.462  0.9953  0.8617 -0.2188
 8812TIP3   OH250630   3.031   2.289   6.333  0.5107  0.4644 -0.1147
 8812TIP3    H150631   3.028   2.356   6.402 -1.4447 -0.2462  0.5377
 8812TIP3    H250632   3.051   2.208   6.379  3.2176  0.5586 -0.9472
 8813TIP3   OH250633   5.460   3.825   6.669  0.5952  0.2541  0.0206
 8813TIP3    H150634   5.527   3.764   6.639 -0.2171 -1.4604  1.4707
 8813TIP3    H250635   5.396   3.828   6.597  0.0841 -1.5514  0.3524
 8814TIP3   OH250636   1.860   6.509   4.879  0.3594 -0.6880 -0.1714
 8814TIP3    H150637   1.900   6.593   4.902  1.0225 -1.3307  1.1520
 8814TIP3    H250638   1.923   6.469   4.819  0.5877 -0.7051  0.0749
 8815TIP3   OH250639   4.950   1.276   5.585 -0.0067  0.1285 -0.0930
 8815TIP3    H150640   4.952   1.293   5.679 -2.5078 -0.1166  0.0538
 8815TIP3    H250641   4.888   1.340   5.550 -0.7625 -1.1754 -1.2326
 8816TIP3   OH250642   7.500   2.919   5.152 -0.2790  0.6042 -0.0771
 8816TIP3    H150643   7.525   3.009   5.173 -0.5614  0.7685 -0.4341
 8816TIP3    H250644   7.427   2.928   5.091  0.1466  0.1349 -0.6701
 8817TIP3   OH250645   4.009   1.086   4.009 -0.8512  0.0257 -0.0938
 8817TIP3    H150646   3.941   1.022   4.031 -1.3029  0.6493  0.3761
 8817TIP3    H250647   3.997   1.156   4.073  0.0793  0.2633 -0.1690
 8818TIP3   OH250648   4.915   6.769   6.690 -0.1915 -1.1715  0.1890
 8818TIP3    H150649   5.009   6.756   6.679  0.1638 -1.3845  2.8384
 8818TIP3    H250650   4.881   6.683   6.713 -1.0434 -1.0863 -0.7150
 8819TIP3   OH250651   6.919   1.899   6.091  0.0972 -0.0431 -0.1226
 8819TIP3    H150652   6.851   1.966   6.091  1.5643  1.5690  1.5864
 8819TIP3    H250653   7.000   1.947   6.074  1.1832 -1.3695  1.0267
 8820TIP3   OH250654   7.423   4.057   4.389  0.2174 -1.0082 -0.8740
 8820TIP3    H150655   7.353   4.109   4.429  0.1195 -1.5212 -0.3591
 8820TIP3    H250656   7.407   4.064   4.295  0.7094  0.5943 -0.8798
 8821TIP3   OH250657   0.572   1.331   5.521 -0.5353  0.2956 -0.3262
 8821TIP3    H150658   0.661   1.362   5.507  0.5366 -1.5442  1.7724
 8821TIP3    H250659   0.555   1.272   5.447  0.6919 -0.6940  0.1547
 8822TIP3   OH250660   1.337   0.823   6.028 -0.3990  0.0108  0.8491
 8822TIP3    H150661   1.265   0.801   6.086 -1.0043  2.5741  1.1927
 8822TIP3    H250662   1.405   0.859   6.086 -0.1487  0.5991  0.2062
 8823TIP3   OH250663   0.391   0.736   4.901  0.4169 -0.4538 -0.0309
 8823TIP3    H150664   0.310   0.762   4.944  2.3577  2.1717  2.4510
 8823TIP3    H250665   0.371   0.652   4.859 -3.0661 -0.6894  1.7874
 8824TIP3   OH250666   4.751   0.009   5.694  0.4898  0.4840  0.0167
 8824TIP3    H150667   4.677  -0.051   5.705  0.0674  0.8498 -0.7972
 8824TIP3    H250668   4.822  -0.047   5.663 -0.0785  0.4799 -1.3460
 8825TIP3   OH250669   2.360   5.386   6.085 -0.8533 -0.6067  0.0153
 8825TIP3    H150670   2.318   5.316   6.135 -0.8959 -0.9567 -0.5094
 8825TIP3    H250671   2.356   5.462   6.144 -0.1085 -1.2262  0.9056
 8826TIP3   OH250672   0.607   4.109   3.846 -0.1918  0.6308 -0.0674
 8826TIP3    H150673   0.519   4.088   3.814 -0.9893  1.2993  1.5557
 8826TIP3    H250674   0.599   4.199   3.878  0.4202 -0.0738  2.2478
 8827TIP3   OH250675   1.299   5.980   6.543  0.5757  0.0152  0.3981
 8827TIP3    H150676   1.349   6.029   6.609 -1.4031 -0.5659  2.4534
 8827TIP3    H250677   1.318   5.888   6.563 -1.1391 -0.2131  1.1416
 8828TIP3   OH250678   2.000   6.944   5.920  0.2689  0.1860  0.5579
 8828TIP3    H150679   2.089   6.946   5.955  0.8701  1.6456 -0.9011
 8828TIP3    H250680   1.983   7.034   5.892 -0.9246 -0.4538 -0.9508
 8829TIP3   OH250681   5.062   0.028   5.312 -0.6400 -0.0404 -0.1398
 8829TIP3    H150682   4.992   0.040   5.247 -1.5352 -2.2693  0.3385
 8829TIP3    H250683   5.124   0.099   5.293 -0.5012 -0.9282 -3.8793
 8830TIP3   OH250684   6.322   4.853   5.147  0.5839  0.2443 -0.1503
 8830TIP3    H150685   6.392   4.895   5.097  1.3540  0.0823  0.7613
 8830TIP3    H250686   6.296   4.918   5.212  0.4616  0.0021  0.0445
 8831TIP3   OH250687   7.331   5.172   5.532 -0.5693  0.2637  0.3915
 8831TIP3    H150688   7.405   5.148   5.477 -0.6354 -0.0144  0.4243
 8831TIP3    H250689   7.327   5.103   5.599 -0.0540  0.9622  1.1682
 8832TIP3   OH250690   4.883   6.818   3.558  0.1837 -0.1791 -0.2543
 8832TIP3    H150691   4.928   6.756   3.615 -1.6563 -1.3996 -0.0155
 8832TIP3    H250692   4.886   6.777   3.472 -1.0309 -0.6701 -0.0972
 8833TIP3   OH250693   3.671   5.668   5.188  0.4385 -0.4765 -0.2805
 8833TIP3    H150694   3.657   5.756   5.155  2.9192 -0.4076 -1.3908
 8833TIP3    H250695   3.663   5.612   5.111  0.3704 -1.0381  0.1280
 8834TIP3   OH250696   3.764   2.826   5.688  0.1859  0.6388 -0.0139
 8834TIP3    H150697   3.703   2.886   5.731 -0.1183 -0.4849  1.1669
 8834TIP3    H250698   3.744   2.740   5.725  1.3311 -0.0374 -0.8849
 8835TIP3   OH250699   3.348   6.953   6.214 -0.1466  0.0833  0.4697
 8835TIP3    H150700   3.313   7.039   6.190 -1.0978 -0.4478 -0.1224
 8835TIP3    H250701   3.293   6.891   6.167  1.4994 -0.8187 -0.3756
 8836TIP3   OH250702   5.545   0.278   5.018 -0.4968 -0.4429 -0.1192
 8836TIP3    H150703   5.570   0.203   4.964 -3.0061 -0.2059 -1.7650
 8836TIP3    H250704   5.451   0.265   5.035 -0.7872  1.8347  0.3492
 8837TIP3   OH250705   6.113   5.410   4.224  0.4085  0.2914  0.0603
 8837TIP3    H150706   6.176   5.456   4.168  0.7596 -0.9638 -0.6105
 8837TIP3    H250707   6.111   5.462   4.305  1.1321  1.2156 -0.4845
 8838TIP3   OH250708   5.776   2.305   5.072 -0.0492  0.1073 -0.5919
 8838TIP3    H150709   5.733   2.308   5.158 -0.4522  0.2879 -0.7988
 8838TIP3    H250710   5.830   2.385   5.070  0.0867  0.0196 -0.4418
 8839TIP3   OH250711   1.696   2.237   5.450  0.3822  0.4584 -0.0448
 8839TIP3    H150712   1.646   2.267   5.375  1.0318 -1.3239 -1.2403
 8839TIP3    H250713   1.638   2.174   5.494  1.0950 -0.7311 -0.7698
 8840TIP3   OH250714   0.762   7.095   4.657  0.2025  0.5545 -0.0583
 8840TIP3    H150715   0.775   7.133   4.569 -0.2966 -0.8878 -0.7809
 8840TIP3    H250716   0.851   7.076   4.687  0.3835  1.1065 -0.2218
 8841TIP3   OH250717   5.106   1.429   4.337  0.7041  0.8599  0.5396
 8841TIP3    H150718   5.186   1.383   4.308  0.3526  0.4365  0.2144
 8841TIP3    H250719   5.087   1.392   4.423 -0.0508 -0.2601 -0.0725
 8842TIP3   OH250720   2.477   2.203   4.478 -0.1727 -0.7114 -0.1599
 8842TIP3    H150721   2.485   2.148   4.400 -1.3042  0.8342 -1.4216
 8842TIP3    H250722   2.399   2.256   4.462 -0.2040 -0.0708  1.8653
 8843TIP3   OH250723   0.143   3.487   6.826  0.3604  0.0070 -0.2525
 8843TIP3    H150724   0.194   3.567   6.814 -0.4891  0.2914 -2.3175
 8843TIP3    H250725   0.207   3.416   6.814  0.9840  0.3455  0.9226
 8844TIP3   OH250726   3.210   2.376   5.825 -0.1284  0.0113 -0.0971
 8844TIP3    H150727   3.170   2.340   5.904  1.1776  1.9750  1.5957
 8844TIP3    H250728   3.142   2.371   5.759 -1.8695 -0.1928  1.6111
 8845TIP3   OH250729   3.242   4.025   6.074  0.0307  0.0146  0.6741
 8845TIP3    H150730   3.202   4.038   6.160  0.5535  0.1189  0.9049
 8845TIP3    H250731   3.326   4.070   6.079 -0.4672  1.1242 -0.3141
 8846TIP3   OH250732   5.629   3.596   4.367 -0.4780  0.0109 -0.1352
 8846TIP3    H150733   5.679   3.674   4.341 -1.0817  0.4330 -0.0639
 8846TIP3    H250734   5.577   3.625   4.442 -1.0574 -0.3196 -0.3995
 8847TIP3   OH250735   2.444   7.602   5.568  0.0578  0.5428 -0.1244
 8847TIP3    H150736   2.471   7.579   5.657  1.2300 -0.9973 -0.8268
 8847TIP3    H250737   2.350   7.614   5.574  0.2273  1.3629  1.4904
 8848TIP3   OH250738   7.354   2.399   4.325 -0.3940 -0.0932 -0.5161
 8848TIP3    H150739   7.336   2.314   4.286 -1.8277 -0.2462  0.3833
 8848TIP3    H250740   7.281   2.454   4.296 -0.2955  0.3914  0.1347
 8849TIP3   OH250741   4.028   0.025   6.516  0.0630  0.8674 -0.4026
 8849TIP3    H150742   4.069   0.026   6.602 -0.9344 -0.6518  0.1367
 8849TIP3    H250743   4.071  -0.048   6.470  0.8695  1.9146 -1.3530
 8850TIP3   OH250744   1.828   3.082   6.333 -0.4735 -0.0354  0.2093
 8850TIP3    H150745   1.798   3.015   6.395 -2.1962  1.4246  1.0641
 8850TIP3    H250746   1.923   3.071   6.329 -0.5453 -1.4570  1.5781
 8851TIP3   OH250747   3.310   6.978   5.439  0.0595  0.3787 -0.5371
 8851TIP3    H150748   3.380   6.940   5.385 -0.3967  0.0152 -0.8793
 8851TIP3    H250749   3.265   7.039   5.381 -1.0899 -0.7820 -0.9119
 8852TIP3   OH250750   2.945   0.680   4.239  0.6844 -0.0120 -0.3434
 8852TIP3    H150751   3.028   0.632   4.237  0.9530  0.1465  2.2630
 8852TIP3    H250752   2.934   0.703   4.332 -2.6227 -0.6270 -0.4775
 8853TIP3   OH250753   5.974   1.818   6.340 -0.6288  1.0727  0.1994
 8853TIP3    H150754   5.962   1.745   6.279  0.1852  1.4490 -0.4422
 8853TIP3    H250755   5.952   1.896   6.288  0.6475  1.4498  0.1747
 8854TIP3   OH250756   7.096   0.547   5.699 -0.5537  0.6346 -0.0174
 8854TIP3    H150757   7.087   0.489   5.775  1.6791  0.5205  0.2323
 8854TIP3    H250758   7.182   0.588   5.711 -0.5286  1.2738 -2.0519
 8855TIP3   OH250759   6.978   7.467   4.335 -0.1775 -0.4411 -0.3301
 8855TIP3    H150760   7.023   7.438   4.256 -0.5885  0.0151 -0.7368
 8855TIP3    H250761   7.048   7.483   4.398  0.3188  1.1045 -1.2215
 8856TIP3   OH250762   7.621   3.067   6.062  0.3633  0.6775 -0.7070
 8856TIP3    H150763   7.682   3.141   6.054  1.8137 -0.5165 -1.1928
 8856TIP3    H250764   7.586   3.075   6.151  1.0740  1.5172 -0.4817
 8857TIP3   OH250765   1.398   1.109   5.157 -0.2067 -0.2524 -0.1792
 8857TIP3    H150766   1.426   1.191   5.117  0.1677  0.7994  2.0851
 8857TIP3    H250767   1.448   1.103   5.238 -0.6696 -2.4405  0.0115
 8858TIP3   OH250768   5.533   5.444   6.571 -0.0584  0.0488  0.2578
 8858TIP3    H150769   5.561   5.452   6.662 -0.9997 -1.3393  0.7025
 8858TIP3    H250770   5.608   5.473   6.520  0.8064 -0.0161  1.4557
 8859TIP3   OH250771   3.534   1.348   5.148 -0.0317 -0.1751  0.9119
 8859TIP3    H150772   3.571   1.426   5.108  0.4688 -0.6705  0.3799
 8859TIP3    H250773   3.541   1.363   5.242 -0.9121  0.8621  0.8310
 8860TIP3   OH250774   6.668   5.357   6.567 -0.5125  0.2351  0.8038
 8860TIP3    H150775   6.722   5.280   6.550 -0.8224 -0.2844  2.0446
 8860TIP3    H250776   6.625   5.375   6.483  1.4862  0.6263 -0.1977
 8861TIP3   OH250777   4.154   4.946   5.488  0.7357 -0.0906 -0.4682
 8861TIP3    H150778   4.152   4.851   5.485 -0.5765 -0.0575 -2.4301
 8861TIP3    H250779   4.149   4.973   5.396 -3.7397  1.8833  0.0951
 8862TIP3   OH250780   1.810   2.407   5.690 -0.2131  0.1241 -0.9816
 8862TIP3    H150781   1.836   2.340   5.627 -1.6909 -0.7858 -0.6611
 8862TIP3    H250782   1.787   2.358   5.769 -1.7799  0.9478 -0.8910
 8863TIP3   OH250783   6.388   1.187   4.725 -0.0618 -0.2220 -0.0269
 8863TIP3    H150784   6.300   1.194   4.689  0.1578  1.5281 -0.2897
 8863TIP3    H250785   6.377   1.135   4.804 -1.7297  1.7985  1.1732
 8864TIP3   OH250786   6.061   0.074   5.283  0.2053  0.2536 -0.0883
 8864TIP3    H150787   6.149   0.110   5.274  0.6931 -0.9518 -0.3998
 8864TIP3    H250788   6.011   0.143   5.326  1.0602  1.3164 -0.7470
 8865TIP3   OH250789   2.123   3.774   4.442  0.1082  0.3589  0.0649
 8865TIP3    H150790   2.171   3.691   4.435 -2.1825 -1.2659  2.0690
 8865TIP3    H250791   2.141   3.818   4.359  0.8947 -2.4353 -1.3970
 8866TIP3   OH250792   0.683   2.440   5.812 -0.1527  0.1785 -0.0688
 8866TIP3    H150793   0.773   2.458   5.840  0.5764 -1.2397 -1.3991
 8866TIP3    H250794   0.646   2.386   5.882  0.3257 -0.0008  0.0447
 8867TIP3   OH250795   3.263   0.575   6.213  0.2588  0.1573  0.0781
 8867TIP3    H150796   3.258   0.616   6.299 -0.9053 -0.4913  0.3431
 8867TIP3    H250797   3.212   0.632   6.156 -0.7310 -0.4961  0.2860
 8868TIP3   OH250798   5.323   6.958   3.844  0.1429  0.3928  0.2149
 8868TIP3    H150799   5.393   6.951   3.909 -0.2567 -1.1528  0.5212
 8868TIP3    H250800   5.353   6.904   3.771 -0.0990  0.8649 -0.2321
 8869TIP3   OH250801   1.699   2.709   4.503 -0.3614 -0.3923  0.0890
 8869TIP3    H150802   1.652   2.686   4.422 -3.4018  1.8098  1.0231
 8869TIP3    H250803   1.778   2.754   4.473 -1.8876  1.2685 -1.7838
 8870TIP3   OH250804   4.566   6.187   6.043 -0.3616 -0.0442 -0.3528
 8870TIP3    H150805   4.505   6.114   6.029  0.5152 -0.3601 -3.3335
 8870TIP3    H250806   4.635   6.151   6.098 -1.1040 -0.7423  0.1476
 8871TIP3   OH250807   5.257   1.290   6.335 -0.0848 -0.1529 -0.4316
 8871TIP3    H150808   5.315   1.301   6.410  0.5351  1.1734 -1.0674
 8871TIP3    H250809   5.312   1.311   6.259 -1.1921  0.4007 -1.0997
 8872TIP3   OH250810   3.435   1.627   4.263  0.0976 -0.0551 -0.5403
 8872TIP3    H150811   3.530   1.626   4.275  0.1049  0.0173 -0.5917
 8872TIP3    H250812   3.411   1.535   4.254  0.3243 -0.0186 -1.7692
 8873TIP3   OH250813   7.233   0.529   5.224 -0.9577 -0.7797  0.6617
 8873TIP3    H150814   7.318   0.487   5.233  0.5077  1.1698 -2.3216
 8873TIP3    H250815   7.223   0.580   5.305  1.0305 -0.5664  0.8303
 8874TIP3   OH250816   2.220   5.042   4.724 -0.8904  0.2478  0.5567
 8874TIP3    H150817   2.166   4.969   4.753 -1.6228  0.8336  0.6944
 8874TIP3    H250818   2.174   5.120   4.754 -0.4629  0.7919 -0.1525
 8875TIP3   OH250819   5.586   5.473   6.878  0.2983 -0.2515  0.1172
 8875TIP3    H150820   5.501   5.503   6.910  0.4500 -1.1243  1.4115
 8875TIP3    H250821   5.597   5.386   6.916  2.0687  0.1147  0.5233
 8876TIP3   OH250822   6.458   5.398   4.344 -0.4552  0.1605  0.1612
 8876TIP3    H150823   6.417   5.431   4.264  0.1949 -0.7494 -0.5727
 8876TIP3    H250824   6.403   5.324   4.371  1.7949 -2.6040 -2.1409
 8877TIP3   OH250825   4.795   1.095   4.209 -0.5941 -0.1734 -0.3837
 8877TIP3    H150826   4.852   1.123   4.138 -0.2032  0.6436  0.2293
 8877TIP3    H250827   4.731   1.166   4.219 -1.3758 -0.8247 -0.6923
 8878TIP3   OH250828   0.847   3.238   4.650 -0.3952  0.1138  0.2835
 8878TIP3    H150829   0.836   3.168   4.585  2.2169 -0.2736  0.1461
 8878TIP3    H250830   0.873   3.193   4.730 -1.5556  0.7417  1.0322
 8879TIP3   OH250831   0.490   1.194   5.298  0.4545  1.0933  0.1107
 8879TIP3    H150832   0.517   1.247   5.223  2.2958 -1.3398 -1.0829
 8879TIP3    H250833   0.540   1.113   5.290 -0.6964 -0.0490  2.9585
 8880TIP3   OH250834   5.545   2.538   6.198 -0.0038 -0.2465 -0.4015
 8880TIP3    H150835   5.558   2.510   6.289 -1.2525  0.6949  0.1058
 8880TIP3    H250836   5.620   2.594   6.179 -0.8045  1.3792  0.8651
 8881TIP3   OH250837   5.608   2.525   6.471 -0.0995  0.2084 -0.7103
 8881TIP3    H150838   5.553   2.474   6.531  1.5650 -0.9632 -0.1128
 8881TIP3    H250839   5.673   2.463   6.440  1.0403  1.6079 -1.2013
 8882TIP3   OH250840   3.311   2.006   5.992  0.4072  0.0991 -0.2688
 8882TIP3    H150841   3.291   1.943   6.061  2.5792 -0.1825  0.1593
 8882TIP3    H250842   3.227   2.019   5.947  0.0040 -3.9917 -1.1489
 8883TIP3   OH250843   7.366   1.561   6.239 -0.3703 -0.0299  0.1592
 8883TIP3    H150844   7.382   1.550   6.145  0.6201 -1.9704  0.5013
 8883TIP3    H250845   7.450   1.593   6.273 -0.6653  0.4696  0.4201
 8884TIP3   OH250846   2.962   6.233   5.966  0.0881  0.1696 -0.5755
 8884TIP3    H150847   3.037   6.224   6.024  1.7709  1.5806 -2.3730
 8884TIP3    H250848   2.956   6.149   5.921  1.5911  0.5185 -1.4857
 8885TIP3   OH250849   1.341   1.414   4.614 -0.6705 -0.1157 -0.1060
 8885TIP3    H150850   1.281   1.373   4.677  0.7328  0.3590  1.6173
 8885TIP3    H250851   1.384   1.340   4.571 -1.6341 -0.4466 -0.5337
 8886TIP3   OH250852   5.383   7.058   4.438  0.5220  1.2172 -0.0426
 8886TIP3    H150853   5.290   7.076   4.424  0.5859  0.7194 -1.2913
 8886TIP3    H250854   5.429   7.127   4.390  0.7987  1.1708  0.1494
 8887TIP3   OH250855   6.990   2.813   5.444 -0.2070  0.0920 -0.0035
 8887TIP3    H150856   6.950   2.758   5.512 -0.4643 -1.0407 -1.0314
 8887TIP3    H250857   7.062   2.857   5.488  1.4110 -2.7379  0.4074
 8888TIP3   OH250858   6.892   1.665   5.072 -0.3135 -0.5263 -0.3438
 8888TIP3    H150859   6.817   1.653   5.014  0.0885 -0.7300 -0.8280
 8888TIP3    H250860   6.965   1.625   5.025  0.5973  1.7050 -0.9549
 8889TIP3   OH250861   2.992   0.107   3.861 -0.0877  0.5082 -0.7800
 8889TIP3    H150862   2.916   0.106   3.918  0.2097  2.6828 -0.2691
 8889TIP3    H250863   3.051   0.171   3.900  1.2838  0.1057 -2.0878
 8890TIP3   OH250864   4.819   3.563   3.450  0.3011 -0.0535  0.1434
 8890TIP3    H150865   4.730   3.535   3.431 -1.0809  3.0331  1.3498
 8890TIP3    H250866   4.832   3.642   3.397  0.6221  1.9965  2.9899
 8891TIP3   OH250867   0.608   0.754   5.547  0.5442  0.1577  0.0580
 8891TIP3    H150868   0.557   0.676   5.526  1.0790  0.2716 -1.8604
 8891TIP3    H250869   0.698   0.723   5.554  0.3698  0.0634  2.7901
 8892TIP3   OH250870   4.033   0.308   4.851 -0.0587 -0.3513  0.0255
 8892TIP3    H150871   4.000   0.370   4.785 -0.1297  0.7059  1.0219
 8892TIP3    H250872   4.125   0.332   4.861 -0.5816  1.1208  1.9966
 8893TIP3   OH250873   5.412   6.881   5.820 -0.1186 -0.1223 -0.4157
 8893TIP3    H150874   5.404   6.789   5.844  0.7910 -0.5406 -1.6307
 8893TIP3    H250875   5.500   6.906   5.848 -0.4262  0.4475  0.0769
 8894TIP3   OH250876   3.327   3.186   4.527 -0.0448  0.0714  0.5596
 8894TIP3    H150877   3.410   3.155   4.562  0.7109  1.2514 -0.0734
 8894TIP3    H250878   3.353   3.251   4.461 -1.4023 -1.3021 -1.4341
 8895TIP3   OH250879   1.478   6.330   5.901  0.2388 -0.1422 -0.3065
 8895TIP3    H150880   1.426   6.341   5.981 -0.5190 -1.3712 -0.6133
 8895TIP3    H250881   1.566   6.360   5.926  0.1443 -0.9534  1.1468
 8896TIP3   OH250882   7.211   3.558   6.128  0.9953 -0.5710 -0.0101
 8896TIP3    H150883   7.297   3.601   6.120  0.8192  0.2263  1.8907
 8896TIP3    H250884   7.219   3.503   6.206 -0.0717 -0.8935 -0.1153
 8897TIP3   OH250885   0.301   5.680   5.108 -0.0654 -0.4036 -0.1137
 8897TIP3    H150886   0.282   5.771   5.085 -1.1907 -0.2647  1.2538
 8897TIP3    H250887   0.308   5.635   5.024 -1.3429  0.5910 -0.7846
 8898TIP3   OH250888   0.239   4.572   6.367  0.2805  0.2182 -0.1185
 8898TIP3    H150889   0.317   4.526   6.336  0.3180  0.0716  0.1890
 8898TIP3    H250890   0.255   4.588   6.460  0.4433  1.2101 -0.2977
 8899TIP3   OH250891   1.610   6.236   5.165  0.5613  0.2265 -0.0485
 8899TIP3    H150892   1.667   6.227   5.089 -0.0428  0.2106 -0.5153
 8899TIP3    H250893   1.646   6.310   5.214  0.3343  0.9510 -0.9353
 8900TIP3   OH250894   6.250   5.775   4.753 -0.3723  0.2831 -0.1114
 8900TIP3    H150895   6.155   5.772   4.766 -0.4090 -3.0789 -0.2228
 8900TIP3    H250896   6.260   5.770   4.658 -0.1195 -0.5762 -0.0483
 8901TIP3   OH250897   2.160   5.004   3.844  0.4178  0.3709  0.1045
 8901TIP3    H150898   2.205   4.948   3.780 -0.0575 -0.7128  0.6787
 8901TIP3    H250899   2.169   4.957   3.927  0.7058  1.5717  0.7817
 8902TIP3   OH250900   2.694   7.495   6.159  0.2099  0.3053  0.0032
 8902TIP3    H150901   2.742   7.469   6.237 -0.6777 -0.4686  0.3094
 8902TIP3    H250902   2.654   7.580   6.182 -1.9438 -0.9628  1.2824
 8903TIP3   OH250903   3.248   3.542   5.761 -1.0739  0.0936 -0.1039
 8903TIP3    H150904   3.326   3.597   5.756 -1.5937  0.7785 -1.0741
 8903TIP3    H250905   3.252   3.501   5.847  0.8284 -0.5858 -0.4778
 8904TIP3   OH250906   6.784   6.071   4.660 -0.8410  0.1049  0.0355
 8904TIP3    H150907   6.811   5.981   4.676 -2.4389 -0.2581  0.8790
 8904TIP3    H250908   6.798   6.084   4.566  4.6891  0.8639  0.5857
 8905TIP3   OH250909   2.636   1.265   4.183  0.6213 -0.3349 -0.5602
 8905TIP3    H150910   2.667   1.356   4.193  0.3669 -0.0237 -2.3547
 8905TIP3    H250911   2.641   1.229   4.272  0.4238  1.5292  0.2642
 8906TIP3   OH250912   0.158   5.474   5.702  0.1054  0.1942 -0.5046
 8906TIP3    H150913   0.126   5.414   5.769 -0.2646  0.8695 -0.0644
 8906TIP3    H250914   0.253   5.477   5.715  0.0391  0.2842 -0.0428
 8907TIP3   OH250915   0.296   1.169   5.466 -0.1851 -0.1148 -0.2321
 8907TIP3    H150916   0.217   1.221   5.449  0.0535  0.1701 -0.4743
 8907TIP3    H250917   0.364   1.210   5.412  0.1099 -0.4077 -0.0851
 8908TIP3   OH250918   6.870   1.321   5.091  0.3950  0.1885 -0.4575
 8908TIP3    H150919   6.899   1.303   5.002  0.9529  1.1372 -0.4814
 8908TIP3    H250920   6.798   1.383   5.081 -1.0134 -1.3556 -0.3410
 8909TIP3   OH250921   4.285   6.994   4.536 -0.3785  0.1422 -0.3064
 8909TIP3    H150922   4.344   6.947   4.594 -0.6502  1.2235  0.9121
 8909TIP3    H250923   4.199   6.985   4.577 -0.6418  0.6382 -0.7327
 8910TIP3   OH250924   2.572   2.268   3.886 -0.6776 -0.2433  0.1999
 8910TIP3    H150925   2.482   2.278   3.857 -0.1721 -0.3796 -1.5760
 8910TIP3    H250926   2.625   2.292   3.809  0.7725 -0.9706  0.9168
 8911TIP3   OH250927   5.138   5.754   4.797  0.6090  0.0214  0.0264
 8911TIP3    H150928   5.156   5.731   4.706 -0.3979 -0.2876 -0.1057
 8911TIP3    H250929   5.172   5.843   4.807  1.8037 -0.3812 -0.3085
 8912TIP3   OH250930   0.671   0.939   4.243 -0.1126  0.4379 -0.2788
 8912TIP3    H150931   0.577   0.947   4.260 -0.4347  0.2820 -1.8126
 8912TIP3    H250932   0.695   0.853   4.279 -0.9535 -0.2931 -1.3964
 8913TIP3   OH250933   5.112   0.054   6.434  0.3595  0.1080 -0.4871
 8913TIP3    H150934   5.152  -0.015   6.380 -0.5486  1.2392 -2.7309
 8913TIP3    H250935   5.181   0.119   6.445  0.3452  0.1835 -0.8507
 8914TIP3   OH250936   5.708   3.416   4.984 -0.5000 -0.4596  0.3072
 8914TIP3    H150937   5.657   3.463   4.919  0.4288 -1.8236 -1.4829
 8914TIP3    H250938   5.746   3.485   5.039 -2.0484  0.6767  0.0218
 8915TIP3   OH250939   6.159   4.004   4.995 -0.2632  0.0301 -0.3388
 8915TIP3    H150940   6.133   3.985   4.905 -0.9167  2.4700 -0.7591
 8915TIP3    H250941   6.198   4.092   4.990 -0.0719  0.0980  1.7067
 8916TIP3   OH250942   7.200   2.633   5.161  0.2666  0.6558  0.1111
 8916TIP3    H150943   7.275   2.583   5.194 -0.6222 -1.0531 -0.3485
 8916TIP3    H250944   7.240   2.702   5.108  1.5392  0.1982  0.4353
 8917TIP3   OH250945   3.644   1.730   6.094 -0.9430  0.2133 -0.3033
 8917TIP3    H150946   3.615   1.687   6.174 -0.4960  0.9569  0.2684
 8917TIP3    H250947   3.722   1.779   6.119 -0.5582  0.1349 -1.2849
 8918TIP3   OH250948   6.388   0.152   5.453  0.6535  0.1185  0.1005
 8918TIP3    H150949   6.351   0.126   5.538  0.6450  1.5624  0.5656
 8918TIP3    H250950   6.476   0.114   5.453  2.0021  2.8860  2.3041
 8919TIP3   OH250951   7.534   5.920   5.924  0.0802  0.2860 -0.4763
 8919TIP3    H150952   7.492   5.921   5.837  0.8214  0.4535 -0.8382
 8919TIP3    H250953   7.576   5.834   5.928 -1.6841 -0.5960  0.5808
 8920TIP3   OH250954   7.620   0.067   5.976 -0.3800  0.0160  0.3300
 8920TIP3    H150955   7.539   0.065   5.926  0.0865  0.9953 -0.4827
 8920TIP3    H250956   7.598   0.022   6.058 -1.8955  0.7567  0.3612
 8921TIP3   OH250957   6.937   2.939   5.187  0.0487 -0.6494  0.4670
 8921TIP3    H150958   6.974   2.862   5.143  2.7776  0.0506  1.3755
 8921TIP3    H250959   6.957   2.926   5.279  0.5997  1.1375  0.6396
 8922TIP3   OH250960   2.794   3.034   5.477  0.0058 -0.1526 -0.1088
 8922TIP3    H150961   2.768   2.943   5.463 -1.3382  0.1005  0.5204
 8922TIP3    H250962   2.890   3.032   5.481  0.0455 -1.3749 -1.1116
 8923TIP3   OH250963   1.512   5.792   5.188  0.3330 -0.3558  0.3776
 8923TIP3    H150964   1.606   5.802   5.203  0.2577 -0.0755  0.6656
 8923TIP3    H250965   1.500   5.818   5.097  0.5976 -0.8177  0.2067
 8924TIP3   OH250966   6.917   0.907   5.364 -0.0933 -0.1631  0.2211
 8924TIP3    H150967   6.912   1.001   5.348  0.4958  0.0521  1.1910
 8924TIP3    H250968   7.008   0.884   5.348 -0.5138 -0.8678 -1.3865
 8925TIP3   OH250969   4.311   4.209   6.156 -0.1524  0.0318 -0.0292
 8925TIP3    H150970   4.300   4.226   6.250  0.0832  1.7531 -0.2734
 8925TIP3    H250971   4.406   4.202   6.144 -0.1366  0.6067 -0.2554
 8926TIP3   OH250972   2.673   1.751   4.896 -0.1288 -0.3230 -0.5021
 8926TIP3    H150973   2.727   1.803   4.956  1.5080 -0.2383 -1.9880
 8926TIP3    H250974   2.592   1.735   4.945  0.6898  0.7033  1.2814
 8927TIP3   OH250975   2.999   2.308   3.881 -0.3170 -0.3084  0.1994
 8927TIP3    H150976   2.914   2.280   3.914 -0.5470  0.5395  0.3600
 8927TIP3    H250977   3.028   2.375   3.943 -0.4928  0.9129 -0.9879
 8928TIP3   OH250978   5.716   1.825   4.994 -0.2674 -0.6008 -0.5737
 8928TIP3    H150979   5.720   1.808   4.900 -3.2422 -0.3424 -0.8479
 8928TIP3    H250980   5.777   1.897   5.009  0.2229 -0.6329 -2.3053
 8929TIP3   OH250981   3.916   4.584   5.651  0.2847 -0.4974 -0.8793
 8929TIP3    H150982   3.860   4.543   5.585 -0.0189 -2.0354  0.2883
 8929TIP3    H250983   3.938   4.514   5.712  1.8243  0.5370 -0.1704
 8930TIP3   OH250984   2.949   1.450   5.883  0.3565 -0.0780 -0.1996
 8930TIP3    H150985   2.922   1.539   5.907  0.7935  0.0478 -0.1653
 8930TIP3    H250986   2.967   1.408   5.967  0.0368 -0.2330 -0.2104
 8931TIP3   OH250987   3.262   2.183   4.572 -0.0333 -0.5582 -0.3722
 8931TIP3    H150988   3.280   2.194   4.479 -0.1389  0.7421 -0.2550
 8931TIP3    H250989   3.201   2.253   4.594 -0.8448 -1.4838  0.4596
 8932TIP3   OH250990   4.761   3.151   5.246 -0.0346  0.2695  0.0622
 8932TIP3    H150991   4.826   3.094   5.287 -1.5092 -0.7412  1.1120
 8932TIP3    H250992   4.797   3.170   5.159  1.8581  0.1475  0.7640
 8933TIP3   OH250993   7.318   5.598   4.821  0.2319  0.2297  0.1049
 8933TIP3    H150994   7.344   5.543   4.896  0.8870 -0.0641 -0.3281
 8933TIP3    H250995   7.258   5.543   4.771  1.3475 -0.3459 -0.6493
 8934TIP3   OH250996   0.892   2.887   4.248  0.1129  0.0083  0.4504
 8934TIP3    H150997   0.860   2.846   4.329  1.6922  1.2361  1.7728
 8934TIP3    H250998   0.951   2.822   4.211 -1.1611 -0.8524 -0.1393
 8935TIP3   OH250999   5.733   5.393   4.984 -0.4864  0.2646  0.1653
 8935TIP3    H151000   5.641   5.383   4.960 -0.1524 -4.2007 -0.0734
 8935TIP3    H251001   5.741   5.348   5.068  1.6566 -0.5949 -0.4395
 8936TIP3   OH251002   4.761   5.485   4.489 -0.3600  0.0454  0.5510
 8936TIP3    H151003   4.741   5.393   4.475 -0.3306 -0.0952  1.3806
 8936TIP3    H251004   4.852   5.494   4.461  0.0786 -0.4934  1.7439
 8937TIP3   OH251005   3.564   6.040   6.395  0.0847 -0.1484  0.1621
 8937TIP3    H151006   3.544   5.947   6.408  1.7885 -0.9988 -2.5122
 8937TIP3    H251007   3.657   6.048   6.415  1.0215 -0.0445 -3.4499
 8938TIP3   OH251008   6.023   5.558   5.830  0.2896  0.5224  0.5003
 8938TIP3    H151009   6.026   5.546   5.925 -1.4967 -0.1528  0.5030
 8938TIP3    H251010   6.114   5.551   5.803  0.9407  1.5068  2.2415
 8939TIP3   OH251011   0.118   2.445   5.163 -0.1339 -0.6195 -0.6489
 8939TIP3    H151012   0.077   2.371   5.208  0.0532 -0.9869 -1.0610
 8939TIP3    H251013   0.081   2.523   5.204  0.5612 -0.9381  0.6098
 8940TIP3   OH251014   3.844   1.894   6.173 -0.3755  0.0719 -0.4719
 8940TIP3    H151015   3.927   1.921   6.134  0.1392  0.9276  1.1204
 8940TIP3    H251016   3.794   1.975   6.183 -1.0197 -0.3058 -0.5659
 8941TIP3   OH251017   6.280   6.192   3.674  0.1583  0.1377  0.0393
 8941TIP3    H151018   6.279   6.249   3.751  1.5146 -1.6661  1.4814
 8941TIP3    H251019   6.355   6.222   3.623 -0.4805  1.0486 -0.4081
 8942TIP3   OH251020   5.463   1.586   4.547 -0.0900 -0.3814 -0.1925
 8942TIP3    H151021   5.428   1.627   4.626 -0.2919 -0.2673 -0.3416
 8942TIP3    H251022   5.488   1.659   4.491 -1.8689 -0.4060 -1.1074
 8943TIP3   OH251023   6.607   3.835   4.020  0.0374  0.1420  1.2527
 8943TIP3    H151024   6.653   3.898   4.077  0.8298  1.3701 -0.6455
 8943TIP3    H251025   6.517   3.836   4.052  0.3857  1.0324  2.2815
 8944TIP3   OH251026   3.834   2.387   6.686  0.1366 -0.2702 -0.1971
 8944TIP3    H151027   3.885   2.306   6.686  0.7811  0.1235  0.0839
 8944TIP3    H251028   3.850   2.424   6.599  0.2785 -0.1820 -0.1344
 8945TIP3   OH251029   3.889   0.653   6.439 -0.0730  0.4372 -0.3883
 8945TIP3    H151030   3.879   0.590   6.510 -0.2463 -0.3215 -1.0765
 8945TIP3    H251031   3.833   0.726   6.464 -4.6434 -2.0051 -2.2489
 8946TIP3   OH251032   2.038   4.824   4.852 -0.1920  0.0242  0.5622
 8946TIP3    H151033   2.037   4.742   4.803 -1.0898 -0.8329  1.9420
 8946TIP3    H251034   2.098   4.808   4.925 -0.6338  0.4686  1.0339
 8947TIP3   OH251035   3.143   2.090   5.077 -0.3388  0.1585 -0.2640
 8947TIP3    H151036   3.099   2.166   5.039  1.1549  1.1342 -0.1202
 8947TIP3    H251037   3.219   2.075   5.020  0.2421 -0.2558  0.5913
 8948TIP3   OH251038   1.444   0.899   4.307 -0.1794  0.0946 -0.4640
 8948TIP3    H151039   1.458   0.825   4.365  0.9441  0.4397 -0.2726
 8948TIP3    H251040   1.349   0.908   4.301 -0.3431  0.3741  1.7354
 8949TIP3   OH251041   4.250   5.015   5.956  0.0131 -0.5859  1.1876
 8949TIP3    H151042   4.176   4.956   5.970 -2.8531  2.6707  1.0542
 8949TIP3    H251043   4.278   4.998   5.866  1.2648 -3.6077  2.0314
 8950TIP3   OH251044   7.386   4.305   4.173 -0.1133 -0.2774  0.1346
 8950TIP3    H151045   7.336   4.343   4.100 -0.4719 -0.3474  0.3422
 8950TIP3    H251046   7.423   4.224   4.137  1.3460  0.6459 -0.5758
 8951TIP3   OH251047   1.236   1.483   5.737  0.0545 -0.3618 -0.2961
 8951TIP3    H151048   1.331   1.476   5.726  0.5428  1.6339  1.9552
 8951TIP3    H251049   1.219   1.577   5.741 -2.1432 -0.6537 -1.2182
 8952TIP3   OH251050   4.712   3.258   4.319  0.5003 -0.1237 -0.2407
 8952TIP3    H151051   4.759   3.211   4.250 -0.4291 -1.1261 -0.2177
 8952TIP3    H251052   4.777   3.318   4.356  1.6402 -1.1741 -0.4797
 8953TIP3   OH251053   7.405   7.678   5.742 -0.3476 -0.7304 -0.1047
 8953TIP3    H151054   7.312   7.657   5.748 -0.7354  0.8858 -0.0164
 8953TIP3    H251055   7.410   7.771   5.761  1.4269 -0.9956  0.9853
 8954TIP3   OH251056   1.296   0.988   3.738  0.0465 -0.2061 -0.4978
 8954TIP3    H151057   1.382   1.007   3.777 -0.2409  0.8547 -0.3509
 8954TIP3    H251058   1.301   1.025   3.650 -0.3821  0.1839 -0.3586
 8955TIP3   OH251059   2.343   4.177   5.515 -0.0379  0.3293 -0.3266
 8955TIP3    H151060   2.321   4.228   5.594  0.6550  0.6489 -0.3270
 8955TIP3    H251061   2.439   4.173   5.516 -0.0062  0.6939 -1.3835
 8956TIP3   OH251062   6.110   2.799   3.921 -0.1629 -0.0739  0.1620
 8956TIP3    H151063   6.147   2.766   4.003 -0.1825  0.7742  0.5248
 8956TIP3    H251064   6.017   2.775   3.925 -0.1838  0.0445  0.4435
 8957TIP3   OH251065   4.754   6.695   3.834  0.1317  0.2894  0.4891
 8957TIP3    H151066   4.722   6.619   3.883 -0.3080 -0.4286 -0.8824
 8957TIP3    H251067   4.678   6.752   3.824  0.3087  0.6150  0.9387
 8958TIP3   OH251068   3.812   5.314   4.488 -0.5324  0.3197  0.1556
 8958TIP3    H151069   3.901   5.279   4.488 -0.2874  0.7925  2.0208
 8958TIP3    H251070   3.758   5.243   4.452  0.4444 -0.4843  0.2329
 8959TIP3   OH251071   3.262   4.369   5.194 -0.5418 -0.1518  0.4645
 8959TIP3    H151072   3.320   4.305   5.154 -0.6958 -0.1573  0.2557
 8959TIP3    H251073   3.286   4.367   5.287 -0.2051 -0.1541  0.3800
 8960TIP3   OH251074   4.751   6.176   5.189 -0.2247 -0.3134 -0.7300
 8960TIP3    H151075   4.818   6.220   5.241 -0.6838 -0.9442  0.4106
 8960TIP3    H251076   4.670   6.192   5.236 -0.7649 -0.2689 -1.6577
 8961TIP3   OH251077   4.200   2.419   4.857  0.4010  0.1804  0.1034
 8961TIP3    H151078   4.233   2.396   4.944  0.4707  0.7306  0.2289
 8961TIP3    H251079   4.107   2.401   4.861  0.8854 -3.0243 -0.7861
 8962TIP3   OH251080   6.099   1.672   4.243  0.2927  0.0519 -0.1595
 8962TIP3    H151081   6.187   1.666   4.280  0.5381 -0.0209 -0.7387
 8962TIP3    H251082   6.049   1.604   4.287 -0.0678  1.4646  1.7427
 8963TIP3   OH251083   1.887   6.831   4.405 -0.1224 -0.6795  0.5747
 8963TIP3    H151084   1.927   6.889   4.470 -0.9055 -0.8115  1.1826
 8963TIP3    H251085   1.945   6.754   4.403  0.5903 -0.1446  0.1961
 8964TIP3   OH251086   6.731   1.352   5.435  0.0633  0.1707 -0.1429
 8964TIP3    H151087   6.669   1.297   5.482  1.8539 -0.3688  1.7297
 8964TIP3    H251088   6.680   1.429   5.409 -1.0358  0.5631  2.8085
 8965TIP3   OH251089   7.281   4.293   5.686 -0.5272 -0.0881  0.0475
 8965TIP3    H151090   7.245   4.210   5.657  1.6500  0.0069 -3.4970
 8965TIP3    H251091   7.351   4.269   5.747 -1.1735 -0.6934  0.5701
 8966TIP3   OH251092   6.404   5.755   5.001 -0.1728 -0.4022  0.0425
 8966TIP3    H151093   6.394   5.742   4.906  0.9767  1.7866 -0.4640
 8966TIP3    H251094   6.497   5.776   5.012 -0.2476 -0.8278  1.6947
 8967TIP3   OH251095   5.329   5.334   6.062  0.1589 -0.2898  0.0009
 8967TIP3    H151096   5.392   5.315   5.992  1.0587 -0.1138  0.7456
 8967TIP3    H251097   5.381   5.335   6.142 -0.8892 -0.6877  0.7143
 8968TIP3   OH251098   3.265   2.181   3.973 -0.1318 -0.1056  0.1022
 8968TIP3    H151099   3.188   2.211   3.925  0.0715  0.7984  0.3229
 8968TIP3    H251100   3.310   2.261   3.998  1.6712 -0.6311 -1.2728
 8969TIP3   OH251101   5.143   4.574   4.672 -0.2905  0.3049 -0.2950
 8969TIP3    H151102   5.062   4.609   4.635 -0.3783 -0.4727 -0.8623
 8969TIP3    H251103   5.117   4.533   4.754 -0.2482  1.1892  0.1815
 8970TIP3   OH251104   3.231   6.468   4.163  0.1900  0.5684  0.3988
 8970TIP3    H151105   3.283   6.389   4.166 -1.5627 -0.6859 -0.4202
 8970TIP3    H251106   3.164   6.451   4.096 -0.7729  2.3900  0.8105
 8971TIP3   OH251107   6.776   3.950   5.319  0.0561  0.7352 -0.6433
 8971TIP3    H151108   6.840   3.987   5.258  1.5360  0.8706  0.9296
 8971TIP3    H251109   6.745   4.025   5.370 -1.3802  0.6670 -1.3689
 8972TIP3   OH251110   4.009   1.954   4.204  0.1568  0.6951 -0.1871
 8972TIP3    H151111   3.967   1.973   4.288  0.0947  0.5493 -0.1845
 8972TIP3    H251112   3.936   1.941   4.144  0.1628 -0.8348  0.0965
 8973TIP3   OH251113   4.928   3.746   4.906 -0.4600  0.0450 -0.2468
 8973TIP3    H151114   4.918   3.709   4.993  0.3630  0.3610 -0.0023
 8973TIP3    H251115   4.894   3.835   4.913  0.2022  0.2896 -0.0680
 8974TIP3   OH251116   1.953   1.780   4.060 -0.6302  0.5923 -0.3418
 8974TIP3    H151117   1.969   1.868   4.026 -2.2168  1.1709  0.3123
 8974TIP3    H251118   1.993   1.780   4.147 -0.2898  0.5373 -0.4986
 8975TIP3   OH251119   0.501   1.312   4.481 -0.6098  0.1366 -0.1101
 8975TIP3    H151120   0.410   1.329   4.456 -0.6914  1.0123  0.7111
 8975TIP3    H251121   0.551   1.330   4.402 -0.8644  2.7630  0.2449
 8976TIP3   OH251122   0.792   1.730   6.328 -0.3408  0.3107  0.2829
 8976TIP3    H151123   0.725   1.747   6.394 -1.4496 -2.1439 -0.0782
 8976TIP3    H251124   0.838   1.652   6.360  1.3092  1.0092 -0.2666
 8977TIP3   OH251125   4.432   2.348   3.765 -0.0305  0.3365  0.5720
 8977TIP3    H151126   4.511   2.397   3.744  0.1955 -0.5931 -0.8822
 8977TIP3    H251127   4.452   2.258   3.740 -1.6216  0.1258 -0.0340
 8978TIP3   OH251128   7.351   2.339   4.600 -0.1277 -0.0940 -0.8160
 8978TIP3    H151129   7.421   2.291   4.645 -0.9273 -0.0309  0.5737
 8978TIP3    H251130   7.359   2.313   4.509 -1.8825 -4.7122  0.0837
 8979TIP3   OH251131   1.618   5.655   4.637  0.5535 -0.0701  0.3898
 8979TIP3    H151132   1.578   5.569   4.629  0.3191 -0.1169  1.7306
 8979TIP3    H251133   1.547   5.717   4.621  0.8954 -0.0881 -1.3742
 8980TIP3   OH251134   6.774   5.805   6.053 -0.4264 -0.1697  0.0897
 8980TIP3    H151135   6.740   5.889   6.084  1.0316  0.7511 -0.6879
 8980TIP3    H251136   6.722   5.785   5.975  1.2108  1.6764 -1.6220
 8981TIP3   OH251137   5.756   5.098   4.458 -0.9812 -0.4564 -0.4296
 8981TIP3    H151138   5.745   5.187   4.491 -2.4352 -1.4365  2.0182
 8981TIP3    H251139   5.850   5.089   4.444 -0.7959  1.4267 -0.6329
 8982TIP3   OH251140   4.569   4.266   5.503  0.1170 -0.7483  0.0172
 8982TIP3    H151141   4.505   4.332   5.527  1.8867  1.1838 -0.2076
 8982TIP3    H251142   4.556   4.253   5.409  0.7418  0.5173 -0.2721
 8983TIP3   OH251143   4.722   7.398   4.154 -0.3666 -1.2816 -0.0136
 8983TIP3    H151144   4.718   7.491   4.179 -1.3987 -1.6765  1.3933
 8983TIP3    H251145   4.780   7.397   4.078 -0.9642  0.6261 -0.5745
 8984TIP3   OH251146   7.633   0.859   4.239  0.0329 -1.0015  0.3266
 8984TIP3    H151147   7.635   0.905   4.323  0.9276 -0.4006 -0.0053
 8984TIP3    H251148   7.559   0.898   4.192  0.5717 -0.1163  0.1838
 8985TIP3   OH251149   5.274   0.247   5.017  0.1869  0.1090 -0.2311
 8985TIP3    H151150   5.265   0.272   4.925  1.0540 -1.9454 -0.9097
 8985TIP3    H251151   5.207   0.300   5.062  0.9462  2.4988 -1.7261
 8986TIP3   OH251152   7.101   4.769   5.926  0.2318 -0.1868  0.4025
 8986TIP3    H151153   7.132   4.721   6.003  0.4048 -0.2832  0.2721
 8986TIP3    H251154   7.077   4.701   5.863 -2.4943 -0.2179  1.3413
 8987TIP3   OH251155   1.417   3.403   5.016  0.3499  0.0794  0.0822
 8987TIP3    H151156   1.345   3.447   4.970 -0.2532  0.5288  1.4234
 8987TIP3    H251157   1.473   3.371   4.945 -0.6203  0.6171 -0.9784
 8988TIP3   OH251158   6.579   7.099   5.734  0.6512  0.6650  0.1759
 8988TIP3    H151159   6.555   7.007   5.738 -1.9674  1.2434 -0.5696
 8988TIP3    H251160   6.602   7.115   5.643  0.9543  0.7939  0.2728
 8989TIP3   OH251161   1.619   4.721   5.053  0.4611  0.4088 -0.9946
 8989TIP3    H151162   1.651   4.715   4.963 -0.4798  0.4893 -1.3453
 8989TIP3    H251163   1.545   4.782   5.048  0.8562  0.9865 -0.0378
 8990TIP3   OH251164   1.026   0.986   4.592 -0.1795  0.2940 -0.9153
 8990TIP3    H151165   1.096   0.928   4.623 -0.3889  0.6746  0.3398
 8990TIP3    H251166   0.946   0.937   4.609 -0.3121  0.6142 -0.5988
 8991TIP3   OH251167   7.150   5.209   4.880 -0.5340 -0.1274 -0.3086
 8991TIP3    H151168   7.075   5.151   4.881 -0.8004  0.2183 -0.0856
 8991TIP3    H251169   7.225   5.153   4.901 -0.8920 -0.2378  0.7036
 8992TIP3   OH251170   0.154   2.155   6.121 -0.2981 -0.0374  0.2013
 8992TIP3    H151171   0.245   2.183   6.115  0.0206 -1.3548 -2.2971
 8992TIP3    H251172   0.108   2.208   6.055 -1.1020 -0.2698  0.5541
 8993TIP3   OH251173   1.817   4.311   5.323  0.1944  0.2474 -0.0237
 8993TIP3    H151174   1.799   4.374   5.253  0.5208 -0.1319 -0.4622
 8993TIP3    H251175   1.912   4.296   5.317  0.2166  0.1818  0.4759
 8994TIP3   OH251176   2.979   1.513   3.724  0.0345  0.3279 -0.4205
 8994TIP3    H151177   3.021   1.481   3.644 -0.8892 -1.9799 -0.0921
 8994TIP3    H251178   3.047   1.510   3.790  0.2181 -0.0587 -0.6232
 8995TIP3   OH251179   4.311   0.455   4.289 -0.3734 -0.1904 -0.0707
 8995TIP3    H151180   4.267   0.374   4.261 -2.4566  0.8680 -0.0287
 8995TIP3    H251181   4.290   0.462   4.382  2.2890 -1.0675  0.6784
 8996TIP3   OH251182   4.549   4.677   5.231 -0.1621 -0.2602 -0.6377
 8996TIP3    H151183   4.532   4.727   5.311  0.7710 -1.1725  0.1529
 8996TIP3    H251184   4.577   4.591   5.261  2.0778 -0.0500 -1.8975
 8997TIP3   OH251185   6.998   3.654   4.250 -0.2303 -0.8615 -0.1642
 8997TIP3    H151186   6.949   3.668   4.169  0.1066 -0.7247 -0.3449
 8997TIP3    H251187   7.004   3.558   4.257 -0.7454 -0.8858 -0.0042
 8998TIP3   OH251188   1.048   0.259   4.371 -0.6711 -0.2123 -0.1020
 8998TIP3    H151189   1.095   0.280   4.452 -0.5517 -0.0937 -0.2013
 8998TIP3    H251190   1.097   0.186   4.333 -1.0628 -0.6526  0.2220
 8999TIP3   OH251191   3.451   0.925   5.196 -0.3271  0.0923 -0.4513
 8999TIP3    H151192   3.408   0.937   5.280  1.4307  1.1234  0.3283
 8999TIP3    H251193   3.498   1.006   5.180 -0.0354 -0.3564 -2.0921
 9000TIP3   OH251194   1.710   3.917   4.309 -0.1304  0.0536  0.2541
 9000TIP3    H151195   1.783   3.926   4.371 -0.0371  0.9288  0.0335
 9000TIP3    H251196   1.682   4.007   4.292 -0.3032 -0.1801 -0.7919
 9001TIP3   OH251197   0.465   5.366   6.209  0.3379  0.2362  0.5525
 9001TIP3    H151198   0.465   5.462   6.211  1.1221  0.2614 -0.2437
 9001TIP3    H251199   0.441   5.340   6.298  0.1951  1.1728  0.7934
 9002TIP3   OH251200   6.134   0.179   4.000  0.0283  0.0687 -0.0314
 9002TIP3    H151201   6.086   0.121   3.943  1.7669 -0.9856 -0.4939
 9002TIP3    H251202   6.220   0.189   3.959  0.1684  2.0912  0.6040
 9003TIP3   OH251203   6.030   7.103   6.470  0.4961 -0.0847  0.1697
 9003TIP3    H151204   6.047   7.156   6.392 -0.4859  0.0601  0.0481
 9003TIP3    H251205   5.994   7.164   6.534  0.8759 -0.2921  0.5875
 9004TIP3   OH251206   5.816   2.147   4.746  0.0618  0.2259  0.4877
 9004TIP3    H151207   5.835   2.241   4.747 -2.3082  0.7870  1.7618
 9004TIP3    H251208   5.843   2.117   4.833 -1.0998  0.2417  0.8841
 9005TIP3   OH251209   4.101   4.859   5.220 -0.2313 -0.0885 -0.1391
 9005TIP3    H151210   4.187   4.820   5.207  0.4028  1.0801  0.4019
 9005TIP3    H251211   4.042   4.785   5.231  1.1404 -0.9056  2.2926
 9006TIP3   OH251212   3.444   7.391   5.187  0.6335 -0.1084  0.2818
 9006TIP3    H151213   3.467   7.464   5.128 -1.7826  0.5236  0.0296
 9006TIP3    H251214   3.462   7.425   5.275  0.7071  0.3283  0.1022
 9007TIP3   OH251215   0.138   4.577   5.401  0.0824 -0.6065 -0.0746
 9007TIP3    H151216   0.195   4.503   5.424  0.0739 -1.4914 -2.5722
 9007TIP3    H251217   0.062   4.536   5.361 -0.8941  0.7119  0.3801
 9008TIP3   OH251218   0.918   5.134   3.756 -0.0994 -0.1301  0.1826
 9008TIP3    H151219   0.826   5.139   3.729  0.6798  0.4956 -2.6424
 9008TIP3    H251220   0.956   5.067   3.699  1.4062  0.2786  0.6611
 9009TIP3   OH251221   6.423   4.794   5.469  0.0319  0.1788 -0.0152
 9009TIP3    H151222   6.378   4.817   5.388 -0.2382 -1.7306 -0.4595
 9009TIP3    H251223   6.514   4.781   5.443  0.5313  2.3175  0.5522
 9010TIP3   OH251224   0.927   4.502   4.208  0.1052  0.2379  0.2695
 9010TIP3    H151225   0.997   4.522   4.270  0.8140  0.6213 -0.6254
 9010TIP3    H251226   0.968   4.509   4.122 -0.1448 -2.9694 -0.2306
 9011TIP3   OH251227   3.934   0.496   4.404 -0.3099  0.5301  0.7830
 9011TIP3    H151228   3.951   0.589   4.417 -0.0485  0.6997 -0.6125
 9011TIP3    H251229   3.916   0.487   4.310  0.7672 -0.9755  0.6686
 9012TIP3   OH251230   2.696   3.477   5.032 -0.1421  0.5275  0.0792
 9012TIP3    H151231   2.762   3.484   4.963 -0.1480  0.4589  0.0662
 9012TIP3    H251232   2.612   3.480   4.985 -0.1501 -2.1346 -0.1952
 9013TIP3   OH251233   5.451   3.410   4.256 -0.3011 -0.2282  0.2156
 9013TIP3    H151234   5.370   3.458   4.241 -0.7241 -1.4443 -1.7906
 9013TIP3    H251235   5.498   3.462   4.322 -2.8125  0.3234  1.6853
 9014TIP3   OH251236   3.304   5.035   5.610 -0.1320  0.3517 -0.5504
 9014TIP3    H151237   3.320   4.990   5.527 -0.9340 -0.0058 -0.5220
 9014TIP3    H251238   3.238   5.101   5.588  1.0258  1.5452 -0.5925
 9015TIP3   OH251239   3.830   4.222   4.583 -0.2890  0.2034  0.6589
 9015TIP3    H151240   3.740   4.189   4.580 -0.9689  1.9675  0.9039
 9015TIP3    H251241   3.842   4.267   4.500 -0.1184  1.1822  1.2064
 9016TIP3   OH251242   3.780   3.629   3.977 -0.4124  0.1355 -0.0500
 9016TIP3    H151243   3.696   3.583   3.966 -0.3057  0.0232 -0.3945
 9016TIP3    H251244   3.756   3.715   4.013 -0.6610  0.0378  0.0183
 9017TIP3   OH251245   0.985   3.664   5.703  0.6075 -0.4392 -0.1596
 9017TIP3    H151246   0.951   3.699   5.786  0.5164  0.0536 -0.4065
 9017TIP3    H251247   1.005   3.741   5.650 -0.2530 -0.7561 -0.9672
 9018TIP3   OH251248   5.182   3.565   6.209 -0.2356  0.1534 -0.3579
 9018TIP3    H151249   5.137   3.623   6.148  0.0084 -0.4579 -1.1401
 9018TIP3    H251250   5.115   3.501   6.234 -0.7405  1.1863  1.1295
 9019TIP3   OH251251   3.175   0.024   4.233 -0.0104  0.2794  0.4208
 9019TIP3    H151252   3.104   0.041   4.295 -0.0668 -2.7562  1.3686
 9019TIP3    H251253   3.254   0.024   4.287  0.3294  0.6145 -0.0724
 9020TIP3   OH251254   1.258   4.034   4.487 -0.0816 -0.0983  0.1765
 9020TIP3    H151255   1.314   3.983   4.428 -0.6903 -0.4443 -0.1166
 9020TIP3    H251256   1.170   4.003   4.468 -0.5698  1.6187 -0.5639
 9021TIP3   OH251257   0.310   7.080   5.224 -0.1714  0.4462 -0.0946
 9021TIP3    H151258   0.318   7.041   5.311 -0.2735  1.6081  0.4520
 9021TIP3    H251259   0.398   7.074   5.187 -0.2728 -0.6620 -0.2004
 9022TIP3   OH251260   4.056   6.430   3.807  0.1266  0.6446 -0.2962
 9022TIP3    H151261   4.113   6.493   3.850  0.8120 -1.0234  1.4040
 9022TIP3    H251262   4.082   6.345   3.844 -1.5367 -0.5076 -1.6030
 9023TIP3   OH251263   0.998   7.091   4.806 -0.2353 -0.1416 -0.3094
 9023TIP3    H151264   1.057   7.143   4.751  0.1269  0.3866  0.5351
 9023TIP3    H251265   1.038   7.096   4.893 -2.0511  1.0803  0.5168
 9024TIP3   OH251266   1.137   0.492   5.783  0.2184 -0.3871  0.7916
 9024TIP3    H151267   1.083   0.564   5.750  1.0489  0.3755  1.0598
 9024TIP3    H251268   1.184   0.529   5.858  3.8070  0.1056 -1.4677
 9025TIP3   OH251269   2.413   5.354   5.314  0.1655  0.3221 -0.0129
 9025TIP3    H151270   2.372   5.330   5.397  3.5571  1.3728  2.1630
 9025TIP3    H251271   2.415   5.450   5.315 -0.5661  0.3958 -1.8072
 9026TIP3   OH251272   6.491   0.347   4.202  0.0012 -0.2220 -0.2883
 9026TIP3    H151273   6.571   0.375   4.247  0.1207 -1.0249  0.0217
 9026TIP3    H251274   6.458   0.426   4.161  0.9550  0.1308 -0.4188
 9027TIP3   OH251275   0.994   1.860   3.810  0.4258 -0.4511 -0.6273
 9027TIP3    H151276   0.965   1.951   3.802  0.1297 -0.4350  0.4654
 9027TIP3    H251277   1.089   1.865   3.811  0.4029 -0.0144  0.7546
 9028TIP3   OH251278   4.999   6.084   5.499 -0.0965  0.4700  0.1231
 9028TIP3    H151279   4.940   6.010   5.507 -0.4003  0.7708  0.7334
 9028TIP3    H251280   4.971   6.145   5.567  0.8818  0.6460  0.3902
 9029TIP3   OH251281   2.748   1.813   3.540  0.1001  0.0109  0.4050
 9029TIP3    H151282   2.837   1.821   3.574  1.0408 -0.8828 -1.6628
 9029TIP3    H251283   2.757   1.758   3.462 -2.4434 -1.0730  0.7750
 9030TIP3   OH251284   4.883   6.228   5.695  0.0525 -0.1233  0.8048
 9030TIP3    H151285   4.832   6.307   5.710  1.3482  0.3491  3.3330
 9030TIP3    H251286   4.941   6.222   5.771  1.4759 -2.3748 -0.3349
 9031TIP3   OH251287   5.644   6.439   5.797 -0.1855 -1.2548 -0.1155
 9031TIP3    H151288   5.651   6.462   5.705  1.3715 -1.3178 -0.0433
 9031TIP3    H251289   5.724   6.475   5.837 -0.7422 -1.3785  1.1674
 9032TIP3   OH251290   5.030   4.101   5.594 -0.3607  0.7647  0.5651
 9032TIP3    H151291   5.124   4.087   5.586 -0.4348  1.4668 -2.5641
 9032TIP3    H251292   5.022   4.183   5.641  0.6090  0.9101  0.4987
 9033TIP3   OH251293   2.784   5.888   6.062  0.2931  0.0171  0.0299
 9033TIP3    H151294   2.707   5.837   6.089  2.5492 -2.1348  3.0499
 9033TIP3    H251295   2.792   5.956   6.128  1.3025 -0.1528  0.0859
 9034TIP3   OH251296   2.798   4.714   6.380 -0.3002  0.3834  0.1273
 9034TIP3    H151297   2.887   4.725   6.413  0.1724 -1.8776 -0.2268
 9034TIP3    H251298   2.808   4.711   6.285 -0.6440 -0.5770  0.1119
 9035TIP3   OH251299   2.500   7.343   4.527 -0.2189  0.1684  0.1701
 9035TIP3    H151300   2.517   7.380   4.440 -1.6096  0.3418 -0.0599
 9035TIP3    H251301   2.477   7.419   4.581 -0.8706 -0.1018  0.2836
 9036TIP3   OH251302   4.944   3.383   4.395 -0.0990  0.6270  0.2581
 9036TIP3    H151303   4.939   3.463   4.448  0.3767  0.8756 -0.0595
 9036TIP3    H251304   4.991   3.320   4.450 -0.9119  0.3976  0.7028
 9037TIP3   OH251305   4.029   1.521   5.453 -0.0751 -0.2244 -0.2286
 9037TIP3    H151306   4.116   1.494   5.424 -0.3287  0.0811 -1.3179
 9037TIP3    H251307   4.015   1.472   5.534 -0.1379 -2.7101 -1.6196
 9038TIP3   OH251308   6.634   5.576   5.292  0.0785  0.0406  0.5787
 9038TIP3    H151309   6.719   5.596   5.251 -0.6679  1.0984 -0.5118
 9038TIP3    H251310   6.603   5.661   5.324 -0.6412 -0.3112  0.8276
 9039TIP3   OH251311   1.223   5.991   4.792  0.4678  0.1635  0.2164
 9039TIP3    H151312   1.160   5.991   4.864  1.1697  0.5051  0.8594
 9039TIP3    H251313   1.283   6.063   4.814 -0.3849  1.5552 -1.6971
 9040TIP3   OH251314   0.781   1.661   4.808 -0.1850 -0.5511  0.5102
 9040TIP3    H151315   0.734   1.606   4.745 -0.0496 -0.3505  0.2294
 9040TIP3    H251316   0.770   1.616   4.892 -2.9363  0.7036  0.9325
 9041TIP3   OH251317   2.150   5.562   3.817  0.1221  0.3339  0.6129
 9041TIP3    H151318   2.068   5.543   3.863  1.1268  0.0901  2.3710
 9041TIP3    H251319   2.134   5.532   3.728 -1.4734 -0.3382  1.0872
 9042TIP3   OH251320   1.450   4.217   4.430  0.3692 -0.1024 -0.0290
 9042TIP3    H151321   1.521   4.175   4.382  0.4325 -0.0976  0.0608
 9042TIP3    H251322   1.391   4.146   4.453  0.0286 -0.0285 -0.6369
 9043TIP3   OH251323   2.510   0.941   6.457  0.0702  0.6586  0.2842
 9043TIP3    H151324   2.548   0.875   6.399  0.9345  0.9487  0.4981
 9043TIP3    H251325   2.545   0.920   6.543 -0.6713  0.6334  0.5827
 9044TIP3   OH251326   0.705   4.164   5.714 -0.5289  0.0425  0.3006
 9044TIP3    H151327   0.665   4.080   5.732  0.9477 -0.4537  1.4517
 9044TIP3    H251328   0.750   4.188   5.795  1.7013  0.4079 -0.9553
 9045TIP3   OH251329   7.539   4.631   4.380  0.5734  0.3505  0.0235
 9045TIP3    H151330   7.570   4.717   4.352  1.3607  0.0015 -0.1981
 9045TIP3    H251331   7.581   4.616   4.465  1.5773 -0.4115 -0.5868
 9046TIP3   OH251332   6.114   1.350   5.621  0.3486 -0.1006 -0.2888
 9046TIP3    H151333   6.099   1.282   5.687 -0.0036  0.6427  0.4059
 9046TIP3    H251334   6.196   1.324   5.579  0.2019 -0.9718 -0.0538
 9047TIP3   OH251335   5.590   4.385   6.588 -0.3641 -0.0507 -0.4178
 9047TIP3    H151336   5.501   4.392   6.552 -0.1894 -0.6552 -1.0097
 9047TIP3    H251337   5.583   4.319   6.657 -0.4382  0.1362 -0.2464
 9048TIP3   OH251338   3.048   1.299   4.110  0.7394 -0.0158 -0.2553
 9048TIP3    H151339   2.979   1.236   4.129  0.3599  0.2354 -0.7790
 9048TIP3    H251340   3.124   1.267   4.159  0.1098  0.0068  0.7530
 9049TIP3   OH251341   5.059   4.054   4.209  0.2890 -0.3185  0.0446
 9049TIP3    H151342   4.968   4.048   4.181 -0.0067  0.7624  0.7139
 9049TIP3    H251343   5.105   3.990   4.155 -0.8246 -0.7226 -0.4568
 9050TIP3   OH251344   2.839   3.361   3.786  0.1808 -0.0707  0.0508
 9050TIP3    H151345   2.761   3.392   3.833  1.6793  1.2198  1.9074
 9050TIP3    H251346   2.880   3.441   3.753  1.0509 -0.6587 -0.3345
 9051TIP3   OH251347   5.174   7.190   5.418  0.2079  0.2271 -0.1625
 9051TIP3    H151348   5.219   7.247   5.481  0.6438  0.5336 -0.7397
 9051TIP3    H251349   5.239   7.122   5.397 -0.2666 -0.4216  0.4336
 9052TIP3   OH251350   1.716   5.397   4.348 -0.5275  0.0938  0.1437
 9052TIP3    H151351   1.674   5.395   4.435  0.4901 -0.6713  0.6362
 9052TIP3    H251352   1.699   5.311   4.311  0.9177 -0.3907  0.5288
 9053TIP3   OH251353   3.311   4.415   4.844  0.4752 -0.3722 -0.3415
 9053TIP3    H151354   3.343   4.500   4.874 -0.6903 -0.1725  0.3524
 9053TIP3    H251355   3.218   4.414   4.867  0.4230 -1.7456 -0.5471
 9054TIP3   OH251356   3.862   7.392   5.350 -0.5731 -0.4078  0.0609
 9054TIP3    H151357   3.894   7.365   5.264  1.1792  1.8305 -0.0915
 9054TIP3    H251358   3.858   7.311   5.401  0.1637 -1.5194 -1.5764
 9055TIP3   OH251359   5.174   3.773   4.799 -0.3688 -0.0208 -0.3881
 9055TIP3    H151360   5.209   3.701   4.746  1.6293  0.1304  0.6310
 9055TIP3    H251361   5.106   3.732   4.853  0.4782 -1.0968 -0.0887
 9056TIP3   OH251362   2.999   3.622   6.388  0.1438 -0.4149 -0.5209
 9056TIP3    H151363   2.931   3.598   6.325  0.2713 -0.7681 -0.5251
 9056TIP3    H251364   3.006   3.717   6.381 -0.0825 -0.4188 -0.7937
 9057TIP3   OH251365   3.341   7.620   4.664  0.2764 -0.1248  0.0925
 9057TIP3    H151366   3.328   7.682   4.736 -0.9241 -0.8246  0.5145
 9057TIP3    H251367   3.295   7.659   4.590 -0.9664 -0.7389  0.5104
 9058TIP3   OH251368   1.548   7.571   5.224  0.3440  0.5496  0.0490
 9058TIP3    H151369   1.580   7.502   5.167  0.4324 -1.0059  1.8812
 9058TIP3    H251370   1.617   7.584   5.289  0.1190  2.0337  0.0395
 9059TIP3   OH251371   4.556   0.312   4.049 -0.1465  0.1301  0.0525
 9059TIP3    H151372   4.506   0.362   4.114 -0.4345 -2.0210  1.5842
 9059TIP3    H251373   4.510   0.229   4.042  2.2488 -1.3106  0.2884
 9060TIP3   OH251374   5.707   1.358   5.672 -0.3994  0.8167  0.0930
 9060TIP3    H151375   5.705   1.429   5.737 -3.2735  1.0289 -0.0824
 9060TIP3    H251376   5.702   1.278   5.725  1.4015  0.7699  0.2360
 9061TIP3   OH251377   3.458   7.143   5.048  0.0168  0.0875 -0.0704
 9061TIP3    H151378   3.429   7.212   5.107  0.3829 -1.3272  1.8799
 9061TIP3    H251379   3.377   7.106   5.013 -0.5931 -1.8914  3.0305
 9062TIP3   OH251380   4.514   1.688   4.991  0.2890 -0.0143 -0.4150
 9062TIP3    H151381   4.498   1.611   5.044  1.5208  0.0232  0.0535
 9062TIP3    H251382   4.521   1.655   4.901 -2.0727 -0.0386 -0.6479
 9063TIP3   OH251383   5.432   6.742   4.039  0.3019  0.6347  0.5052
 9063TIP3    H151384   5.526   6.721   4.045 -0.0026 -0.7831  0.7072
 9063TIP3    H251385   5.410   6.779   4.125  0.3974 -0.2947  0.9392
 9064TIP3   OH251386   7.592   3.785   5.868 -0.1012 -0.4651 -0.6493
 9064TIP3    H151387   7.627   3.777   5.780  1.7740 -0.0774  0.0246
 9064TIP3    H251388   7.668   3.805   5.923 -1.5942  2.1188  0.6679
 9065TIP3   OH251389   5.804   2.098   4.355  0.1135  1.1502  0.3902
 9065TIP3    H151390   5.828   2.123   4.266  0.9149  0.7383  0.4825
 9065TIP3    H251391   5.829   2.173   4.408  1.6227  0.5854  0.5373
 9066TIP3   OH251392   2.835   0.962   5.804  0.0162  0.0736  0.4317
 9066TIP3    H151393   2.757   0.915   5.776 -0.0672 -1.2217  2.6099
 9066TIP3    H251394   2.814   1.055   5.789 -2.4467 -0.1393  2.0167
 9067TIP3   OH251395   0.737   3.448   5.937  0.1398 -0.3791  0.4074
 9067TIP3    H151396   0.802   3.405   5.882  0.2193  0.7779 -0.4359
 9067TIP3    H251397   0.737   3.397   6.019  0.0584 -2.1006 -0.6166
 9068TIP3   OH251398   0.807   6.577   4.066  0.8558 -0.6960  0.0234
 9068TIP3    H151399   0.863   6.499   4.060  0.7366 -0.7761 -0.0486
 9068TIP3    H251400   0.759   6.566   4.148 -0.5458 -1.6236 -0.8899
 9069TIP3   OH251401   3.230   6.087   5.809  0.0739 -0.3791 -0.1407
 9069TIP3    H151402   3.257   6.005   5.766 -2.2181 -1.7428  0.8295
 9069TIP3    H251403   3.217   6.062   5.901 -1.3666  0.8853  0.0285
 9070TIP3   OH251404   6.439   1.521   4.653 -0.3083  0.0479  0.2964
 9070TIP3    H151405   6.374   1.488   4.591  0.4764 -0.0883 -0.4686
 9070TIP3    H251406   6.522   1.483   4.624  0.1090  0.1352  1.3173
 9071TIP3   OH251407   2.334   3.591   4.493 -0.0946 -0.7995 -0.0251
 9071TIP3    H151408   2.322   3.645   4.571 -1.6288 -0.5652 -0.3947
 9071TIP3    H251409   2.429   3.583   4.484  0.1307  0.2689  1.1024
 9072TIP3   OH251410   2.054   5.280   4.707 -0.2951  0.0374  0.2542
 9072TIP3    H151411   2.021   5.285   4.617 -0.2931 -1.8652  0.1215
 9072TIP3    H251412   1.984   5.318   4.760 -0.2006  1.3850 -0.5477
 9073TIP3   OH251413   4.284   3.296   4.982  0.3267 -0.2089 -0.0694
 9073TIP3    H151414   4.352   3.231   4.961  1.1001  0.6196 -0.2112
 9073TIP3    H251415   4.312   3.334   5.065 -0.5760 -0.6359  0.4428
 9074TIP3   OH251416   5.277   2.662   6.276 -0.3662  0.4224 -0.1514
 9074TIP3    H151417   5.333   2.636   6.203 -1.4342  1.2269 -1.2781
 9074TIP3    H251418   5.330   2.724   6.326  0.7693 -0.9276  0.4152
 9075TIP3   OH251419   1.237   6.564   5.463  1.3224  0.0112 -0.0871
 9075TIP3    H151420   1.271   6.489   5.415 -0.8810 -2.0328  1.2636
 9075TIP3    H251421   1.311   6.623   5.472  2.7359 -1.2210 -2.6679
 9076TIP3   OH251422   1.514   1.758   5.475  0.6352  0.2064  0.0865
 9076TIP3    H151423   1.605   1.740   5.453  0.4386 -1.8369  0.6826
 9076TIP3    H251424   1.464   1.715   5.406  0.0906  1.4366 -0.3178
 9077TIP3   OH251425   0.628   1.224   6.880  0.4738 -0.3905 -0.2168
 9077TIP3    H151426   0.597   1.314   6.868 -1.2116 -1.0777 -1.4847
 9077TIP3    H251427   0.677   1.205   6.800  2.2521 -0.0856  0.7721
 9078TIP3   OH251428   2.188   1.494   4.415  0.0948  0.2296 -0.5301
 9078TIP3    H151429   2.265   1.437   4.420  1.0235  1.5061  0.7392
 9078TIP3    H251430   2.124   1.454   4.474 -0.4429 -1.1001 -1.9606
 9079TIP3   OH251431   0.249   4.437   6.909 -0.0581  0.5715 -0.1699
 9079TIP3    H151432   0.291   4.479   6.984  0.5747  0.7616 -0.6203
 9079TIP3    H251433   0.158   4.466   6.913 -0.3025 -0.2875  1.1468
 9080TIP3   OH251434   1.192   1.357   5.131  0.3610  0.4848 -0.0709
 9080TIP3    H151435   1.168   1.415   5.058  0.4733 -0.1534 -0.6267
 9080TIP3    H251436   1.287   1.366   5.137  0.2096  1.6998  1.0102
 9081TIP3   OH251437   0.588   7.546   4.603  0.1899 -0.1053 -0.5421
 9081TIP3    H151438   0.551   7.569   4.518 -0.7171  0.4053 -0.0263
 9081TIP3    H251439   0.581   7.451   4.607 -2.2503  0.0173  0.0098
 9082TIP3   OH251440   2.888   1.928   6.316 -0.2864 -0.0305  0.7485
 9082TIP3    H151441   2.980   1.933   6.344 -0.1865  1.3824  0.2816
 9082TIP3    H251442   2.887   1.973   6.231 -1.3003 -0.6486  0.4172
 9083TIP3   OH251443   6.478   3.087   5.269 -0.0680  0.7018 -0.1054
 9083TIP3    H151444   6.497   3.009   5.320 -0.8757 -0.9835 -2.2148
 9083TIP3    H251445   6.540   3.083   5.196 -2.0952  0.2934 -1.9022
 9084TIP3   OH251446   7.033   5.736   6.225 -0.4484  0.6748  0.2491
 9084TIP3    H151447   6.982   5.785   6.161  1.2879 -0.6853 -2.3325
 9084TIP3    H251448   7.102   5.796   6.252  0.9367  0.1968 -1.9697
 9085TIP3   OH251449   6.846   3.732   4.477 -0.1963 -0.3701 -0.3077
 9085TIP3    H151450   6.900   3.720   4.398 -1.1657 -0.8010 -0.9277
 9085TIP3    H251451   6.819   3.643   4.500  0.7145 -0.3362  0.9944
 9086TIP3   OH251452   3.295   3.729   3.515  0.1468  0.0541 -0.2348
 9086TIP3    H151453   3.222   3.786   3.489  0.0903  0.0510 -0.0874
 9086TIP3    H251454   3.257   3.640   3.514  0.7075 -0.2026 -2.2259
 9087TIP3   OH251455   5.501   5.261   5.881  0.4289  0.4458 -0.2834
 9087TIP3    H151456   5.501   5.243   5.786  0.4703  0.9513 -0.3796
 9087TIP3    H251457   5.590   5.242   5.909  0.3096 -0.1062 -0.2669
 9088TIP3   OH251458   3.869   4.933   5.627 -0.4374  0.3745  0.0649
 9088TIP3    H151459   3.848   4.839   5.626  0.1948  0.1931 -2.0684
 9088TIP3    H251460   3.908   4.949   5.541 -0.6078  2.6224  0.3547
 9089TIP3   OH251461   0.707   3.913   4.019 -0.0191 -0.5790 -0.1927
 9089TIP3    H151462   0.643   3.869   4.076 -0.1779  0.5016  0.4896
 9089TIP3    H251463   0.654   3.973   3.966  0.5394  1.3384  1.3415
 9090TIP3   OH251464   1.463   0.711   4.480 -0.3199  0.0309 -0.2089
 9090TIP3    H151465   1.542   0.741   4.524  0.3426  0.1251 -1.4332
 9090TIP3    H251466   1.472   0.616   4.478  0.6028  0.1156 -1.8128
 9091TIP3   OH251467   2.228   0.492   4.684 -0.1841 -0.1064 -0.4693
 9091TIP3    H151468   2.167   0.517   4.614  0.1552  1.0763 -0.3642
 9091TIP3    H251469   2.284   0.425   4.644 -3.3632 -3.5008  0.3117
 9092TIP3   OH251470   1.434   4.313   3.992 -0.2403  0.3166 -0.0179
 9092TIP3    H151471   1.471   4.400   3.975  1.3189  0.0834  1.7685
 9092TIP3    H251472   1.389   4.323   4.076  0.9909 -0.8257  0.8315
 9093TIP3   OH251473   2.783   5.678   4.535  0.7362  0.2039  0.4679
 9093TIP3    H151474   2.739   5.716   4.611  0.2996 -2.1019  1.4685
 9093TIP3    H251475   2.713   5.638   4.485  1.1663  0.6999 -0.5472
 9094TIP3   OH251476   3.009   1.829   3.621 -0.3273  0.2581  0.1868
 9094TIP3    H151477   3.049   1.889   3.683  0.6347  0.9524 -1.0496
 9094TIP3    H251478   3.021   1.743   3.660  0.6376  0.6390  0.7702
 9095TIP3   OH251479   2.796   1.260   5.752 -0.3530 -0.1958 -0.6363
 9095TIP3    H151480   2.749   1.286   5.673  0.0712  1.4462 -0.3927
 9095TIP3    H251481   2.848   1.337   5.776 -1.6420 -0.0350  2.0919
 9096TIP3   OH251482   0.587   2.514   5.143 -0.3548 -0.5819  0.1746
 9096TIP3    H151483   0.499   2.495   5.109  0.3993 -1.1149 -1.5725
 9096TIP3    H251484   0.610   2.598   5.105  0.3702 -1.0135 -0.3429
 9097TIP3   OH251485   1.921   7.333   5.548 -0.0593 -0.2859  0.5859
 9097TIP3    H151486   1.998   7.325   5.605 -1.6909 -0.3452  2.9500
 9097TIP3    H251487   1.937   7.271   5.477  1.2376 -1.7144  2.0453
 9098TIP3   OH251488   4.239   2.845   6.123  0.0758  0.1186 -0.1173
 9098TIP3    H151489   4.189   2.916   6.084  2.5137  0.1849 -3.5980
 9098TIP3    H251490   4.331   2.866   6.103  1.0361 -3.0542  0.3390
 9099TIP3   OH251491   2.022   6.582   4.334  0.0352  0.0989 -0.4808
 9099TIP3    H151492   2.099   6.594   4.389 -0.4472  0.2385  0.1779
 9099TIP3    H251493   2.048   6.516   4.270  0.9187  0.6434 -0.6998
 9100TIP3   OH251494   0.564   6.847   5.441 -0.0440  0.2693 -0.3249
 9100TIP3    H151495   0.612   6.857   5.524 -0.1271  0.5458 -0.3104
 9100TIP3    H251496   0.483   6.895   5.454  0.4145  1.2602 -0.9481
 9101TIP3   OH251497   0.701   2.181   4.960 -0.4546  0.4882  0.5673
 9101TIP3    H151498   0.781   2.221   4.927  0.5302  0.2106  2.4669
 9101TIP3    H251499   0.712   2.087   4.942 -1.1441  0.6282 -0.6781
 9102TIP3   OH251500   3.750   6.696   4.267 -1.2512 -0.5904  0.3517
 9102TIP3    H151501   3.675   6.743   4.303 -0.0300  2.3957 -0.6840
 9102TIP3    H251502   3.825   6.729   4.316 -0.1618 -0.2611 -1.4242
 9103TIP3   OH251503   0.770   4.268   4.170 -0.2008  0.5356 -0.3859
 9103TIP3    H151504   0.830   4.340   4.149  2.2408 -0.7360  1.6659
 9103TIP3    H251505   0.826   4.191   4.174 -2.0543 -0.8255  1.2048
 9104TIP3   OH251506   4.100   7.585   6.760 -0.3204  0.0780 -0.7222
 9104TIP3    H151507   4.178   7.529   6.759  0.2063  0.7641  0.2268
 9104TIP3    H251508   4.038   7.539   6.815 -0.5810 -0.4431 -1.4330
 9105TIP3   OH251509   3.944   0.500   4.667  0.2962 -0.1867 -0.2271
 9105TIP3    H151510   3.998   0.578   4.676 -2.4259  1.7336  1.0635
 9105TIP3    H251511   3.940   0.485   4.573  0.6668  1.4597 -0.5467
 9106TIP3   OH251512   4.165   0.384   5.212  0.3416  0.0110  0.2304
 9106TIP3    H151513   4.108   0.403   5.286  0.6462  1.0979  0.1987
 9106TIP3    H251514   4.126   0.306   5.171 -1.9989  1.5593 -0.6822
 9107TIP3   OH251515   5.704   0.484   5.590 -0.0073 -0.5206  0.0989
 9107TIP3    H151516   5.766   0.445   5.651 -1.0446 -3.9440 -0.8018
 9107TIP3    H251517   5.739   0.463   5.503 -0.9866  0.0017 -0.4429
 9108TIP3   OH251518   5.241   3.463   5.001  0.1235  0.2846  0.6135
 9108TIP3    H151519   5.254   3.487   4.909 -0.2067  0.1917  0.5444
 9108TIP3    H251520   5.163   3.409   5.002  1.5888 -1.9491  0.5723
 9109TIP3   OH251521   4.190   6.650   4.515 -0.1570  0.2476  0.6444
 9109TIP3    H151522   4.193   6.572   4.570  0.2770  1.5347  2.5491
 9109TIP3    H251523   4.282   6.673   4.501 -0.2837  0.4828  0.1668
 9110TIP3   OH251524   0.487   4.060   4.427  0.0214  0.3282 -0.4733
 9110TIP3    H151525   0.467   4.087   4.337 -1.9752 -0.3570 -0.2848
 9110TIP3    H251526   0.423   4.107   4.481  1.3830  0.9608  0.6555
 9111TIP3   OH251527   4.868   6.462   5.038 -0.0455 -0.2507  0.8383
 9111TIP3    H151528   4.869   6.473   5.133 -0.9997  0.3004  0.7951
 9111TIP3    H251529   4.931   6.527   5.006 -0.7555  0.5439  1.0159
 9112TIP3   OH251530   1.967   0.301   4.549 -0.0233 -0.3447  0.3998
 9112TIP3    H151531   2.021   0.227   4.575 -1.0666 -0.5142  2.2224
 9112TIP3    H251532   1.878   0.278   4.577 -0.3792  1.5589  1.0302
 9113TIP3   OH251533   5.447   5.236   4.657  0.0435  0.0605 -0.3994
 9113TIP3    H151534   5.406   5.149   4.655  0.0228  0.0563  0.0676
 9113TIP3    H251535   5.541   5.219   4.655  0.0776 -0.0341  0.7822
 9114TIP3   OH251536   2.672   1.723   3.790  0.2539  0.5595  0.1282
 9114TIP3    H151537   2.608   1.793   3.775 -0.9101 -0.7501 -1.4285
 9114TIP3    H251538   2.709   1.706   3.704  1.8231  0.4271  0.8016
 9115TIP3   OH251539   2.773   4.672   5.881 -0.3949 -0.3074  0.4082
 9115TIP3    H151540   2.703   4.687   5.944 -0.9116 -0.9729  0.0073
 9115TIP3    H251541   2.779   4.755   5.833 -1.9191 -0.6754 -0.5180
 9116TIP3   OH251542   6.724   5.176   6.237 -0.4847  0.0707  0.0030
 9116TIP3    H151543   6.818   5.194   6.249 -0.8309  1.7591  0.4071
 9116TIP3    H251544   6.712   5.088   6.273  1.1241 -0.6015 -0.9882
 9117TIP3   OH251545   2.323   5.600   4.836  0.2228  0.5990 -0.1376
 9117TIP3    H151546   2.237   5.607   4.796 -0.0405  0.6048  0.4338
 9117TIP3    H251547   2.348   5.508   4.822 -0.3378  0.3198  0.6368
 9118TIP3   OH251548   1.951   2.642   5.746 -0.0947  0.0389  0.1315
 9118TIP3    H151549   1.888   2.574   5.725  1.5796 -1.6158  0.2134
 9118TIP3    H251550   1.996   2.661   5.664 -0.2000  0.6714  0.2151
 9119TIP3   OH251551   4.497   5.868   4.042  0.2079  0.7024  0.0902
 9119TIP3    H151552   4.445   5.876   3.963 -0.1817 -0.0495  0.2569
 9119TIP3    H251553   4.549   5.789   4.029  0.9194  1.1531  0.1479
 9120TIP3   OH251554   5.727   1.176   4.474 -0.0444  0.7512  0.6014
 9120TIP3    H151555   5.633   1.181   4.487 -0.2277 -0.8460  0.0292
 9120TIP3    H251556   5.765   1.203   4.558 -1.0479 -0.5623  1.5038
 9121TIP3   OH251557   5.977   2.462   5.880  0.0694 -0.3733  0.1974
 9121TIP3    H151558   6.059   2.416   5.896 -0.0084 -0.3696  0.6007
 9121TIP3    H251559   5.957   2.506   5.962 -0.5758 -0.7390  0.2400
 9122TIP3   OH251560   2.602   1.317   4.794  0.0601  0.4432  0.2932
 9122TIP3    H151561   2.670   1.385   4.800  1.2126 -0.6354 -0.0118
 9122TIP3    H251562   2.641   1.241   4.837  0.8663 -1.5867 -3.5610
 9123TIP3   OH251563   6.941   2.181   5.962  0.3135  0.3775  0.4190
 9123TIP3    H151564   6.847   2.168   5.975 -0.0690  2.4294  0.0300
 9123TIP3    H251565   6.964   2.253   6.020  1.5685  0.1643  0.2091
 9124TIP3   OH251566   5.578   2.303   4.082  0.1198  0.6492 -0.0090
 9124TIP3    H151567   5.506   2.257   4.038  1.6588 -1.8253 -0.1823
 9124TIP3    H251568   5.556   2.298   4.175 -0.6208  1.1984 -0.1499
 9125TIP3   OH251569   2.701   7.616   4.513 -0.2751 -0.4999  0.2726
 9125TIP3    H151570   2.712   7.581   4.601 -3.1674 -0.0854  0.9072
 9125TIP3    H251571   2.761   7.564   4.459  1.3145 -0.9922  2.3749
 9126TIP3   OH251572   2.714   7.187   4.212  0.0585 -0.1897  0.2382
 9126TIP3    H151573   2.783   7.181   4.146 -0.3303 -1.7646 -0.0682
 9126TIP3    H251574   2.760   7.176   4.296  0.5700  1.9358  0.2888
 9127TIP3   OH251575   4.853   5.408   5.861  0.4684 -0.1704  0.0459
 9127TIP3    H151576   4.797   5.475   5.899  0.7699  2.1067 -3.1242
 9127TIP3    H251577   4.940   5.428   5.894  0.3817  0.2630  0.0153
 9128TIP3   OH251578   5.869   6.641   4.509 -0.0089 -0.0731 -0.4732
 9128TIP3    H151579   5.820   6.559   4.513 -0.0544 -0.1128 -1.6681
 9128TIP3    H251580   5.825   6.692   4.441  1.7799 -0.2253 -1.7960
 9129TIP3   OH251581   5.630   6.019   5.223 -0.2523 -0.3181 -0.2308
 9129TIP3    H151582   5.601   5.954   5.287  0.3792  0.2533  0.6685
 9129TIP3    H251583   5.720   5.995   5.204 -0.2917 -0.2129 -0.5533
 9130TIP3   OH251584   7.228   0.034   5.294  0.2286  0.1950  0.0847
 9130TIP3    H151585   7.237   0.106   5.232  1.4274 -0.4510 -0.5512
 9130TIP3    H251586   7.308   0.038   5.347  0.4009 -0.7509 -0.0818
 9131TIP3   OH251587   1.841   1.589   6.470  0.6867  0.1690 -0.0482
 9131TIP3    H151588   1.855   1.590   6.565  1.6974  1.0860 -0.1842
 9131TIP3    H251589   1.928   1.573   6.433  0.5820  1.3242 -0.8428
 9132TIP3   OH251590   5.524   4.966   5.035  0.1574 -0.2913  0.4441
 9132TIP3    H151591   5.475   5.013   5.102 -0.9720 -0.7538 -0.0438
 9132TIP3    H251592   5.466   4.966   4.959  0.6050 -1.5051  0.0913
 9133TIP3   OH251593   3.381   1.143   4.514 -0.0971 -0.1896  0.4630
 9133TIP3    H151594   3.321   1.069   4.526 -1.3865  0.9078  1.0673
 9133TIP3    H251595   3.468   1.106   4.529 -0.4469 -2.1284 -1.7741
 9134TIP3   OH251596   2.241   2.231   6.585  0.0804 -0.0477  0.0643
 9134TIP3    H151597   2.300   2.185   6.526 -0.0342 -0.9618  0.6473
 9134TIP3    H251598   2.262   2.324   6.572  1.3655 -0.3280 -0.0335
 9135TIP3   OH251599   1.421   4.365   5.499 -0.1581  0.0607  0.1707
 9135TIP3    H151600   1.479   4.305   5.451  1.3550  1.8592 -0.3775
 9135TIP3    H251601   1.333   4.337   5.475  0.4869 -1.6951 -0.3520
 9136TIP3   OH251602   1.077   5.106   5.195  0.8409  0.5653 -0.3194
 9136TIP3    H151603   1.030   5.116   5.277  1.8323 -0.6208  0.4299
 9136TIP3    H251604   1.115   5.192   5.178  2.1022  0.3863  1.4126
 9137TIP3   OH251605   1.248   2.019   4.683 -0.1530  0.1911 -0.0063
 9137TIP3    H151606   1.338   1.992   4.700 -0.1292  0.4209  0.2445
 9137TIP3    H251607   1.197   1.981   4.754 -0.4770 -1.0838 -0.8788
 9138TIP3   OH251608   1.482   5.197   5.242 -0.1767  0.0227  0.1103
 9138TIP3    H151609   1.498   5.253   5.165 -1.3943  0.5195  0.1957
 9138TIP3    H251610   1.395   5.224   5.273  0.2404 -0.2575  1.5909
 9139TIP3   OH251611   7.214   3.586   5.270 -0.0611  0.1654 -0.5428
 9139TIP3    H151612   7.202   3.491   5.274 -0.9937  0.2637 -0.6133
 9139TIP3    H251613   7.196   3.608   5.178 -0.4825  0.4738 -0.3917
 9140TIP3   OH251614   4.630   3.039   4.588 -0.9896 -0.5267 -0.4424
 9140TIP3    H151615   4.653   3.079   4.504 -1.2701 -0.1289 -0.3350
 9140TIP3    H251616   4.599   2.952   4.566  0.2870 -0.9465 -0.6185
 9141TIP3   OH251617   1.575   3.813   3.912 -0.0835  0.1000 -0.0598
 9141TIP3    H151618   1.623   3.894   3.928 -0.0265  0.2403 -0.8925
 9141TIP3    H251619   1.518   3.833   3.838  0.3455 -0.7816 -0.6475
 9142TIP3   OH251620   3.370   4.356   3.853  0.2754  0.1652 -0.3988
 9142TIP3    H151621   3.401   4.444   3.875  0.9276  0.2946 -1.7325
 9142TIP3    H251622   3.433   4.298   3.895  0.0419  0.3404  0.1990
 9143TIP3   OH251623   6.197   1.867   6.488  0.2301 -0.5226 -0.5064
 9143TIP3    H151624   6.144   1.938   6.523 -0.5663 -1.4409  0.2396
 9143TIP3    H251625   6.140   1.824   6.423 -0.0487 -1.6192  0.4196
 9144TIP3   OH251626   4.117   2.194   6.244 -0.1052 -0.3348 -0.3229
 9144TIP3    H151627   4.171   2.187   6.323  1.9363  0.4057 -1.5668
 9144TIP3    H251628   4.073   2.278   6.252  1.6858  0.7036 -0.8574
 9145TIP3   OH251629   6.569   7.483   4.406  0.2095  0.1557 -0.8901
 9145TIP3    H151630   6.525   7.410   4.361  0.3011  0.4478 -1.4694
 9145TIP3    H251631   6.561   7.462   4.499 -0.3523 -0.2588 -1.0239
 9146TIP3   OH251632   4.990   4.140   4.505 -0.3239 -0.2011  0.0445
 9146TIP3    H151633   4.977   4.109   4.595  1.7640 -0.9492  0.1396
 9146TIP3    H251634   4.993   4.060   4.453 -0.4599  0.1726 -0.5374
 9147TIP3   OH251635   2.771   2.144   4.483 -0.7612 -0.0187  1.0314
 9147TIP3    H151636   2.700   2.179   4.537 -1.7318 -1.7760  0.9733
 9147TIP3    H251637   2.726   2.103   4.409  0.3667 -0.5202  0.6049
 9148TIP3   OH251638   2.973   4.096   5.979  0.0638 -0.6653 -0.0345
 9148TIP3    H151639   3.048   4.151   6.002 -0.9127  0.7893 -0.2040
 9148TIP3    H251640   3.002   4.007   5.997  0.8825  0.0586  2.5452
 9149TIP3   OH251641   3.743   3.642   4.870  0.5070 -0.1248 -0.5043
 9149TIP3    H151642   3.780   3.556   4.849  0.3196 -0.6888  1.3044
 9149TIP3    H251643   3.809   3.682   4.928  0.1107  0.5189 -0.4931
 9150TIP3   OH251644   0.047   2.849   5.010 -0.3562 -0.0001 -0.0027
 9150TIP3    H151645  -0.020   2.859   5.078  0.0334  0.1486  0.3659
 9150TIP3    H251646   0.114   2.913   5.033  0.7656 -1.3455  0.6833
 9151TIP3   OH251647   1.790   6.978   5.247  0.1436 -0.0615 -0.3280
 9151TIP3    H151648   1.777   7.000   5.155  0.6505  2.6838  0.1935
 9151TIP3    H251649   1.704   6.993   5.288  0.3251  0.2758 -0.0716
 9152TIP3   OH251650   4.279   3.073   4.422 -0.0653  0.0451 -0.8195
 9152TIP3    H151651   4.322   3.013   4.362  1.1373  2.1583 -2.2251
 9152TIP3    H251652   4.230   3.133   4.365 -0.6010  0.8632  0.4485
 9153TIP3   OH251653   4.978   7.236   3.843 -0.2084  0.4285 -0.5453
 9153TIP3    H151654   4.934   7.167   3.793 -0.3817 -0.1366  0.3587
 9153TIP3    H251655   4.957   7.216   3.934  0.9534  0.8297 -0.1731
 9154TIP3   OH251656   0.631   5.022   4.435  0.2907 -0.9302 -0.1017
 9154TIP3    H151657   0.641   5.101   4.487 -0.0359 -0.5557 -0.6004
 9154TIP3    H251658   0.711   4.972   4.451 -0.0388 -1.0844  1.1884
 9155TIP3   OH251659   4.682   5.220   4.450 -0.5937  0.0383  0.0739
 9155TIP3    H151660   4.707   5.129   4.434 -2.2364 -0.4980  0.3427
 9155TIP3    H251661   4.682   5.229   4.545  0.5371  0.6363  0.0367
 9156TIP3   OH251662   3.375   4.508   4.101  0.1040 -0.1966 -0.4528
 9156TIP3    H151663   3.444   4.489   4.164 -0.2713 -0.9436 -0.2499
 9156TIP3    H251664   3.421   4.540   4.024  0.6147  0.0726 -0.0454
 9157TIP3   OH251665   0.694   5.584   6.086  0.7767 -0.1689  0.1898
 9157TIP3    H151666   0.762   5.652   6.083 -0.2459  0.9254  0.9914
 9157TIP3    H251667   0.645   5.602   6.166  0.5457 -1.9521  0.4901
 9158TIP3   OH251668   4.662   6.498   3.994 -0.7271  0.5482 -0.7513
 9158TIP3    H151669   4.581   6.449   4.008  0.9254 -2.8190 -1.8036
 9158TIP3    H251670   4.701   6.505   4.081 -1.5138  1.0397 -0.4275
 9159TIP3   OH251671   4.847   4.840   4.147 -0.1175 -0.0013  0.4308
 9159TIP3    H151672   4.783   4.902   4.110 -0.6969 -0.0183  1.3540
 9159TIP3    H251673   4.837   4.850   4.242  3.0719  1.8924  0.7195
 9160TIP3   OH251674   2.302   3.914   3.952 -0.1505 -0.4111  0.1976
 9160TIP3    H151675   2.343   3.971   4.017 -0.8616 -1.2131  1.3832
 9160TIP3    H251676   2.286   3.832   3.998 -2.2651 -0.4259 -0.4707
 9161TIP3   OH251677   5.778   5.393   6.021 -0.3891  0.6517  0.1047
 9161TIP3    H151678   5.833   5.405   6.098 -0.9177  2.1170  0.2853
 9161TIP3    H251679   5.765   5.299   6.015  2.1311  0.2356  0.0559
 9162TIP3   OH251680   0.937   7.142   6.232 -0.0016 -0.1544 -0.2641
 9162TIP3    H151681   0.885   7.159   6.312  0.7548 -1.6616  0.6047
 9162TIP3    H251682   1.028   7.153   6.260  0.2922 -1.1940 -0.7748
 9163TIP3   OH251683   7.349   3.626   5.852 -0.3520  0.5596  0.0477
 9163TIP3    H151684   7.394   3.554   5.809 -1.3900 -1.5199  2.1636
 9163TIP3    H251685   7.418   3.674   5.898  0.2343  0.3421 -0.5864
 9164TIP3   OH251686   7.171   3.992   5.448 -1.1188 -0.2713 -0.4049
 9164TIP3    H151687   7.162   4.033   5.534  0.1915 -0.1019 -0.3400
 9164TIP3    H251688   7.151   3.899   5.464 -0.7951 -0.2568  0.0954
 9165TIP3   OH251689   2.968   5.992   3.703 -0.0181 -0.9048 -0.3029
 9165TIP3    H151690   3.027   5.917   3.697 -1.5477 -2.1442 -0.3374
 9165TIP3    H251691   2.897   5.963   3.759 -1.5147 -0.0931 -1.6769
 9166TIP3   OH251692   6.768   5.539   6.142  0.3851  0.1271 -0.5044
 9166TIP3    H151693   6.814   5.487   6.077  0.7675  0.6015 -0.6232
 9166TIP3    H251694   6.764   5.627   6.103 -1.4593 -0.0919 -0.9314
 9167TIP3   OH251695   3.715   5.445   6.081  0.0061  0.0179 -0.0823
 9167TIP3    H151696   3.719   5.534   6.047 -0.2121  0.1196  0.1555
 9167TIP3    H251697   3.625   5.417   6.066  0.3791 -0.6105 -1.2667
 9168TIP3   OH251698   1.279   2.672   4.549  0.0740  0.3342  0.3694
 9168TIP3    H151699   1.297   2.578   4.544  0.7205  0.4687  0.0952
 9168TIP3    H251700   1.188   2.681   4.521  1.0704  0.1758 -3.5364
 9169TIP3   OH251701   2.703   0.933   4.470  0.1431  0.1811 -0.8186
 9169TIP3    H151702   2.797   0.951   4.462  0.2884 -0.7960 -1.6501
 9169TIP3    H251703   2.687   0.863   4.406 -1.0054 -0.1891 -0.1600
 9170TIP3   OH251704   3.203   2.151   5.341  0.1900  0.2526 -0.3823
 9170TIP3    H151705   3.180   2.067   5.381  0.4179  0.5779  0.4301
 9170TIP3    H251706   3.200   2.133   5.247  0.8309 -0.8238 -0.2133
 9171TIP3   OH251707   7.414   3.089   4.584  0.3446  0.2966 -0.1168
 9171TIP3    H151708   7.473   3.048   4.648  1.0804 -0.8458 -1.4520
 9171TIP3    H251709   7.361   3.150   4.635  0.6861 -0.7948  1.6263
 9172TIP3   OH251710   0.826   6.833   5.686 -0.0153  0.2536  0.5326
 9172TIP3    H151711   0.770   6.756   5.673 -0.0355  0.3989 -0.2907
 9172TIP3    H251712   0.768   6.908   5.676  0.1989  0.3935  0.3118
 9173TIP3   OH251713   3.990   4.404   3.789 -0.2260 -0.0529  0.7069
 9173TIP3    H151714   4.023   4.314   3.783 -2.0649 -0.8210  1.1140
 9173TIP3    H251715   3.898   4.396   3.763 -0.0829  1.9714 -0.5614
 9174TIP3   OH251716   5.846   0.271   5.147 -0.2746 -0.0744 -0.1312
 9174TIP3    H151717   5.919   0.230   5.102  0.4017  1.1636 -0.2090
 9174TIP3    H251718   5.772   0.213   5.130  0.6644 -1.3310 -0.0886
 9175TIP3   OH251719   3.424   5.896   5.439  0.4191 -0.2989  0.2644
 9175TIP3    H151720   3.332   5.887   5.463 -0.1047 -0.3472 -1.6230
 9175TIP3    H251721   3.425   5.891   5.343  2.1201  2.0304  0.0815
 9176TIP3   OH251722   3.757   1.479   5.356  0.4862  1.0309 -0.3420
 9176TIP3    H151723   3.849   1.499   5.372  0.5162  1.8326 -1.4251
 9176TIP3    H251724   3.756   1.385   5.339  0.6271  0.3361  2.7967
 9177TIP3   OH251725   0.158   5.312   4.789 -0.0273  0.2782  0.8397
 9177TIP3    H151726   0.199   5.230   4.760  0.9690  0.6016  1.2979
 9177TIP3    H251727   0.088   5.285   4.848 -1.2316 -0.3363 -0.7613
 9178TIP3   OH251728   1.561   6.118   3.480 -0.2520  0.0810 -0.5506
 9178TIP3    H151729   1.632   6.061   3.451 -0.2525  0.0321 -0.4565
 9178TIP3    H251730   1.594   6.206   3.466  0.0783  0.0632  0.0888
 9179TIP3   OH251731   0.516   4.300   4.065  0.5238  0.0141 -0.1251
 9179TIP3    H151732   0.490   4.370   4.125 -0.1849 -1.5359  1.4598
 9179TIP3    H251733   0.604   4.275   4.093 -0.0423 -1.1223  0.7166
 9180TIP3   OH251734   7.108   5.711   3.940  0.0364 -0.3033 -0.5601
 9180TIP3    H151735   7.168   5.637   3.950 -0.1570 -0.4095 -0.1771
 9180TIP3    H251736   7.164   5.788   3.943  0.2423 -0.4325 -0.9841
 9181TIP3   OH251737   4.146   0.654   4.672 -0.1323 -0.0004  0.0046
 9181TIP3    H151738   4.202   0.597   4.725 -1.4887 -1.0685  0.3566
 9181TIP3    H251739   4.206   0.702   4.616  1.0775 -1.6533 -0.1742
 9182TIP3   OH251740   6.739   6.593   3.991 -0.9393 -0.8297 -0.4350
 9182TIP3    H151741   6.718   6.638   3.909 -1.2331 -0.0766  0.0403
 9182TIP3    H251742   6.760   6.664   4.052 -0.1749 -1.4151 -0.0100
 9183TIP3   OH251743   5.930   7.317   5.578  0.5308  0.4786  0.2451
 9183TIP3    H151744   5.888   7.288   5.497  1.3062 -1.2676  0.4073
 9183TIP3    H251745   5.967   7.403   5.557  0.2682  0.2869 -1.0948
 9184TIP3   OH251746   3.873   1.701   4.810 -0.2562 -0.2130  0.3143
 9184TIP3    H151747   3.877   1.767   4.879  1.4116 -2.4874  2.6090
 9184TIP3    H251748   3.781   1.698   4.784 -0.7814  1.3128  1.8346
 9185TIP3   OH251749   3.794   6.912   5.803 -0.5031  0.2382  0.3469
 9185TIP3    H151750   3.781   6.882   5.893  0.5877  0.6467  0.6628
 9185TIP3    H251751   3.852   6.846   5.764 -1.6354 -0.3817 -0.3266
 9186TIP3   OH251752   2.613   6.251   6.462  0.0998  0.1075 -0.2520
 9186TIP3    H151753   2.619   6.347   6.468 -1.4871  0.2120  0.2362
 9186TIP3    H251754   2.544   6.228   6.524 -0.1814 -1.2682 -1.0435
 9187TIP3   OH251755   0.671   6.616   5.599  0.2696 -0.2221 -0.4371
 9187TIP3    H151756   0.667   6.574   5.685 -0.8771  1.4158  0.3633
 9187TIP3    H251757   0.581   6.613   5.566  0.7119 -0.9077 -1.6484
 9188TIP3   OH251758   2.869   7.450   4.330  0.0341  0.1704 -0.1675
 9188TIP3    H151759   2.940   7.513   4.321 -0.3828  0.4092 -2.2121
 9188TIP3    H251760   2.820   7.457   4.248 -1.0619 -1.5524  0.2882
 9189TIP3   OH251761   0.906   5.092   5.428 -0.8064  0.3032  0.2276
 9189TIP3    H151762   0.913   5.028   5.500 -2.2886 -1.3606 -1.0130
 9189TIP3    H251763   0.817   5.081   5.396 -0.8360  2.4696 -0.5952
 9190TIP3   OH251764   0.733   4.091   5.974  0.0550 -0.1192  0.1089
 9190TIP3    H151765   0.799   4.115   6.039 -0.6900 -0.2676  0.9385
 9190TIP3    H251766   0.709   4.001   5.996  0.2191 -0.3836 -0.7483
 9191TIP3   OH251767   7.130   5.185   6.231  0.3991  0.0075  0.0709
 9191TIP3    H151768   7.174   5.189   6.316 -0.1573  1.7026  0.3119
 9191TIP3    H251769   7.086   5.269   6.223  0.4780 -0.0987 -1.9349
 9192TIP3   OH251770   0.212   1.875   6.319 -0.0780  0.0282 -0.1731
 9192TIP3    H151771   0.285   1.907   6.265 -0.5078  0.8904 -0.2570
 9192TIP3    H251772   0.178   1.800   6.272  1.3755 -1.0026  0.3561
 9193TIP3   OH251773   1.950   3.556   4.276 -0.2965  0.6633 -0.0112
 9193TIP3    H151774   1.856   3.543   4.262  0.1763 -0.9455 -2.3308
 9193TIP3    H251775   1.976   3.620   4.210  0.8245 -1.8249 -2.1539
 9194TIP3   OH251776   4.234   3.380   4.726 -0.1455 -0.9161  0.2126
 9194TIP3    H151777   4.245   3.330   4.807  0.7749  1.0395  1.3657
 9194TIP3    H251778   4.316   3.368   4.679 -0.2937 -1.2651  0.0471
 9195TIP3   OH251779   6.906   0.500   6.414 -0.2300 -0.0491 -0.3749
 9195TIP3    H151780   6.920   0.522   6.322 -1.3924 -0.5512 -0.6886
 9195TIP3    H251781   6.884   0.584   6.455  0.9218  0.2838 -0.4107
 9196TIP3   OH251782   6.402   4.661   4.753 -0.7050  0.3646 -0.7847
 9196TIP3    H151783   6.347   4.671   4.830 -1.6539  1.7201 -1.6067
 9196TIP3    H251784   6.453   4.582   4.770 -1.9863 -0.2065  0.5510
 9197TIP3   OH251785   6.090   0.256   5.925  0.7360  0.2971 -0.2524
 9197TIP3    H151786   6.078   0.168   5.891  1.3765  1.1278 -2.8590
 9197TIP3    H251787   6.175   0.254   5.968  0.5986 -0.4052  0.0062
 9198TIP3   OH251788   1.180   7.051   6.022  0.5572 -0.5017 -0.1108
 9198TIP3    H151789   1.223   7.134   5.999  1.4418 -0.5865  1.0806
 9198TIP3    H251790   1.087   7.066   6.006  0.9156  0.0518 -1.7715
 9199TIP3   OH251791   2.790   3.168   5.091 -0.4200  0.7028  0.2808
 9199TIP3    H151792   2.831   3.206   5.013 -0.5202 -0.0331 -0.1410
 9199TIP3    H251793   2.859   3.116   5.131 -0.9489 -0.6829 -0.5264
 9200TIP3   OH251794   7.117   2.210   5.296 -0.3666  0.2316 -0.7288
 9200TIP3    H151795   7.029   2.209   5.257 -0.3685  0.8482 -0.7461
 9200TIP3    H251796   7.171   2.257   5.233  0.4098 -1.7122 -1.6004
 9201TIP3   OH251797   2.145   5.656   6.363  0.1755  0.1676 -0.3635
 9201TIP3    H151798   2.239   5.653   6.345  0.1340 -0.5471 -0.5080
 9201TIP3    H251799   2.122   5.565   6.385 -0.2439  0.5618  0.9148
 9202TIP3   OH251800   2.939   4.568   4.253  0.2780 -0.1012  0.2857
 9202TIP3    H151801   2.967   4.494   4.200  0.5139 -0.3470  0.7432
 9202TIP3    H251802   2.843   4.562   4.254  0.0723  1.4435 -2.2851
 9203TIP3   OH251803   2.007   6.349   5.389  0.2738 -0.1506 -0.3730
 9203TIP3    H151804   2.088   6.361   5.438  0.3548  2.8477 -1.0649
 9203TIP3    H251805   2.019   6.400   5.308 -1.9991 -0.2359 -0.8466
 9204TIP3   OH251806   4.900   7.473   5.830  0.3632 -0.1191  0.3946
 9204TIP3    H151807   4.908   7.490   5.924  0.1486  2.2429  0.0325
 9204TIP3    H251808   4.805   7.466   5.816  0.4431 -2.7244  0.6449
 9205TIP3   OH251809   3.310   5.085   4.309  0.1990  0.9442 -0.0804
 9205TIP3    H151810   3.323   5.164   4.257  0.1702  1.3982  0.5851
 9205TIP3    H251811   3.367   5.019   4.268 -0.3917  1.0760 -1.1216
 9206TIP3   OH251812   5.430   6.202   4.916 -0.2348 -0.2897  0.1368
 9206TIP3    H151813   5.463   6.291   4.927 -0.9606  0.3232 -2.1296
 9206TIP3    H251814   5.509   6.148   4.913  0.2564  0.3757  0.6295
 9207TIP3   OH251815   0.665   7.084   4.907 -0.9142 -0.0570  0.4034
 9207TIP3    H151816   0.607   7.160   4.905  0.5414  1.0626 -0.1668
 9207TIP3    H251817   0.716   7.090   4.827  0.8719 -0.3293  1.4783
 9208TIP3   OH251818   7.039   1.898   4.994  0.2527  0.0260 -0.1662
 9208TIP3    H151819   7.038   1.809   5.031  1.4237  1.0017  2.4516
 9208TIP3    H251820   6.963   1.900   4.935 -0.3589 -2.4010  0.4093
 9209TIP3   OH251821   3.962   6.712   6.280  0.4662 -0.0281 -0.6284
 9209TIP3    H151822   3.924   6.781   6.334  0.8204 -0.5015  0.2402
 9209TIP3    H251823   3.886   6.663   6.247  0.2752 -0.8471  0.9434
 9210TIP3   OH251824   4.547   3.613   5.445  0.0633  0.5025 -0.0320
 9210TIP3    H151825   4.579   3.693   5.403 -0.0176  0.9274  0.7133
 9210TIP3    H251826   4.626   3.562   5.462  0.4507  1.7387  2.2010
 9211TIP3   OH251827   1.968   1.158   5.222  0.5667  0.3258  0.6115
 9211TIP3    H151828   1.941   1.070   5.246  0.5796 -0.0288 -0.6398
 9211TIP3    H251829   2.060   1.164   5.249 -0.0643  0.8139  2.9181
 9212TIP3   OH251830   1.032   7.279   3.995 -0.3632 -0.2180 -0.3127
 9212TIP3    H151831   1.030   7.287   4.090 -0.1664  1.5364 -0.4302
 9212TIP3    H251832   1.024   7.369   3.963 -0.6143 -0.7947 -1.9620
 9213TIP3   OH251833   2.498   3.942   3.760  0.3261  0.5310 -0.4962
 9213TIP3    H151834   2.467   3.917   3.673 -0.1724 -0.6669  0.0056
 9213TIP3    H251835   2.432   3.909   3.820  0.8477  1.0144  0.3682
 9214TIP3   OH251836   2.791   7.397   3.848 -0.1645 -0.3290  0.3516
 9214TIP3    H151837   2.823   7.322   3.898  0.4646 -0.6122 -0.4451
 9214TIP3    H251838   2.747   7.358   3.773  1.2846  0.0769 -0.7535
 9215TIP3   OH251839   2.195   5.542   5.492 -0.2841 -0.0427  0.0607
 9215TIP3    H151840   2.132   5.549   5.420 -0.3032 -1.3848 -0.0825
 9215TIP3    H251841   2.218   5.449   5.495  1.5448  0.3708  0.2488
 9216TIP3   OH251842   1.264   1.909   5.894 -0.4412  0.6698  0.1799
 9216TIP3    H151843   1.349   1.882   5.861  0.3769 -2.4339  4.0347
 9216TIP3    H251844   1.201   1.852   5.848  0.0829  0.0038  0.2660
 9217TIP3   OH251845   1.272   2.720   5.636 -0.0629  0.1002  0.3360
 9217TIP3    H151846   1.318   2.737   5.718  0.6257 -0.7413  0.1397
 9217TIP3    H251847   1.340   2.729   5.569 -0.3203 -0.5476 -0.0157
 9218TIP3   OH251848   3.953   1.032   5.047 -0.6758  0.2480  0.3641
 9218TIP3    H151849   4.004   0.997   5.121 -0.6372  0.5924  0.5060
 9218TIP3    H251850   3.967   1.127   5.053  1.0965  0.1572 -1.3587
 9219TIP3   OH251851   7.498   3.942   5.217  0.3365 -0.3790 -0.1353
 9219TIP3    H151852   7.472   3.965   5.306  0.8318 -0.4297  0.0222
 9219TIP3    H251853   7.587   3.909   5.225  0.0066 -1.4198 -0.4876
 9220TIP3   OH251854   4.057   2.124   5.433 -0.1951  0.1066 -0.2514
 9220TIP3    H151855   4.036   2.184   5.361  1.0572  0.8275 -0.0350
 9220TIP3    H251856   4.008   2.158   5.508  1.3986  1.6157  0.1778
 9221TIP3   OH251857   7.539   3.768   4.333 -0.1372 -0.4358  0.0842
 9221TIP3    H151858   7.514   3.680   4.304 -0.2294 -0.2932 -0.2790
 9221TIP3    H251859   7.487   3.826   4.278  1.2361 -0.1244 -0.9452
 9222TIP3   OH251860   4.053   1.146   5.713 -0.1836  0.2799 -0.4589
 9222TIP3    H151861   3.995   1.124   5.786 -1.8150  1.1945 -1.4088
 9222TIP3    H251862   4.094   1.228   5.739  0.0319  0.0721 -0.1403
 9223TIP3   OH251863   5.706   0.770   6.073 -0.2853  0.7931 -0.5243
 9223TIP3    H151864   5.708   0.774   6.169  1.5808  0.7618 -0.5268
 9223TIP3    H251865   5.658   0.848   6.047 -1.8499  0.1992  0.4391
 9224TIP3   OH251866   6.620   2.601   4.199  0.0363  0.4343 -0.5602
 9224TIP3    H151867   6.637   2.684   4.242 -0.0734  0.3026 -0.2624
 9224TIP3    H251868   6.550   2.621   4.136  1.5956  1.0972 -2.1661
 9225TIP3   OH251869   1.340   1.769   5.028 -0.6348  0.5965  0.3658
 9225TIP3    H151870   1.245   1.772   5.012 -0.7717  0.8802  1.1607
 9225TIP3    H251871   1.378   1.754   4.942 -1.3855  0.8173 -0.0195
 9226TIP3   OH251872   4.510   2.647   4.636  0.3683 -0.1314  0.1075
 9226TIP3    H151873   4.488   2.554   4.630 -0.2352 -0.0413  0.8153
 9226TIP3    H251874   4.526   2.661   4.729  0.8702  0.3897 -0.0532
 9227TIP3   OH251875   3.380   5.212   4.666  0.7573 -0.3871 -0.2256
 9227TIP3    H151876   3.356   5.304   4.670  0.3501 -0.4296 -1.3253
 9227TIP3    H251877   3.456   5.204   4.724 -0.4657  0.2002  1.5764
 9228TIP3   OH251878   2.090   4.503   4.154 -0.2010  0.0134 -0.0873
 9228TIP3    H151879   2.030   4.450   4.206 -0.8646  0.5277 -0.3037
 9228TIP3    H251880   2.164   4.445   4.134 -0.0749 -0.2770  1.1690
 9229TIP3   OH251881   3.847   0.116   4.062 -0.0586  0.4632  0.1742
 9229TIP3    H151882   3.786   0.051   4.028 -0.3407 -0.5722  2.4440
 9229TIP3    H251883   3.928   0.101   4.012  0.4706 -2.9556  1.7434
 9230TIP3   OH251884   2.196   6.497   3.754 -0.3113 -0.1492 -0.4207
 9230TIP3    H151885   2.273   6.441   3.766  1.3489  1.8502 -1.2275
 9230TIP3    H251886   2.139   6.473   3.827  0.6910 -2.2543 -0.2369
 9231TIP3   OH251887   5.278   6.839   4.280  0.3563 -0.4513 -0.2478
 9231TIP3    H151888   5.301   6.921   4.323  0.8191 -1.4346  1.4668
 9231TIP3    H251889   5.226   6.865   4.204 -0.4091  1.3729  0.8471
 9232TIP3   OH251890   6.518   7.340   4.640  0.1832 -0.4778  0.3245
 9232TIP3    H151891   6.460   7.353   4.715 -0.5614  0.0780 -0.3186
 9232TIP3    H251892   6.587   7.282   4.672 -1.2826 -2.0189  0.8593
 9233TIP3   OH251893   1.561   7.367   4.385 -0.3250  0.6604 -0.5511
 9233TIP3    H151894   1.586   7.402   4.300 -2.3357  2.1438 -0.6040
 9233TIP3    H251895   1.641   7.327   4.419  0.6803  0.5832 -2.8392
 9234TIP3   OH251896   1.934   2.944   3.738  0.4147 -0.0261 -0.2640
 9234TIP3    H151897   1.873   3.012   3.713  0.2532 -0.2615 -0.5140
 9234TIP3    H251898   1.934   2.883   3.664 -0.3100 -0.8974  0.4255
 9235TIP3   OH251899   1.926   3.518   4.697 -0.0803 -0.1170  0.5900
 9235TIP3    H151900   1.850   3.495   4.751  1.7124 -1.1036  2.8703
 9235TIP3    H251901   1.907   3.479   4.611 -2.0617 -0.4367  1.1241
 9236TIP3   OH251902   1.927   1.638   3.794  0.1834  0.3806  0.1265
 9236TIP3    H151903   1.834   1.612   3.789 -0.2816  2.0066 -0.0748
 9236TIP3    H251904   1.935   1.676   3.882  0.4108  1.1616 -0.2330
 9237TIP3   OH251905   7.075   4.066   3.973  0.2856  0.3419 -0.5174
 9237TIP3    H151906   7.154   4.116   3.956  0.4770  0.3418  0.3184
 9237TIP3    H251907   7.005   4.131   3.972  0.5398  0.6623  0.6336
 9238TIP3   OH251908   5.442   0.622   4.283  0.2491  0.2146  0.7508
 9238TIP3    H151909   5.385   0.680   4.334 -1.1380 -0.6427  0.2233
 9238TIP3    H251910   5.523   0.618   4.333  0.5141  2.8166  0.6723
 9239TIP3   OH251911   1.313   6.553   4.672  0.3926  0.1846 -0.5329
 9239TIP3    H151912   1.387   6.525   4.726  0.5597  0.5722 -0.5549
 9239TIP3    H251913   1.262   6.610   4.730  0.5943  0.6361 -0.7926
 9240TIP3   OH251914   0.908   5.626   5.383  0.0889  0.2485 -0.0507
 9240TIP3    H151915   0.899   5.661   5.294  0.3145  0.1694 -0.1072
 9240TIP3    H251916   0.970   5.685   5.426 -1.1232  1.1425  0.5231
 9241TIP3   OH251917   6.914   4.186   5.008 -0.3875  0.1058  0.2713
 9241TIP3    H151918   6.904   4.097   5.044  1.5245 -0.6377 -0.9160
 9241TIP3    H251919   6.878   4.180   4.920  0.8785  0.1592 -0.2625
 9242TIP3   OH251920   0.991   6.178   6.614  0.3907  0.0229  0.1555
 9242TIP3    H151921   0.899   6.175   6.641  0.1932 -0.6726 -0.5652
 9242TIP3    H251922   0.997   6.254   6.557  0.2705  0.0878  0.2295
 9243TIP3   OH251923   4.579   2.183   4.613 -0.0052 -0.0517 -0.1054
 9243TIP3    H151924   4.560   2.091   4.634  2.4902 -0.4138  0.9714
 9243TIP3    H251925   4.503   2.231   4.646 -0.1387 -1.5019  1.9370
 9244TIP3   OH251926   6.468   2.471   5.679  0.3930 -0.4800  0.4459
 9244TIP3    H151927   6.425   2.529   5.616  0.3918 -0.8643  0.0915
 9244TIP3    H251928   6.459   2.516   5.763  0.4643  0.0710  0.1595
 9245TIP3   OH251929   1.620   7.584   5.867  0.5014  0.0384 -0.0072
 9245TIP3    H151930   1.680   7.654   5.841  0.3819 -0.6099 -2.1790
 9245TIP3    H251931   1.591   7.609   5.955  1.9673  1.6824  0.0547
 9246TIP3   OH251932   0.567   4.906   4.154  0.2779  0.3606 -0.3115
 9246TIP3    H151933   0.588   4.922   4.246  0.1100  0.9333 -0.3683
 9246TIP3    H251934   0.620   4.830   4.130 -0.2188 -0.2442  0.4571
 9247TIP3   OH251935   0.062   4.888   6.809  0.1341  0.0658  0.1090
 9247TIP3    H151936   0.154   4.889   6.781  0.4937  0.4831  1.2300
 9247TIP3    H251937   0.024   4.966   6.767  0.4177  0.1659  0.0295
 9248TIP3   OH251938   3.586   3.145   3.639  0.7260  0.4183 -0.2912
 9248TIP3    H151939   3.644   3.192   3.579 -1.0867  0.7655 -1.8535
 9248TIP3    H251940   3.601   3.186   3.724  0.4248  2.7317 -1.2915
 9249TIP3   OH251941   5.208   1.842   4.676  0.0373 -0.3351  0.3900
 9249TIP3    H151942   5.204   1.778   4.605  0.8221 -1.2550  1.1602
 9249TIP3    H251943   5.299   1.841   4.705 -0.1225  0.5303  0.9690
 9250TIP3   OH251944   5.729   0.366   4.101  0.0188  0.4074 -0.3185
 9250TIP3    H151945   5.634   0.368   4.105 -0.0150  2.1686 -0.9997
 9250TIP3    H251946   5.752   0.274   4.111 -1.7385 -0.0408 -0.0912
 9251TIP3   OH251947   4.104   6.560   3.578  0.5303 -0.0644  0.2377
 9251TIP3    H151948   4.089   6.510   3.659  1.4565 -2.2163 -0.8374
 9251TIP3    H251949   4.018   6.562   3.535  0.5832 -1.3229  0.0223
 9252TIP3   OH251950   0.757   1.053   3.827 -0.2167 -0.2026 -0.5121
 9252TIP3    H151951   0.847   1.034   3.801  0.4126  0.6781  0.9011
 9252TIP3    H251952   0.752   1.148   3.829 -0.6120 -0.2324  1.1860
 9253TIP3   OH251953   5.632   3.944   5.488  0.1682 -0.7022  0.4773
 9253TIP3    H151954   5.602   3.860   5.522  0.5068 -0.9348  0.1988
 9253TIP3    H251955   5.583   3.956   5.407  0.9570 -1.1769 -0.0838
 9254TIP3   OH251956   0.757   5.073   6.792 -0.6648  0.2164 -0.5059
 9254TIP3    H151957   0.791   4.993   6.751 -1.8926 -1.0517  0.7980
 9254TIP3    H251958   0.668   5.080   6.759 -2.6889 -2.3373  3.5899
 9255TIP3   OH251959   5.932   1.027   4.346 -0.0169  0.4169  0.5075
 9255TIP3    H151960   5.866   0.959   4.332  0.6327 -0.1394  0.0533
 9255TIP3    H251961   5.883   1.101   4.383 -0.5650 -0.6755  2.0805
 9256TIP3   OH251962   1.844   5.440   4.734 -0.5258 -1.0335  0.5539
 9256TIP3    H151963   1.755   5.406   4.726 -0.8005 -0.2233  0.0607
 9256TIP3    H251964   1.835   5.518   4.788 -0.5923  0.7303 -1.8690
 9257TIP3   OH251965   1.170   0.744   4.868  0.5430  0.3084 -0.0597
 9257TIP3    H151966   1.156   0.727   4.961 -0.6225  0.1645 -0.2424
 9257TIP3    H251967   1.082   0.742   4.830  1.1575 -2.1553 -1.5833
 9258TIP3   OH251968   1.362   1.201   5.908 -0.0489  0.0803 -0.0022
 9258TIP3    H151969   1.390   1.177   5.996  2.3859 -0.3289 -0.8112
 9258TIP3    H251970   1.383   1.295   5.901  0.0081  0.0517 -0.2281
 9259TIP3   OH251971   0.072   4.359   5.064  0.0946  0.2267  0.5518
 9259TIP3    H151972   0.137   4.416   5.105 -0.7566  1.1673  0.6352
 9259TIP3    H251973   0.085   4.274   5.105  1.4066  0.3435  0.4129
 9260TIP3   OH251974   5.938   3.620   5.784  0.2247  0.1743  0.4993
 9260TIP3    H151975   6.027   3.601   5.755 -0.0335 -0.1651 -0.0893
 9260TIP3    H251976   5.914   3.545   5.839 -0.0848 -0.2973 -0.2436
 9261TIP3   OH251977   7.343   2.496   5.778 -0.4206  0.2609  0.1284
 9261TIP3    H151978   7.255   2.534   5.784  0.9234  3.4175  2.1807
 9261TIP3    H251979   7.342   2.447   5.695 -4.2214 -0.3590  0.3369
 9262TIP3   OH251980   2.270   0.954   6.277 -0.0854 -0.4944  0.6791
 9262TIP3    H151981   2.178   0.948   6.303  0.0228  0.6325  1.3978
 9262TIP3    H251982   2.319   0.947   6.359  0.5591 -2.2714  0.1890
 9263TIP3   OH251983   5.450   1.871   5.012  0.5481 -0.5161 -0.3337
 9263TIP3    H151984   5.437   1.961   4.982  2.1082 -0.5419 -1.2394
 9263TIP3    H251985   5.544   1.857   5.003  0.6574 -1.5588  1.8355
 9264TIP3   OH251986   2.620   2.042   4.283  0.2741 -0.5012  0.4130
 9264TIP3    H151987   2.636   1.948   4.295  1.1495 -0.2710  1.1417
 9264TIP3    H251988   2.604   2.051   4.189  1.6626 -1.1777  0.0801
 9265TIP3   OH251989   5.121   5.269   5.589 -0.1815  0.4548 -0.3931
 9265TIP3    H151990   5.125   5.193   5.530 -0.0400 -0.3517  0.6201
 9265TIP3    H251991   5.039   5.313   5.566  0.3395  0.7245 -1.8432
 9266TIP3   OH251992   1.963   1.158   4.937  0.0019  0.1949 -0.1280
 9266TIP3    H151993   1.977   1.144   5.031  1.3058 -2.0856 -0.6024
 9266TIP3    H251994   1.874   1.124   4.922  0.0250 -0.0078  0.1726
 9267TIP3   OH251995   1.845   2.857   3.988 -0.8499 -0.6481 -0.1625
 9267TIP3    H151996   1.791   2.936   3.995  0.8385  0.4986  0.6144
 9267TIP3    H251997   1.907   2.876   3.918 -0.5709 -1.3844 -0.1236
 9268TIP3   OH251998   5.061   1.179   5.356 -0.2626  0.0751  0.5369
 9268TIP3    H151999   5.135   1.238   5.341 -0.1947  0.0483  0.7736
 9268TIP3    H252000   5.026   1.206   5.441 -3.0514  2.8353 -1.2728
 9269TIP3   OH252001   0.666   1.152   4.650  0.2268 -0.0676  0.0753
 9269TIP3    H152002   0.615   1.197   4.583  0.0563 -1.5044 -0.8070
 9269TIP3    H252003   0.616   1.072   4.669  1.0373 -0.4218  0.7971
 9270TIP3   OH252004   0.181   2.325   5.526  0.8324 -0.9034 -0.0174
 9270TIP3    H152005   0.094   2.303   5.494  1.0761 -1.7084 -0.1382
 9270TIP3    H252006   0.208   2.249   5.578  0.6601  0.1456  1.6837
 9271TIP3   OH252007   6.384   6.180   5.644 -0.1070 -0.1141 -0.3258
 9271TIP3    H152008   6.289   6.176   5.631 -0.0226 -0.8193 -0.7085
 9271TIP3    H252009   6.408   6.267   5.612 -0.7699  0.4871  0.7395
 9272TIP3   OH252010   3.325   4.929   6.272  0.1165  0.6754 -0.6621
 9272TIP3    H152011   3.417   4.919   6.295  0.1097 -0.5194 -1.0387
 9272TIP3    H252012   3.310   4.862   6.204 -1.0136  0.8632 -0.6219
 9273TIP3   OH252013   5.174   6.642   3.795 -0.0124 -0.2622 -0.1303
 9273TIP3    H152014   5.152   6.598   3.877 -0.2072  0.5568  0.2685
 9273TIP3    H252015   5.266   6.665   3.804  0.7066 -2.4050 -1.2074
 9274TIP3   OH252016   2.550   2.787   6.120  0.0452  0.2534 -0.0247
 9274TIP3    H152017   2.492   2.844   6.070 -1.0549 -0.4077  0.4423
 9274TIP3    H252018   2.610   2.847   6.165 -0.5576  0.9976 -0.1897
 9275TIP3   OH252019   1.454   3.781   5.570  0.1309  0.2010  0.3851
 9275TIP3    H152020   1.406   3.731   5.636  0.1550 -1.0823 -0.5326
 9275TIP3    H252021   1.453   3.871   5.603 -0.0734 -0.3529  2.0008
 9276TIP3   OH252022   4.538   2.610   6.295  0.0138 -0.4042  0.4324
 9276TIP3    H152023   4.591   2.555   6.238 -0.7727 -0.3786 -0.3411
 9276TIP3    H252024   4.599   2.643   6.360  1.2910  0.9720 -1.3879
 9277TIP3   OH252025   0.906   4.618   5.529 -0.2175  0.3566  0.5319
 9277TIP3    H152026   0.825   4.578   5.498 -1.7832  1.5853  2.8295
 9277TIP3    H252027   0.953   4.547   5.572 -0.3595 -0.2054 -0.2140
 9278TIP3   OH252028   2.588   4.523   5.734 -0.1498  0.0009  0.1362
 9278TIP3    H152029   2.657   4.583   5.763 -1.4430  2.0214 -0.6826
 9278TIP3    H252030   2.528   4.518   5.809  0.9746 -1.9994  0.9611
 9279TIP3   OH252031   5.061   1.005   4.723  0.6944  0.0048  0.1652
 9279TIP3    H152032   4.994   1.060   4.762 -2.9322 -3.7884 -0.0405
 9279TIP3    H252033   5.052   1.018   4.628 -1.1888 -1.7923  0.0348
 9280TIP3   OH252034   5.936   3.743   4.637 -0.2125  0.4078  0.1856
 9280TIP3    H152035   5.884   3.787   4.704  2.6661  1.8739  1.6722
 9280TIP3    H252036   5.882   3.670   4.608 -1.8042 -0.1246  3.8749
 9281TIP3   OH252037   7.368   5.287   6.075 -0.0797 -0.3232 -0.1911
 9281TIP3    H152038   7.318   5.362   6.107  1.6517  1.5205 -1.5598
 9281TIP3    H252039   7.309   5.213   6.084 -1.7280  1.1039  1.6072
 9282TIP3   OH252040   0.884   3.084   4.875  0.2100 -0.4959  0.3939
 9282TIP3    H152041   0.972   3.067   4.910 -0.1280 -1.3764  0.8561
 9282TIP3    H252042   0.837   3.125   4.948  0.8421  2.0846 -0.5265
 9283TIP3   OH252043   2.625   0.985   4.724 -0.6568  0.0078  0.5713
 9283TIP3    H152044   2.664   0.984   4.637  0.9750 -0.4813  1.2726
 9283TIP3    H252045   2.534   0.959   4.710 -0.5281  0.3242 -1.0207
 9284TIP3   OH252046   7.457   4.478   6.185 -0.0143  0.1690  0.0526
 9284TIP3    H152047   7.548   4.448   6.188 -0.0891 -0.1608 -0.7448
 9284TIP3    H252048   7.462   4.572   6.203  0.6533  0.4589 -1.4588
 9285TIP3   OH252049   3.322   1.672   4.020  0.2530 -0.2541  0.1929
 9285TIP3    H152050   3.365   1.687   4.104 -3.4197  1.4385  2.0093
 9285TIP3    H252051   3.352   1.743   3.964  2.8763 -1.4964 -0.1188
 9286TIP3   OH252052   1.011   0.626   5.079 -0.1026  0.5470 -0.1196
 9286TIP3    H152053   0.935   0.590   5.124  0.2555  2.0969  1.8337
 9286TIP3    H252054   1.008   0.720   5.097  0.4675  1.1587 -2.8099
 9287TIP3   OH252055   1.140   2.506   4.774  0.0028 -0.1143  0.3622
 9287TIP3    H152056   1.094   2.470   4.698 -0.4563 -0.0551  0.6055
 9287TIP3    H252057   1.232   2.509   4.748 -0.3086  1.1800 -0.7093
 9288TIP3   OH252058   4.077   0.153   5.082 -0.0706  0.2718 -0.2752
 9288TIP3    H152059   4.095   0.061   5.066 -0.8008  0.2220 -0.8660
 9288TIP3    H252060   4.070   0.192   4.995  1.1452  1.0826 -0.0328
 9289TIP3   OH252061   6.150   3.545   4.552 -0.1090  0.2431  0.1323
 9289TIP3    H152062   6.073   3.573   4.602  0.4928 -0.3580  1.4605
 9289TIP3    H252063   6.114   3.511   4.470 -1.2451  0.2149  0.6188
 9290TIP3   OH252064   3.144   4.081   4.108 -0.1866 -0.2012 -0.6524
 9290TIP3    H152065   3.057   4.063   4.144 -0.1170 -1.7982 -1.2299
 9290TIP3    H252066   3.145   4.038   4.023  1.1485 -0.1384 -0.6937
 9291TIP3   OH252067   0.631   5.113   5.145 -0.1476 -0.0749 -0.2637
 9291TIP3    H152068   0.660   5.022   5.137  0.3756  0.0141  0.4280
 9291TIP3    H252069   0.598   5.119   5.235 -2.1243 -0.0959 -0.9346
 9292TIP3   OH252070   1.995   3.126   5.328  0.1087 -0.2269 -0.0449
 9292TIP3    H152071   1.971   3.201   5.382  1.1753  0.5713 -0.6314
 9292TIP3    H252072   2.078   3.151   5.288  0.6836 -1.8860  0.0309
 9293TIP3   OH252073   7.089   2.690   6.439 -0.3089  0.1403  0.0605
 9293TIP3    H152074   7.142   2.611   6.448  0.5117  0.6275 -0.3885
 9293TIP3    H252075   7.137   2.757   6.488  0.4633  1.0374 -1.8287
 9294TIP3   OH252076   6.582   7.333   6.354 -0.0932  0.1409  0.6923
 9294TIP3    H152077   6.669   7.325   6.315  0.6641 -0.4067  2.4132
 9294TIP3    H252078   6.560   7.245   6.383 -2.0378 -0.1121 -1.2469
 9295TIP3   OH252079   1.725   7.678   4.984  0.2917 -0.6576 -0.0995
 9295TIP3    H152080   1.667   7.632   5.045 -1.1689  0.6773 -0.4055
 9295TIP3    H252081   1.667   7.740   4.939  1.9727  0.7277 -0.4361
 9296TIP3   OH252082   3.216   5.445   4.589 -0.3068  0.4025  0.1287
 9296TIP3    H152083   3.121   5.440   4.599 -0.2973  1.2483  0.7959
 9296TIP3    H252084   3.235   5.539   4.592  0.7484  0.1653  2.1015
 9297TIP3   OH252085   5.974   7.317   5.255 -0.3805  0.0853  0.1725
 9297TIP3    H152086   5.968   7.393   5.198  0.4935 -0.8958 -1.2867
 9297TIP3    H252087   5.889   7.274   5.247 -0.5011  0.3178  0.1768
 9298TIP3   OH252088   6.196   0.247   4.511 -0.2057 -0.5520  0.0958
 9298TIP3    H152089   6.251   0.323   4.490 -0.2212 -0.6595 -0.3268
 9298TIP3    H252090   6.150   0.273   4.591 -0.4942  0.0277 -0.2550
 9299TIP3   OH252091   3.514   7.048   6.407  0.2217 -0.7117  0.1293
 9299TIP3    H152092   3.548   6.968   6.448  0.8515 -1.1319 -1.1592
 9299TIP3    H252093   3.462   7.016   6.333 -1.6442 -0.0061  1.0934
 9300TIP3   OH252094   1.683   1.145   4.561 -0.1988  0.0432 -0.0914
 9300TIP3    H152095   1.771   1.140   4.598 -0.1082  2.0373  0.0388
 9300TIP3    H252096   1.694   1.116   4.470  0.7991  1.2217 -0.3684
 9301TIP3   OH252097   4.216   4.176   4.727  0.0278  0.6557 -0.8036
 9301TIP3    H152098   4.253   4.096   4.690 -0.2813  0.1503 -0.0485
 9301TIP3    H252099   4.198   4.231   4.651  1.8478  0.7183 -1.2363
 9302TIP3   OH252100   7.446   7.303   5.542  0.3025 -0.1621  0.6481
 9302TIP3    H152101   7.475   7.213   5.557  0.9431 -0.0221  0.2890
 9302TIP3    H252102   7.519   7.344   5.495  0.4557  0.8351  1.7140
 9303TIP3   OH252103   4.979   7.431   5.386  0.6201  0.3875 -0.0222
 9303TIP3    H152104   4.978   7.509   5.442 -0.5322  0.5563 -0.2426
 9303TIP3    H252105   4.886   7.412   5.371  0.8623  0.6435 -2.2653
 9304TIP3   OH252106   0.630   6.510   5.847  0.0617 -0.2920  0.0066
 9304TIP3    H152107   0.668   6.474   5.927  0.0650 -0.5024 -0.0893
 9304TIP3    H252108   0.543   6.539   5.874 -0.8423 -2.4436 -0.4045
 9305TIP3   OH252109   2.657   5.603   4.949  0.1935  0.3658 -0.1589
 9305TIP3    H152110   2.643   5.691   4.914  0.7045  1.3182  1.8630
 9305TIP3    H252111   2.584   5.551   4.914  0.6063  1.2274 -2.4342
 9306TIP3   OH252112   5.431   3.814   3.838  0.0902  0.6433 -0.4624
 9306TIP3    H152113   5.388   3.877   3.896 -1.2050  2.4219 -3.1389
 9306TIP3    H252114   5.362   3.753   3.812  1.1377 -1.5146  1.4083
 9307TIP3   OH252115   5.599   7.505   4.814  0.5946 -1.1407 -0.0530
 9307TIP3    H152116   5.674   7.480   4.761 -0.5511 -2.9209 -0.9407
 9307TIP3    H252117   5.525   7.503   4.753  0.0382  2.8633  0.2041
 9308TIP3   OH252118   2.137   4.027   3.765  0.1075 -0.1867 -0.2956
 9308TIP3    H152119   2.166   4.019   3.856  1.4840  1.3716 -0.5433
 9308TIP3    H252120   2.155   3.941   3.726 -0.0382 -0.7143  0.7750
 9309TIP3   OH252121   6.691   3.175   4.702  0.1193 -0.2979 -0.3461
 9309TIP3    H152122   6.760   3.180   4.769  0.1865  1.9924 -0.4988
 9309TIP3    H252123   6.615   3.141   4.749  0.4247  0.3524  0.6630
 9310TIP3   OH252124   4.375   6.673   4.162 -0.3077  0.6150 -0.7375
 9310TIP3    H152125   4.445   6.611   4.185 -0.1034 -0.2140 -3.2632
 9310TIP3    H252126   4.402   6.755   4.204 -0.2759 -0.7545  2.2105
 9311TIP3   OH252127   4.910   7.162   4.117  0.2600 -0.0824  0.6362
 9311TIP3    H152128   4.979   7.147   4.182 -0.1998  1.3144  1.4848
 9311TIP3    H252129   4.834   7.190   4.167 -0.2283  0.6607 -0.4592
 9312TIP3   OH252130   3.199   6.388   5.793 -0.3752 -0.1870 -0.2476
 9312TIP3    H152131   3.231   6.378   5.882 -0.5963  1.3227  0.0367
 9312TIP3    H252132   3.231   6.311   5.746  1.8118  0.1786  0.5433
 9313TIP3   OH252133   0.197   0.813   5.080  0.5097 -0.1428 -0.3259
 9313TIP3    H152134   0.206   0.889   5.138 -0.3529  1.0481 -1.6930
 9313TIP3    H252135   0.103   0.800   5.072  0.4006  1.5661 -3.6410
 9314TIP3   OH252136   1.292   3.227   6.107 -0.0418  0.2432 -0.4437
 9314TIP3    H152137   1.242   3.274   6.040 -1.0252  1.2913  0.9810
 9314TIP3    H252138   1.381   3.222   6.071 -1.1360 -2.0465 -3.2447
 9315TIP3   OH252139   0.157   4.135   5.320  0.7032 -0.0839 -0.0129
 9315TIP3    H152140   0.127   4.145   5.410  0.5142 -0.0222 -0.0824
 9315TIP3    H252141   0.204   4.216   5.301 -1.2274  0.9419 -0.7322
 9316TIP3   OH252142   3.943   3.163   3.691  0.2201 -0.2350 -0.2187
 9316TIP3    H152143   3.907   3.084   3.730  0.2845 -0.9551 -1.5337
 9316TIP3    H252144   3.877   3.191   3.627  0.1839  0.8102  0.2418
 9317TIP3   OH252145   6.871   5.356   4.436 -0.4442  0.2957 -0.0744
 9317TIP3    H152146   6.929   5.282   4.425 -1.0869 -0.2894  0.3733
 9317TIP3    H252147   6.794   5.320   4.480 -0.3419  1.4248  1.0871
 9318TIP3   OH252148   0.477   3.855   5.230 -0.4130 -0.0391  0.2606
 9318TIP3    H152149   0.415   3.782   5.227 -0.6558  0.1068  1.2789
 9318TIP3    H252150   0.556   3.821   5.188 -0.7005 -0.7126  0.2477
 9319TIP3   OH252151   7.324   5.889   3.909 -0.4841 -0.0735 -0.0856
 9319TIP3    H152152   7.361   5.899   3.997 -1.1796  1.3765  0.0719
 9319TIP3    H252153   7.393   5.917   3.850  0.1640 -1.5233 -0.0637
 9320TIP3   OH252154   2.373   2.552   5.048  0.3647  0.4883 -0.1549
 9320TIP3    H152155   2.411   2.623   4.997  1.6461 -0.4031 -0.5026
 9320TIP3    H252156   2.428   2.547   5.127  1.9053 -1.6653 -1.2606
 9321TIP3   OH252157   5.463   5.315   4.928 -0.0259 -0.4313  0.6153
 9321TIP3    H152158   5.452   5.306   4.833 -0.9871  2.9640  0.2649
 9321TIP3    H252159   5.405   5.249   4.965  0.1811 -1.6704 -1.1415
 9322TIP3   OH252160   1.863   7.553   4.196  0.1407  0.6332 -0.5574
 9322TIP3    H152161   1.773   7.586   4.195 -0.5175 -0.9783  1.0031
 9322TIP3    H252162   1.862   7.479   4.136  0.6099  0.9944 -1.0216
 9323TIP3   OH252163   4.853   3.114   4.105 -0.6526  0.7453  0.8652
 9323TIP3    H152164   4.897   3.155   4.030 -2.6212 -1.7582 -1.8970
 9323TIP3    H252165   4.923   3.074   4.156  0.6392  0.7626 -0.8303
 9324TIP3   OH252166   0.342   7.392   4.059  0.1535 -0.4027 -0.3056
 9324TIP3    H152167   0.253   7.416   4.033  0.2571 -1.0410 -1.3063
 9324TIP3    H252168   0.335   7.299   4.083  0.7809 -0.8187 -1.6345
 9325TIP3   OH252169   0.382   6.028   3.914  0.1110  0.1601 -0.2416
 9325TIP3    H152170   0.416   6.059   3.830 -0.9249  0.0320 -0.7257
 9325TIP3    H252171   0.332   6.101   3.949 -1.1171 -0.4364 -0.6902
 9326TIP3   OH252172   7.253   7.465   5.186  0.2802  0.4824  0.3485
 9326TIP3    H152173   7.196   7.539   5.209  1.5865  2.0751 -1.1991
 9326TIP3    H252174   7.285   7.433   5.270 -0.8969  1.1921  1.1041
 9327TIP3   OH252175   4.277   1.065   4.076  0.8561  0.1279 -0.3039
 9327TIP3    H152176   4.305   1.126   4.144  0.0917  0.1530 -0.0116
 9327TIP3    H252177   4.184   1.083   4.064  0.3613 -1.6778  0.5210
 9328TIP3   OH252178   2.985   3.437   4.327  0.4264 -0.0345 -0.1978
 9328TIP3    H152179   3.018   3.365   4.380  1.1408  0.4159 -0.0299
 9328TIP3    H252180   2.898   3.407   4.298 -0.4451  0.1290  2.0513
 9329TIP3   OH252181   7.663   6.625   4.634  0.0992  0.5586  0.5163
 9329TIP3    H152182   7.603   6.573   4.581  0.0831  0.8568  0.2415
 9329TIP3    H252183   7.685   6.568   4.708 -0.3963  0.3915  0.5360
 9330TIP3   OH252184   7.462   2.629   6.604  0.1856  0.2391  0.3075
 9330TIP3    H152185   7.406   2.704   6.622  0.2197  0.1785  0.6790
 9330TIP3    H252186   7.406   2.566   6.560 -0.2879 -0.2046  1.5213
 9331TIP3   OH252187   2.749   0.901   3.637  0.9343  0.3889 -0.0372
 9331TIP3    H152188   2.760   0.886   3.543 -0.9670  0.1332 -0.2684
 9331TIP3    H252189   2.707   0.987   3.642  0.5985  0.1967  0.5436
 9332TIP3   OH252190   6.822   0.861   4.587 -0.3209  0.1842  0.1907
 9332TIP3    H152191   6.779   0.840   4.669 -2.4267 -1.5825 -1.2588
 9332TIP3    H252192   6.837   0.777   4.545 -0.3784  1.0940 -1.7671
 9333TIP3   OH252193   2.515   2.574   3.666  0.0314  0.2231 -0.6104
 9333TIP3    H152194   2.539   2.653   3.618  0.7848 -0.1905 -0.9328
 9333TIP3    H252195   2.592   2.517   3.658 -0.3814 -0.4142 -0.1149
 9334TIP3   OH252196   5.197   3.294   5.389 -0.2383 -0.0004  0.0161
 9334TIP3    H152197   5.149   3.375   5.406 -0.1477  0.1474 -0.4414
 9334TIP3    H252198   5.140   3.244   5.330  0.4838  0.4912 -1.1243
 9335TIP3   OH252199   6.718   6.372   4.654  0.4119  0.1651 -0.1548
 9335TIP3    H152200   6.698   6.434   4.584  0.5999  0.5093  0.0953
 9335TIP3    H252201   6.681   6.412   4.733  0.7952  0.1040  0.0593
 9336TIP3   OH252202   2.402   0.310   4.550 -0.5820  0.6298 -0.2961
 9336TIP3    H152203   2.439   0.227   4.580  0.2381  1.0949  0.0138
 9336TIP3    H252204   2.402   0.303   4.455 -0.3773  0.3308 -0.2755
 9337TIP3   OH252205   6.914   4.611   5.610 -0.0648 -0.1157  0.1909
 9337TIP3    H152206   6.901   4.602   5.704 -0.4454  0.2196  0.1719
 9337TIP3    H252207   6.937   4.523   5.580 -1.6702 -0.6098  0.3251
 9338TIP3   OH252208   7.242   4.912   6.272  0.0372  0.4418  0.2071
 9338TIP3    H152209   7.191   4.843   6.314 -0.1425  0.2725 -0.2830
 9338TIP3    H252210   7.178   4.981   6.254  0.2129  0.7358  0.6794
 9339TIP3   OH252211   2.835   4.861   5.652 -0.2470  0.0125  0.1290
 9339TIP3    H152212   2.830   4.775   5.609  1.4301 -0.2469  0.3788
 9339TIP3    H252213   2.879   4.917   5.589  0.9382  0.0070  0.9239
 9340TIP3   OH252214   7.023   4.284   5.367 -0.0911  0.5335 -0.1198
 9340TIP3    H152215   7.114   4.268   5.344  0.3258  2.3750  0.0563
 9340TIP3    H252216   6.993   4.351   5.305 -0.9360  0.8336  0.5715
 9341TIP3   OH252217   0.047   0.080   5.713  0.6430  0.1078  0.5198
 9341TIP3    H152218   0.031  -0.001   5.665  0.7834  0.1430  0.4121
 9341TIP3    H252219   0.010   0.065   5.800  1.4436 -0.3890  0.7863
 9342TIP3   OH252220   4.463   3.721   5.923 -0.1370  0.7472 -0.1794
 9342TIP3    H152221   4.547   3.741   5.881  0.2369 -0.1892  0.0848
 9342TIP3    H252222   4.483   3.650   5.984 -1.1367  0.4459 -0.1773
 9343TIP3   OH252223   3.835   5.657   5.813  0.4270  0.5604  0.4540
 9343TIP3    H152224   3.879   5.612   5.740 -1.2907  3.3070 -2.4964
 9343TIP3    H252225   3.907   5.684   5.870  2.0869  0.1389 -1.3035
 9344TIP3   OH252226   2.459   5.887   5.197  0.1175 -1.1519 -0.0666
 9344TIP3    H152227   2.408   5.817   5.155 -1.0005 -1.3906  1.5880
 9344TIP3    H252228   2.394   5.956   5.215  0.3774 -1.3610  1.8807
 9345TIP3   OH252229   2.703   4.641   4.640  0.2337  0.2802  0.8953
 9345TIP3    H152230   2.727   4.713   4.582  0.5776  0.8735  1.7452
 9345TIP3    H252231   2.608   4.633   4.631  0.2840  0.3608  0.2578
 9346TIP3   OH252232   7.054   4.196   6.010 -0.2900  0.2109  0.2840
 9346TIP3    H152233   7.044   4.285   6.043 -2.2969 -0.1263  0.7193
 9346TIP3    H252234   6.970   4.178   5.967 -0.0553 -1.6011  0.5413
 9347TIP3   OH252235   1.006   6.106   6.142  0.2792 -0.2487 -0.0865
 9347TIP3    H152236   1.008   6.044   6.215 -0.9969  0.0270  0.2071
 9347TIP3    H252237   0.922   6.088   6.098  0.8081 -0.0792 -1.1969
 9348TIP3   OH252238   6.983   3.745   5.744  0.3513 -0.0876  0.0691
 9348TIP3    H152239   7.025   3.783   5.666  0.0362 -1.3589 -0.7397
 9348TIP3    H252240   6.923   3.679   5.709 -0.5589  0.0389  1.3478
 9349TIP3   OH252241   2.588   2.811   3.540  0.1051 -0.0965  0.4088
 9349TIP3    H152242   2.612   2.874   3.608 -2.1147  0.3597  0.8607
 9349TIP3    H252243   2.631   2.843   3.461  2.6269 -0.5488  1.5057
 9350TIP3   OH252244   3.397   7.046   4.612 -0.4323  0.4728  0.6748
 9350TIP3    H152245   3.440   6.987   4.550 -1.3294  2.1052 -1.6290
 9350TIP3    H252246   3.466   7.069   4.674  1.3961  1.0019 -1.4058
 9351TIP3   OH252247   5.540   3.518   3.776  0.0490 -0.4413  0.1331
 9351TIP3    H152248   5.600   3.582   3.737 -0.0024 -1.3432 -1.5152
 9351TIP3    H252249   5.598   3.447   3.805 -0.1241 -0.8877 -0.5957
 9352TIP3   OH252250   0.064   1.384   4.625 -0.1029  0.4738  0.1573
 9352TIP3    H152251   0.125   1.351   4.691  0.3232  0.1583 -0.3855
 9352TIP3    H252252   0.115   1.385   4.543 -1.1834 -1.0776 -0.5951
 9353TIP3   OH252253   4.221   6.067   5.303  0.2708  0.5339  0.2005
 9353TIP3    H152254   4.127   6.083   5.300  0.4115  1.3319 -1.8424
 9353TIP3    H252255   4.255   6.132   5.365 -0.4488  0.5947  0.5445
 9354TIP3   OH252256   7.409   5.163   4.560 -0.2316 -0.3101 -0.1886
 9354TIP3    H152257   7.445   5.138   4.474 -0.4749  0.4882 -0.5357
 9354TIP3    H252258   7.382   5.081   4.600  1.0478 -0.8398 -0.3437
 9355TIP3   OH252259   2.293   4.816   4.296  0.2685  0.2734  0.5298
 9355TIP3    H152260   2.267   4.889   4.352 -0.1854  0.2924  0.3003
 9355TIP3    H252261   2.376   4.785   4.333 -0.6619 -0.5463  2.0085
 9356TIP3   OH252262   6.711   5.274   4.833  0.5582  0.0819 -0.1277
 9356TIP3    H152263   6.754   5.211   4.775  0.4311 -0.2605  0.1526
 9356TIP3    H252264   6.618   5.259   4.821  0.5142  0.6008 -0.4828
 9357TIP3   OH252265   4.244   3.604   4.045 -0.3254 -0.1897 -0.1062
 9357TIP3    H152266   4.191   3.663   4.099 -2.1137 -1.1739 -0.6889
 9357TIP3    H252267   4.237   3.519   4.089  2.1618 -0.0662  0.6910
 9358TIP3   OH252268   3.880   2.630   4.876  0.5015  0.4442  0.1109
 9358TIP3    H152269   3.934   2.567   4.925  0.1070  0.1398  0.1607
 9358TIP3    H252270   3.825   2.576   4.820  0.9508  0.7931 -0.6819
 9359TIP3   OH252271   6.601   4.442   4.800  1.2197  0.2530  0.1222
 9359TIP3    H152272   6.577   4.360   4.757 -0.2041  0.7049  0.0138
 9359TIP3    H252273   6.573   4.431   4.891 -0.1494  1.0782 -0.1789
 9360TIP3   OH252274   2.420   3.209   3.799  0.2970  0.1688 -0.5163
 9360TIP3    H152275   2.328   3.203   3.824  0.0798  2.8503 -0.3841
 9360TIP3    H252276   2.455   3.280   3.853  1.9963  0.3627 -1.7992
 9361TIP3   OH252277   0.436   5.400   5.712 -0.0170  0.3534  0.4689
 9361TIP3    H152278   0.505   5.444   5.662 -1.2492  1.5636 -0.2299
 9361TIP3    H252279   0.464   5.409   5.803  0.1696  1.9291  0.2950
 9362TIP3   OH252280   2.047   2.435   5.968 -0.2973 -0.0886  0.4084
 9362TIP3    H152281   2.016   2.506   5.912  0.8985 -0.0622 -0.2439
 9362TIP3    H252282   2.089   2.374   5.908 -0.7360 -1.0426  1.0476
 9363TIP3   OH252283   4.640   3.818   5.329 -0.0332 -0.4634 -0.6810
 9363TIP3    H152284   4.678   3.869   5.400  2.3929 -1.0873 -1.4285
 9363TIP3    H252285   4.592   3.882   5.276 -0.0014  0.3881  0.2946
 9364TIP3   OH252286   7.146   6.719   4.182  0.0072 -0.1590  0.2172
 9364TIP3    H152287   7.085   6.659   4.225  0.4656 -0.3342  0.6353
 9364TIP3    H252288   7.220   6.724   4.242 -0.2226  1.1989  0.4265
 9365TIP3   OH252289   1.438   1.196   4.454  0.4631  0.0060 -0.8840
 9365TIP3    H152290   1.434   1.111   4.411 -0.0237 -0.0003 -0.8354
 9365TIP3    H252291   1.525   1.199   4.493  0.2210 -0.7825 -0.2602
 9366TIP3   OH252292   6.624   6.299   5.051  0.5807  0.1769 -0.2484
 9366TIP3    H152293   6.631   6.354   4.973 -0.0787  2.0114  0.9115
 9366TIP3    H252294   6.543   6.329   5.094  0.5032 -1.3311  0.7417
 9367TIP3   OH252295   0.750   3.506   4.129  0.0238 -0.0398  0.0036
 9367TIP3    H152296   0.701   3.534   4.207  0.9839  0.4314  0.4571
 9367TIP3    H252297   0.699   3.434   4.093 -0.2181 -0.5638  1.3260
 9368TIP3   OH252298   6.814   0.742   6.518  0.1123  0.1072  0.2315
 9368TIP3    H152299   6.723   0.764   6.496  0.5303  1.2036 -0.5311
 9368TIP3    H252300   6.864   0.819   6.491  0.9848  0.6284  2.9891
 9369TIP3   OH252301   6.964   2.265   5.674  0.4583 -0.1350  0.4613
 9369TIP3    H152302   6.968   2.232   5.764 -1.6424 -1.9783 -0.0343
 9369TIP3    H252303   6.876   2.302   5.667  0.5154 -0.2345 -0.8988
 9370TIP3   OH252304   0.231   1.382   4.390 -0.5967 -0.3176 -0.0132
 9370TIP3    H152305   0.222   1.421   4.303 -0.0326 -0.4758 -0.1466
 9370TIP3    H252306   0.212   1.290   4.377  0.2815 -0.4964 -0.1363
 9371TIP3   OH252307   2.441   2.992   4.103 -0.6528  0.2397 -0.9667
 9371TIP3    H152308   2.389   3.070   4.126 -0.4716  0.4521 -1.2594
 9371TIP3    H252309   2.409   2.968   4.016  0.4876  1.0281 -1.6238
 9372TIP3   OH252310   6.597   3.571   4.914 -0.1612  0.5652  0.0348
 9372TIP3    H152311   6.574   3.663   4.909 -0.9713  0.3189 -1.0468
 9372TIP3    H252312   6.584   3.537   4.825 -0.4645 -0.7173  0.5381
 9373TIP3   OH252313   4.883   4.448   3.718  0.0135 -0.0422 -0.0244
 9373TIP3    H152314   4.822   4.505   3.764  0.7859 -0.5318  1.6685
 9373TIP3    H252315   4.859   4.359   3.745  0.7831 -0.3087 -0.1768
 9374TIP3   OH252316   1.910   0.257   4.167 -0.0452 -0.2213  0.0310
 9374TIP3    H152317   1.884   0.211   4.088 -2.5787  0.5004  0.3537
 9374TIP3    H252318   1.952   0.190   4.222  3.1100 -0.4300 -2.3866
 9375TIP3   OH252319   5.091   4.326   4.150  0.0393  0.0261  0.3023
 9375TIP3    H152320   5.080   4.234   4.171  0.8061 -0.3444 -0.8597
 9375TIP3    H252321   5.166   4.329   4.091  0.1291  1.4129  0.4436
 9376TIP3   OH252322   3.305   5.416   5.644  0.1162  0.4852  0.3204
 9376TIP3    H152323   3.389   5.454   5.621  0.6429  0.4251  2.0233
 9376TIP3    H252324   3.299   5.426   5.739 -0.1339 -2.7850  0.7679
 9377TIP3   OH252325   6.215   2.751   4.228  0.4848 -0.2039  0.2629
 9377TIP3    H152326   6.134   2.712   4.261  0.9422 -0.7329  0.7800
 9377TIP3    H252327   6.233   2.823   4.288  1.7144 -1.6196  1.6946
 9378TIP3   OH252328   6.349   4.521   3.799  0.0712 -0.2456  0.5117
 9378TIP3    H152329   6.261   4.495   3.771  0.5724 -1.2884 -0.1635
 9378TIP3    H252330   6.390   4.440   3.828  0.6852  0.2981  1.2179
 9379TIP3   OH252331   6.210   6.821   4.817 -0.0641  0.0387  0.1108
 9379TIP3    H152332   6.281   6.883   4.799  0.3952 -0.4972  0.0379
 9379TIP3    H252333   6.197   6.826   4.912 -1.7258  2.0477 -0.1581
 9380TIP3   OH252334   5.791   2.675   4.681  0.1508 -0.4646 -0.1887
 9380TIP3    H152335   5.870   2.727   4.696  0.0294 -0.4441  0.3990
 9380TIP3    H252336   5.822   2.598   4.632  0.4209 -0.1245 -0.5590
 9381TIP3   OH252337   3.930   0.696   5.683 -0.3599  0.6138  0.7268
 9381TIP3    H152338   3.997   0.631   5.706 -0.4670  0.2242 -0.0549
 9381TIP3    H252339   3.867   0.691   5.755 -0.6115 -0.4842  0.4408
 9382TIP3   OH252340   5.562   6.337   6.766  0.0643 -0.5094 -0.5731
 9382TIP3    H152341   5.640   6.323   6.820  0.0730 -0.2814 -0.5267
 9382TIP3    H252342   5.568   6.428   6.738  0.5390 -0.8823 -1.7322
 9383TIP3   OH252343   2.148   1.772   6.779  0.5837 -0.4365 -0.0346
 9383TIP3    H152344   2.161   1.807   6.691 -2.2422  1.0632  0.0299
 9383TIP3    H252345   2.206   1.823   6.834  1.6794 -0.7345 -0.8743
 9384TIP3   OH252346   7.284   0.897   5.901  0.5191  0.0696 -0.9261
 9384TIP3    H152347   7.311   0.831   5.964 -0.1620 -0.3629 -1.0815
 9384TIP3    H252348   7.272   0.977   5.953  2.8172  0.4989 -0.9599
 9385TIP3   OH252349   0.650   2.414   4.510 -0.1586  0.1292  0.1049
 9385TIP3    H152350   0.635   2.388   4.420 -0.6369 -1.5002  0.6289
 9385TIP3    H252351   0.664   2.332   4.557  1.0377  0.9932  1.3551
 9386TIP3   OH252352   5.614   4.333   4.205 -0.0678  0.3344  0.4956
 9386TIP3    H152353   5.617   4.317   4.299  1.7951  0.8056  0.5576
 9386TIP3    H252354   5.667   4.263   4.166 -0.0314  0.6797 -0.1017
 9387TIP3   OH252355   7.396   6.861   3.877 -0.1245  0.2269 -0.5880
 9387TIP3    H152356   7.388   6.781   3.826  0.1643 -0.3661  0.2875
 9387TIP3    H252357   7.482   6.896   3.854  0.6175 -0.7939  0.5430
 9388TIP3   OH252358   5.125   7.368   4.847  0.2365 -0.3697 -0.1282
 9388TIP3    H152359   5.176   7.360   4.927  0.6797  0.5616 -0.3166
 9388TIP3    H252360   5.041   7.327   4.868 -0.1517  1.0573  1.2637
 9389TIP3   OH252361   6.642   0.488   5.265  0.1466  0.3215 -0.2787
 9389TIP3    H152362   6.682   0.401   5.269 -2.5625 -1.0151  0.2070
 9389TIP3    H252363   6.645   0.520   5.355 -0.8825 -0.3021 -0.0099
 9390TIP3   OH252364   3.018   0.433   5.706 -0.2715  0.6612 -0.1879
 9390TIP3    H152365   3.062   0.514   5.681 -0.7431  1.1786  0.6416
 9390TIP3    H252366   2.951   0.459   5.769 -2.5533  0.0456 -2.2126
 9391TIP3   OH252367   6.686   2.360   4.590 -0.6808 -0.0245 -0.0196
 9391TIP3    H152368   6.747   2.330   4.657  0.5655 -0.1356 -1.1597
 9391TIP3    H252369   6.681   2.287   4.528 -0.2777  0.7951 -1.0418
 9392TIP3   OH252370   1.608   7.543   4.609 -0.3848 -0.4440  0.6958
 9392TIP3    H152371   1.694   7.546   4.568 -1.0108  0.7117 -0.6055
 9392TIP3    H252372   1.566   7.465   4.572 -0.1552 -0.6367  0.8337
 9393TIP3   OH252373   3.093   5.810   5.167  0.5227  0.2615  0.1447
 9393TIP3    H152374   3.072   5.895   5.127  0.3259 -0.8800 -2.3517
 9393TIP3    H252375   3.039   5.747   5.120  0.7790 -1.3265  1.8400
 9394TIP3   OH252376   5.548   1.973   5.804  0.1783 -0.3113 -0.2897
 9394TIP3    H152377   5.563   1.926   5.722 -0.4565 -0.1984 -0.4755
 9394TIP3    H252378   5.575   1.911   5.872  0.4118 -0.5242 -0.5713
 9395TIP3   OH252379   3.338   7.508   6.465 -0.2582  0.4351 -0.0758
 9395TIP3    H152380   3.372   7.448   6.532  0.5973  0.9764 -0.0031
 9395TIP3    H252381   3.350   7.461   6.383 -0.4161  0.1473  0.0654
 9396TIP3   OH252382   3.944   3.853   4.960  0.2248 -0.1234 -0.2118
 9396TIP3    H152383   3.928   3.867   4.867  1.6192  0.2241 -0.4150
 9396TIP3    H252384   3.993   3.930   4.989 -0.2685 -0.1812  0.8357
 9397TIP3   OH252385   1.818   6.992   4.975  0.3244  0.1426 -0.4165
 9397TIP3    H152386   1.775   7.017   4.893 -0.7340 -1.0759 -0.2666
 9397TIP3    H252387   1.873   6.917   4.951 -1.0597 -1.1226  0.2042
 9398TIP3   OH252388   6.272   5.448   5.736  0.2377  0.4561 -0.1764
 9398TIP3    H152389   6.283   5.508   5.662 -0.2899  0.4132 -0.2921
 9398TIP3    H252390   6.360   5.440   5.773  0.4125  0.8761 -0.4890
 9399TIP3   OH252391   6.914   3.936   4.756  0.0514  0.3527  0.1121
 9399TIP3    H152392   6.996   3.918   4.801 -0.5759 -0.0073  1.1362
 9399TIP3    H252393   6.914   3.877   4.681  0.0065 -0.8005  1.0040
 9400TIP3   OH252394   2.301   4.783   5.028  0.0248 -0.0151  0.1737
 9400TIP3    H152395   2.359   4.857   5.042 -0.1997  0.1591  0.1876
 9400TIP3    H252396   2.290   4.745   5.116  0.9119 -0.6535  0.0261
 9401TIP3   OH252397   0.135   7.275   4.467 -0.0917  0.2051 -0.0696
 9401TIP3    H152398   0.042   7.256   4.450  0.1220 -1.2834  0.2523
 9401TIP3    H252399   0.180   7.193   4.446  1.1130  0.7948  0.1312
 9402TIP3   OH252400   2.721   2.364   3.666 -0.2390 -0.1051 -0.0520
 9402TIP3    H152401   2.815   2.349   3.672 -0.4594 -2.0585 -0.6149
 9402TIP3    H252402   2.696   2.323   3.582 -1.4211  1.3552 -0.4514
 9403TIP3   OH252403   1.298   2.067   4.422  0.3686  0.1417 -0.0191
 9403TIP3    H152404   1.265   2.058   4.511 -0.9267  1.2233 -0.3542
 9403TIP3    H252405   1.238   2.016   4.368  0.1561  0.8171 -0.4467
 9404TIP3   OH252406   2.730   6.093   6.250  0.1684 -0.0460 -0.0659
 9404TIP3    H152407   2.774   6.176   6.230 -0.3389  0.3123  0.2442
 9404TIP3    H252408   2.689   6.109   6.336  1.5828 -1.2438  0.8692
 9405TIP3   OH252409   0.057   2.522   4.589  0.1205  0.1963  0.5640
 9405TIP3    H152410  -0.024   2.532   4.539  0.5295  1.7507  0.1464
 9405TIP3    H252411   0.114   2.591   4.555  1.4836 -0.6265  1.1277
 9406TIP3   OH252412   6.825   5.158   5.486 -0.4377 -0.3528  0.2760
 9406TIP3    H152413   6.907   5.109   5.491 -1.2526 -1.8783 -0.4903
 9406TIP3    H252414   6.847   5.246   5.515  1.3174 -0.9096  0.7173
 9407TIP3   OH252415   4.797   6.567   4.496 -0.1280  0.1929  0.3167
 9407TIP3    H152416   4.858   6.506   4.455 -1.4289 -0.5172 -0.6183
 9407TIP3    H252417   4.835   6.653   4.479  1.1632 -0.2712  0.7053
 9408TIP3   OH252418   6.150   1.130   4.563 -0.2583  0.4677  0.0676
 9408TIP3    H152419   6.141   1.037   4.543  1.0786  0.2968  0.1913
 9408TIP3    H252420   6.172   1.170   4.479 -2.0187  0.8721 -0.2301
 9409TIP3   OH252421   6.272   6.352   3.897 -0.4269  0.0027 -0.1278
 9409TIP3    H152422   6.288   6.446   3.890 -0.6679  0.0184 -0.4993
 9409TIP3    H252423   6.293   6.330   3.988 -1.9503  0.7064  0.4225
 9410TIP3   OH252424   5.088   2.287   4.027 -0.2124 -0.0563 -1.1290
 9410TIP3    H152425   5.050   2.372   4.045 -1.6941 -0.8110 -0.4727
 9410TIP3    H252426   5.013   2.233   4.000  0.4194 -1.5488 -0.0250
 9411TIP3   OH252427   7.542   3.069   4.845  0.3021  0.2764  0.1410
 9411TIP3    H152428   7.473   3.099   4.905 -1.0140 -0.0542 -1.1579
 9411TIP3    H252429   7.598   3.146   4.833 -0.4386  0.8709  0.3983
 9412TIP3   OH252430   7.485   2.001   4.736 -0.1093 -0.2081 -0.0848
 9412TIP3    H152431   7.402   2.010   4.782 -0.9297 -1.8490 -1.1510
 9412TIP3    H252432   7.546   2.057   4.784 -1.1721 -1.0128  2.3073
 9413TIP3   OH252433   5.500   3.204   4.476  0.4159  0.0535  0.3077
 9413TIP3    H152434   5.429   3.144   4.495  1.1297 -0.4792  1.4231
 9413TIP3    H252435   5.457   3.286   4.453 -0.6036  0.2615  2.6393
 9414TIP3   OH252436   0.304   4.254   5.901  0.0535 -0.1722  0.3970
 9414TIP3    H152437   0.316   4.271   5.807 -0.0253 -0.4902  0.3272
 9414TIP3    H252438   0.391   4.265   5.939 -0.1386  1.1214  0.4786
 9415TIP3   OH252439   3.228   3.539   4.503  0.2248  0.6002 -0.2683
 9415TIP3    H152440   3.223   3.629   4.470  0.2137  0.5054 -0.5227
 9415TIP3    H252441   3.272   3.490   4.434 -0.9241  0.1327 -0.6805
 9416TIP3   OH252442   5.904   4.400   4.599  0.6328 -0.2178  0.8712
 9416TIP3    H152443   5.905   4.494   4.617 -0.2895 -0.3352  1.6428
 9416TIP3    H252444   5.926   4.359   4.682 -0.7712 -0.7094  1.0394
 9417TIP3   OH252445   3.632   4.016   3.628 -0.4621  0.4267 -0.1301
 9417TIP3    H152446   3.648   4.063   3.710  0.7103  0.4403 -0.3438
 9417TIP3    H252447   3.640   4.083   3.560  2.2322 -0.1684 -0.5225
 9418TIP3   OH252448   4.401   3.975   4.171 -0.2551 -0.1296  0.8765
 9418TIP3    H152449   4.338   4.033   4.128  1.4292  1.1053 -0.0349
 9418TIP3    H252450   4.478   4.030   4.187  1.8901 -2.2973 -1.0921
 9419TIP3   OH252451   4.423   1.189   6.054  0.0575  0.3519 -0.3166
 9419TIP3    H152452   4.395   1.267   6.006  2.6166  2.0279  0.7141
 9419TIP3    H252453   4.467   1.134   5.989 -1.1330  0.0570 -0.9010
 9420TIP3   OH252454   5.125   0.847   4.374 -0.1147 -0.1638  0.0624
 9420TIP3    H152455   5.110   0.806   4.288  1.2278  1.5619 -1.0763
 9420TIP3    H252456   5.074   0.928   4.371 -0.4175 -0.3087  1.0952
 9421TIP3   OH252457   4.476   5.183   6.656  0.6454  0.3443  0.1412
 9421TIP3    H152458   4.532   5.253   6.689  1.0514  0.1188 -0.0632
 9421TIP3    H252459   4.450   5.212   6.568 -0.3124  0.8742  0.5888
 9422TIP3   OH252460   4.109   6.783   4.970  0.5311  0.2736 -0.2039
 9422TIP3    H152461   4.090   6.757   5.060 -0.8190  0.9059 -0.2832
 9422TIP3    H252462   4.182   6.727   4.944  0.3438 -0.5579  0.9779
 9423TIP3   OH252463   2.596   3.423   3.949  0.8297 -0.3851 -0.3616
 9423TIP3    H152464   2.598   3.512   3.985  0.6591 -0.4601 -0.1612
 9423TIP3    H252465   2.611   3.366   4.025  0.1045 -0.5581 -0.3390
 9424TIP3   OH252466   6.853   4.478   3.799 -0.0941 -0.1237  0.4602
 9424TIP3    H152467   6.809   4.538   3.860  0.3185  0.9151 -0.2337
 9424TIP3    H252468   6.800   4.483   3.719  0.3676 -0.1033  0.1547
 9425TIP3   OH252469   7.670   3.808   5.605  0.0008 -0.3438  0.3253
 9425TIP3    H152470   7.632   3.754   5.536 -0.6473  1.0740 -0.4584
 9425TIP3    H252471   7.764   3.808   5.587 -0.3178  1.4158 -1.6433
 9426TIP3   OH252472   6.394   1.540   6.399  0.2722 -0.2611 -0.3032
 9426TIP3    H152473   6.433   1.605   6.458 -0.5986  0.3608 -0.3897
 9426TIP3    H252474   6.464   1.477   6.383  0.9329  0.2958  0.3196
 9427TIP3   OH252475   4.315   1.061   5.673 -0.4540  0.0676  0.0653
 9427TIP3    H152476   4.316   1.050   5.578  0.0838  1.1201 -0.0666
 9427TIP3    H252477   4.225   1.085   5.694 -0.4880  0.1990 -0.2287
 9428TIP3   OH252478   6.427   3.399   5.756 -0.3608  0.5973 -0.2594
 9428TIP3    H152479   6.480   3.336   5.805 -1.1831  0.7117  0.8351
 9428TIP3    H252480   6.483   3.428   5.684 -0.0292 -1.5335 -0.9179
 9429TIP3   OH252481   3.982   3.231   5.011  0.0517 -0.1649  0.4525
 9429TIP3    H152482   4.060   3.274   4.976 -0.2318  0.4463  0.5592
 9429TIP3    H252483   4.012   3.145   5.038  0.7186  0.1171  0.6180
 9430TIP3   OH252484   1.695   7.365   5.054 -0.3474 -0.0229 -0.3010
 9430TIP3    H152485   1.748   7.295   5.093 -0.8204 -1.0291 -1.3898
 9430TIP3    H252486   1.717   7.363   4.961 -0.0916  1.5573 -0.2990
 9431TIP3   OH252487   0.488   4.979   5.789  0.3945  0.2465 -0.6507
 9431TIP3    H152488   0.453   5.035   5.720  1.3734  1.4616 -0.2040
 9431TIP3    H252489   0.427   4.906   5.795 -0.3249  0.7140 -2.0027
 9432TIP3   OH252490   2.446   3.349   6.432  0.2982 -0.3201 -0.1455
 9432TIP3    H152491   2.355   3.327   6.410  0.4640  1.6548 -3.3668
 9432TIP3    H252492   2.495   3.270   6.412 -0.5349 -1.0818  0.6842
 9433TIP3   OH252493   2.996   4.376   4.065  0.3150  0.0087  0.6468
 9433TIP3    H152494   2.931   4.445   4.049 -0.9697 -0.9506  1.5511
 9433TIP3    H252495   3.039   4.363   3.980  0.2540  1.5724  0.3472
 9434TIP3   OH252496   1.857   3.124   4.693  0.0224  0.6755  0.4749
 9434TIP3    H152497   1.848   3.208   4.648  1.5020  0.8254  0.3961
 9434TIP3    H252498   1.883   3.148   4.782  0.6605  0.3134  0.3923
 9435TIP3   OH252499   4.720   7.100   5.220 -0.5529  0.0659  0.6145
 9435TIP3    H152500   4.734   7.187   5.183  0.0373 -0.6077 -0.8214
 9435TIP3    H252501   4.807   7.071   5.247 -0.8077  0.0637  1.4833
 9436TIP3   OH252502   2.706   3.736   3.768 -0.0047  0.2482  0.0543
 9436TIP3    H152503   2.643   3.664   3.774  1.4188 -1.0824 -0.4220
 9436TIP3    H252504   2.660   3.812   3.805 -1.5059 -0.9240  0.6595
 9437TIP3   OH252505   3.001   6.861   5.498  0.2139  0.0983  0.1173
 9437TIP3    H152506   3.091   6.892   5.508 -0.1150  0.4895  2.4213
 9437TIP3    H252507   3.000   6.775   5.541 -0.8746  0.8845  1.7572
 9438TIP3   OH252508   3.251   0.295   4.156 -0.1894 -0.3000 -0.7489
 9438TIP3    H152509   3.219   0.208   4.177 -1.7875  0.3130 -0.5250
 9438TIP3    H252510   3.286   0.329   4.238  0.0892 -0.5846 -0.7490
 9439TIP3   OH252511   4.722   2.613   4.847  0.2920  0.0188 -0.0477
 9439TIP3    H152512   4.657   2.561   4.894 -0.0279  0.5054  0.0573
 9439TIP3    H252513   4.802   2.603   4.898  0.5903 -1.4381 -0.7510
 9440TIP3   OH252514   1.646   7.023   6.294  0.4681  0.3841 -0.1445
 9440TIP3    H152515   1.730   6.985   6.270  0.4841  0.6527 -0.5213
 9440TIP3    H252516   1.588   6.947   6.307  0.7486  0.2030  0.0516
 9441TIP3   OH252517   6.938   2.959   4.485 -0.8916 -0.3655  0.2111
 9441TIP3    H152518   6.889   2.879   4.501 -1.3481  0.2288  2.1038
 9441TIP3    H252519   6.999   2.964   4.559 -2.9071  2.4786  1.8864
 9442TIP3   OH252520   3.230   4.093   6.381  0.4171 -0.2755 -0.6375
 9442TIP3    H152521   3.212   4.186   6.370  1.5501 -0.0941 -1.2032
 9442TIP3    H252522   3.303   4.089   6.443 -1.9126 -1.0103  2.2448
 9443TIP3   OH252523   5.238   7.487   5.256 -0.3843  0.5611  0.0725
 9443TIP3    H152524   5.158   7.537   5.275 -1.4496 -0.5022 -1.3341
 9443TIP3    H252525   5.262   7.447   5.339 -1.3102  0.9296  0.5355
 9444TIP3   OH252526   4.215   7.288   4.838 -0.0985 -0.3078  0.1443
 9444TIP3    H152527   4.185   7.307   4.749 -1.8521 -0.0869  0.7567
 9444TIP3    H252528   4.194   7.195   4.851  0.7436 -0.5109  0.1239
 9445TIP3   OH252529   1.854   4.559   5.549  0.0150 -0.0426 -0.6983
 9445TIP3    H152530   1.766   4.570   5.514 -0.3190  0.3181  0.2168
 9445TIP3    H252531   1.912   4.587   5.478 -0.6974  3.1732 -0.1656
 9446TIP3   OH252532   0.114   6.737   6.606  0.2918 -0.0373 -0.0350
 9446TIP3    H152533   0.053   6.699   6.543  2.6395 -2.9224 -0.7629
 9446TIP3    H252534   0.110   6.678   6.681  2.3553 -0.5136 -0.2368
 9447TIP3   OH252535   0.246   2.218   4.135 -0.7046  0.2873  0.3606
 9447TIP3    H152536   0.295   2.223   4.218 -0.8536  1.0997  0.4092
 9447TIP3    H252537   0.304   2.259   4.071  0.5790 -2.6954 -0.5411
 9448TIP3   OH252538   6.325   5.672   3.832  0.4114 -0.2784  0.0972
 9448TIP3    H152539   6.297   5.764   3.832 -0.1807 -0.4412 -1.1203
 9448TIP3    H252540   6.259   5.627   3.779  1.2226 -1.2414 -0.1191
 9449TIP3   OH252541   1.153   1.742   5.709  0.1927  0.2154 -0.2630
 9449TIP3    H152542   1.174   1.765   5.618  1.1212 -2.3480 -0.7761
 9449TIP3    H252543   1.059   1.728   5.709  0.3654 -1.1556 -1.2266
 9450TIP3   OH252544   6.909   2.746   6.248 -0.0608 -0.1897 -0.1620
 9450TIP3    H152545   6.920   2.839   6.268  1.1412 -0.3348 -0.1012
 9450TIP3    H252546   6.961   2.701   6.314 -1.7541 -0.9909  0.6903
 9451TIP3   OH252547   1.825   4.149   5.920  0.2721  0.1081 -0.6259
 9451TIP3    H152548   1.838   4.226   5.864 -1.1107 -0.2058 -1.4336
 9451TIP3    H252549   1.762   4.095   5.872  1.7396 -1.9187 -0.4542
 9452TIP3   OH252550   3.914   2.268   5.715 -0.2994 -0.0766 -0.0477
 9452TIP3    H152551   3.953   2.190   5.756 -0.1051 -0.1976 -0.4591
 9452TIP3    H252552   3.829   2.277   5.757 -0.0038 -0.0585  0.5587
 9453TIP3   OH252553   3.319   1.471   6.289 -0.2573  0.9846 -0.3346
 9453TIP3    H152554   3.343   1.508   6.374 -0.1264  0.0360  0.0596
 9453TIP3    H252555   3.400   1.433   6.255 -0.9716 -1.8189  0.7892
 9454TIP3   OH252556   2.679   7.306   3.587  0.4129 -0.7892 -0.3054
 9454TIP3    H152557   2.592   7.289   3.549 -0.0489  0.1701  0.2834
 9454TIP3    H252558   2.728   7.349   3.517  0.4411 -1.3915 -0.6614
 9455TIP3   OH252559   6.202   7.348   5.403  0.2910  0.2628 -0.1670
 9455TIP3    H152560   6.135   7.317   5.343  1.3091  0.0068 -1.1942
 9455TIP3    H252561   6.161   7.423   5.448 -1.4096 -1.1717  0.7855
 9456TIP3   OH252562   1.320   6.837   3.868  1.3156  0.1440 -0.8994
 9456TIP3    H152563   1.389   6.902   3.881  0.8927  0.4917 -0.3354
 9456TIP3    H252564   1.365   6.762   3.830  2.1797  0.0089  0.3295
 9457TIP3   OH252565   6.890   4.780   4.061  0.2757  0.0638  0.4495
 9457TIP3    H152566   6.860   4.772   4.152 -0.8871  0.0224  0.0865
 9457TIP3    H252567   6.975   4.736   4.059  0.3555  0.1576  1.5387
 9458TIP3   OH252568   3.602   5.507   4.925  0.2738  0.2920 -0.0978
 9458TIP3    H152569   3.531   5.457   4.966 -0.2482  0.7184 -0.4648
 9458TIP3    H252570   3.592   5.489   4.832 -0.1743  1.3885 -0.2764
 9459TIP3   OH252571   2.178   7.610   5.525  0.0200 -0.5496 -0.2604
 9459TIP3    H152572   2.181   7.646   5.437 -0.7869 -0.9071 -0.4487
 9459TIP3    H252573   2.106   7.657   5.568  1.9556  1.3994  1.0456
 9460TIP3   OH252574   0.634   0.364   5.592 -0.2536 -0.0050 -0.1454
 9460TIP3    H152575   0.708   0.422   5.613 -1.0292  0.6069  1.0220
 9460TIP3    H252576   0.575   0.420   5.542 -0.4596 -0.1495 -0.0609
 9461TIP3   OH252577   3.638   7.595   3.971 -0.1624  0.4475 -0.2245
 9461TIP3    H152578   3.579   7.543   4.026  0.6254  0.8628  1.0575
 9461TIP3    H252579   3.592   7.678   3.958  0.6689  1.3477  2.0022
 9462TIP3   OH252580   3.299   2.735   4.156  0.1263 -0.2404 -0.5863
 9462TIP3    H152581   3.393   2.726   4.143  0.4045 -1.0978  1.6046
 9462TIP3    H252582   3.262   2.657   4.114  0.4226 -0.1238 -1.0752
 9463TIP3   OH252583   7.668   4.231   5.553  0.5519 -0.0966  1.2917
 9463TIP3    H152584   7.658   4.311   5.501 -1.2546 -1.6107 -0.8981
 9463TIP3    H252585   7.581   4.190   5.550  1.8192 -2.9677  0.8718
 9464TIP3   OH252586   1.155   1.476   6.467 -0.0363 -0.1014 -0.0016
 9464TIP3    H152587   1.064   1.448   6.476  0.6064 -1.8979  1.5386
 9464TIP3    H252588   1.152   1.550   6.405 -2.3217 -1.1064 -1.1863
 9465TIP3   OH252589   6.671   5.824   5.016 -0.1207 -0.4623  0.0820
 9465TIP3    H152590   6.655   5.848   5.108  0.5481 -1.2603  0.4242
 9465TIP3    H252591   6.757   5.781   5.017 -0.4818 -1.2460 -0.7677
 9466TIP3   OH252592   2.390   2.657   4.682  0.1481  0.3366 -0.7076
 9466TIP3    H152593   2.346   2.742   4.680  1.1623  0.8630 -1.3355
 9466TIP3    H252594   2.446   2.661   4.760 -1.2864 -0.5411  0.4033
 9467TIP3   OH252595   6.158   3.183   4.151  0.4050  0.3758 -0.4031
 9467TIP3    H152596   6.101   3.131   4.209 -1.4232  1.6158 -1.0036
 9467TIP3    H252597   6.245   3.173   4.189 -0.1455 -1.7138  0.4900
 9468TIP3   OH252598   2.932   0.971   4.573 -0.2603 -0.2557 -0.4032
 9468TIP3    H152599   2.969   0.986   4.660 -0.2901 -1.5659 -0.1456
 9468TIP3    H252600   2.954   1.050   4.524 -0.3750  0.5655  0.8257
 9469TIP3   OH252601   7.578   6.888   4.789 -0.2503 -0.1760 -0.0891
 9469TIP3    H152602   7.608   6.837   4.714  0.7546 -0.9065  0.7633
 9469TIP3    H252603   7.509   6.944   4.755 -1.0577 -1.7571 -1.1847
 9470TIP3   OH252604   0.969   1.905   6.199 -0.0904 -0.7949 -0.3809
 9470TIP3    H152605   0.922   1.960   6.137  1.1886  0.9437  0.1243
 9470TIP3    H252606   0.900   1.856   6.245 -1.3333  0.8212 -0.4495
 9471TIP3   OH252607   1.620   0.837   4.004 -0.1313  0.1165 -0.1710
 9471TIP3    H152608   1.578   0.921   3.987 -0.2210  0.1539  0.2108
 9471TIP3    H252609   1.574   0.804   4.082 -0.1779 -0.3374 -0.3885
 9472TIP3   OH252610   2.992   5.699   6.759 -0.1553  0.1975 -0.2451
 9472TIP3    H152611   2.952   5.622   6.720 -0.1266  0.6960 -1.2697
 9472TIP3    H252612   2.921   5.762   6.768  0.1374  0.6425 -0.9437
 9473TIP3   OH252613   5.432   6.159   4.439  0.0841 -0.1156  0.1808
 9473TIP3    H152614   5.524   6.174   4.460  0.2737 -0.3931 -0.4234
 9473TIP3    H252615   5.384   6.195   4.513  0.6469  0.8911  0.0728
 9474TIP3   OH252616   5.509   4.347   6.053 -0.7835  0.1066 -0.4463
 9474TIP3    H152617   5.509   4.288   6.128 -1.7735  0.2048 -0.3639
 9474TIP3    H252618   5.594   4.332   6.011  0.3116  0.9474  1.3770
 9475TIP3   OH252619   2.971   6.877   4.287 -0.6704 -0.6422 -0.1594
 9475TIP3    H152620   3.043   6.834   4.333 -0.7285 -0.1786  0.3771
 9475TIP3    H252621   2.953   6.956   4.339 -0.9487 -0.2740 -0.7974
 9476TIP3   OH252622   2.321   0.687   6.185  0.0220  0.3578  0.0801
 9476TIP3    H152623   2.320   0.773   6.227 -0.1609 -0.1219  1.0953
 9476TIP3    H252624   2.371   0.700   6.105 -0.9448  1.6614 -0.3450
 9477TIP3   OH252625   1.535   3.208   4.195  0.1356  0.1966 -0.7126
 9477TIP3    H152626   1.557   3.233   4.284  1.1076  0.0650 -0.9008
 9477TIP3    H252627   1.460   3.263   4.171  0.3637  0.7832 -0.0925
 9478TIP3   OH252628   3.874   6.201   5.595  0.0615 -0.4374 -0.3522
 9478TIP3    H152629   3.962   6.202   5.634  0.3214 -1.5039 -0.8618
 9478TIP3    H252630   3.848   6.293   5.594 -0.1444 -0.3589  2.6590
 9479TIP3   OH252631   2.006   7.461   5.190  0.0930  0.2600 -0.4900
 9479TIP3    H152632   2.034   7.395   5.126  0.7201  0.0627 -0.0207
 9479TIP3    H252633   1.926   7.425   5.228  0.8021 -0.5781  0.2627
 9480TIP3   OH252634   3.145   6.816   3.437 -0.6837  0.5360 -0.7223
 9480TIP3    H152635   3.063   6.863   3.442 -1.5170 -0.9047 -0.2731
 9480TIP3    H252636   3.142   6.772   3.352 -1.0127 -0.5998 -0.1402
 9481TIP3   OH252637   7.249   5.363   4.666  0.5197  0.2497 -0.1001
 9481TIP3    H152638   7.317   5.328   4.608 -1.6722  1.0657 -3.4590
 9481TIP3    H252639   7.218   5.286   4.714  1.1957 -0.9022 -1.4055
 9482TIP3   OH252640   2.212   1.890   6.147 -0.0035 -0.1493  0.8091
 9482TIP3    H152641   2.135   1.839   6.173 -0.7535  0.7244  0.3398
 9482TIP3    H252642   2.251   1.918   6.230 -1.1835  0.8470  1.0571
 9483TIP3   OH252643   6.553   0.388   3.828  0.5148 -0.2331  0.4222
 9483TIP3    H152644   6.628   0.433   3.789  0.4775 -0.3937  0.1651
 9483TIP3    H252645   6.517   0.452   3.890  2.0008 -0.8341  1.9879
 9484TIP3   OH252646   3.833   1.372   4.888 -0.0025 -0.0502  0.0956
 9484TIP3    H152647   3.777   1.442   4.920  0.8550  0.5490  0.3328
 9484TIP3    H252648   3.893   1.354   4.960  2.1497  1.5170 -1.1731
 9485TIP3   OH252649   6.693   2.839   5.664  0.2312 -0.4066  0.1107
 9485TIP3    H152650   6.741   2.771   5.617 -1.1569 -0.0385 -2.0087
 9485TIP3    H252651   6.621   2.793   5.706  1.0484 -0.6308  1.3151
 9486TIP3   OH252652   5.179   5.721   4.533 -0.1821  0.3074 -0.0788
 9486TIP3    H152653   5.130   5.677   4.464 -1.1448  1.4226 -0.1341
 9486TIP3    H252654   5.158   5.814   4.523  1.3719  0.7439  0.3651
 9487TIP3   OH252655   0.211   5.906   4.959  0.2111 -0.6518 -0.1442
 9487TIP3    H152656   0.267   5.897   4.882  0.1757 -1.8518 -0.0461
 9487TIP3    H252657   0.245   5.983   5.004 -0.7439  1.0328 -2.1451
 9488TIP3   OH252658   1.945   5.348   5.453  0.4039  0.1786  0.2384
 9488TIP3    H152659   1.934   5.300   5.371 -1.7162 -0.2854  0.7397
 9488TIP3    H252660   1.944   5.281   5.521 -2.3507  0.8250  0.9344
 9489TIP3   OH252661   3.209   0.621   5.624  0.0688 -0.2774 -0.4458
 9489TIP3    H152662   3.192   0.680   5.550  0.6128  2.3507  1.3669
 9489TIP3    H252663   3.297   0.587   5.607 -0.7326 -1.6450 -2.1472
 9490TIP3   OH252664   6.225   0.448   6.222  0.2036 -0.2884  0.1312
 9490TIP3    H152665   6.183   0.527   6.256 -2.2100 -0.8402 -1.2828
 9490TIP3    H252666   6.228   0.388   6.297 -1.4200 -0.1265  0.3729
 9491TIP3   OH252667   2.086   4.526   4.823  0.4266  0.2341  0.1231
 9491TIP3    H152668   2.041   4.449   4.787  0.3817  0.1655  0.3250
 9491TIP3    H252669   2.045   4.540   4.909  1.4266 -0.3847  0.7209
 9492TIP3   OH252670   4.623   6.452   4.912  0.7451  0.0225  0.1504
 9492TIP3    H152671   4.649   6.510   4.841  1.0903 -1.5290 -1.0388
 9492TIP3    H252672   4.704   6.433   4.959  0.9068 -0.7142 -0.4121
 9493TIP3   OH252673   1.362   3.380   5.684 -0.0305  0.0089  0.3713
 9493TIP3    H152674   1.327   3.291   5.695 -2.0900  0.7796  0.5143
 9493TIP3    H252675   1.447   3.367   5.642 -0.6352 -2.0023 -0.3823
 9494TIP3   OH252676   7.401   7.646   5.047  0.2594 -0.1687 -0.2718
 9494TIP3    H152677   7.363   7.578   5.102 -0.8624  0.9933  0.4585
 9494TIP3    H252678   7.489   7.660   5.083  0.4919 -1.1896 -0.4217
 9495TIP3   OH252679   3.030   3.897   5.190  0.2087  0.0840 -0.4213
 9495TIP3    H152680   3.026   3.841   5.112  1.7577  1.1761 -1.3575
 9495TIP3    H252681   3.119   3.885   5.223  0.0220  0.7313  0.3444
 9496TIP3   OH252682   3.918   3.423   4.605  0.3915  0.5233  0.4261
 9496TIP3    H152683   3.866   3.389   4.677 -2.2937 -1.8599 -2.3306
 9496TIP3    H252684   4.005   3.384   4.617 -0.8616 -2.3557  0.8137
 9497TIP3   OH252685   1.682   4.275   6.586  0.0975  0.8055 -0.0805
 9497TIP3    H152686   1.593   4.309   6.593 -0.6037 -0.8750 -0.3312
 9497TIP3    H252687   1.689   4.211   6.657  1.6584  1.9906  0.9026
 9498TIP3   OH252688   1.220   1.258   4.842  0.0498  0.3662 -0.5345
 9498TIP3    H152689   1.234   1.164   4.851 -0.4515  0.4100  0.9925
 9498TIP3    H252690   1.291   1.298   4.892 -1.6550  0.6893  1.8006
 9499TIP3   OH252691   5.065   1.930   4.904  0.5303 -0.0997  0.0085
 9499TIP3    H152692   5.126   1.932   4.830  0.6080 -0.0856  0.0729
 9499TIP3    H252693   4.979   1.936   4.864  0.6136  1.0840 -0.0170
 9500TIP3   OH252694   5.726   5.618   5.833  0.3615 -0.3257  0.1471
 9500TIP3    H152695   5.774   5.699   5.812 -1.1758  0.6097  0.1303
 9500TIP3    H252696   5.794   5.558   5.862  1.9870 -0.0517 -2.6722
 9501TIP3   OH252697   1.288   1.761   4.218  0.2275 -0.0703  0.3664
 9501TIP3    H152698   1.258   1.751   4.127  0.1563 -3.0225  0.6263
 9501TIP3    H252699   1.213   1.799   4.263 -0.3065 -0.0324 -0.5196
 9502TIP3   OH252700   0.325   3.518   4.727  0.2005 -0.2509 -0.0337
 9502TIP3    H152701   0.263   3.516   4.654 -0.9769 -2.5966  0.9426
 9502TIP3    H252702   0.311   3.604   4.767  1.4220  1.4597 -2.9003
 9503TIP3   OH252703   2.608   0.794   5.751  0.5341  0.2953  0.1720
 9503TIP3    H152704   2.649   0.746   5.680 -0.2449 -1.0258  0.5824
 9503TIP3    H252705   2.529   0.832   5.712  0.6085  0.3700  0.0950
 9504TIP3   OH252706   7.463   4.011   5.488  0.5506 -0.5896  0.5254
 9504TIP3    H152707   7.517   3.996   5.566  0.4344 -2.4508  0.2960
 9504TIP3    H252708   7.375   3.986   5.515  0.2236  0.2150  0.2218
 9505TIP3   OH252709   6.702   0.755   5.218 -0.2033 -0.0705 -0.9870
 9505TIP3    H152710   6.779   0.781   5.268 -0.5386 -0.6264 -0.1555
 9505TIP3    H252711   6.702   0.659   5.221  0.7470 -0.2282 -3.5770
 9506TIP3   OH252712   3.577   3.787   5.326  0.2295 -0.3420 -0.0018
 9506TIP3    H152713   3.544   3.746   5.246 -0.2974  0.3695 -0.1483
 9506TIP3    H252714   3.521   3.752   5.395  0.0771 -0.2245 -0.0656
 9507TIP3   OH252715   1.528   2.866   6.371 -0.4450  0.1277 -0.0924
 9507TIP3    H152716   1.509   2.952   6.410  0.6802 -0.1820  1.2217
 9507TIP3    H252717   1.444   2.819   6.375 -0.5713  0.4226  1.1662
 9508TIP3   OH252718   2.877   5.091   5.797 -0.2600  0.2146 -0.1765
 9508TIP3    H152719   2.956   5.141   5.818 -0.9565  1.8876 -1.3576
 9508TIP3    H252720   2.910   5.007   5.765  1.0765  1.0902 -1.2099
 9509TIP3   OH252721   4.777   5.317   5.190 -0.3197  0.2654 -0.1003
 9509TIP3    H152722   4.744   5.406   5.197  0.0247  0.4427 -0.6793
 9509TIP3    H252723   4.839   5.320   5.118 -0.8325 -0.5998 -0.5986
 9510TIP3   OH252724   0.098   7.472   3.942 -1.0090  0.1276 -0.2231
 9510TIP3    H152725   0.040   7.510   4.009 -0.7351 -0.1221  0.1596
 9510TIP3    H252726   0.106   7.541   3.876 -0.3239  0.8428  0.5840
 9511TIP3   OH252727   7.495   5.300   5.832 -0.3644 -0.7259  0.3873
 9511TIP3    H152728   7.433   5.363   5.795  2.0367  0.3184 -2.1229
 9511TIP3    H252729   7.478   5.303   5.927 -1.3040  2.6199  0.2222
 9512TIP3   OH252730   7.291   4.225   3.851  0.4700 -0.2989  0.6337
 9512TIP3    H152731   7.354   4.243   3.780  0.3509 -0.4750  0.4819
 9512TIP3    H252732   7.227   4.296   3.844  0.9563  0.2004  1.1464
 9513TIP3   OH252733   2.056   4.620   3.912 -0.6477 -0.4669  0.5209
 9513TIP3    H152734   2.083   4.580   3.994  1.2304 -2.1441 -0.8343
 9513TIP3    H252735   2.130   4.675   3.886 -1.1191 -0.1300 -0.1612
 9514TIP3   OH252736   6.971   0.628   6.131 -0.3930 -0.5363  0.0411
 9514TIP3    H152737   6.974   0.709   6.082  1.7795  0.5963  1.8450
 9514TIP3    H252738   7.039   0.572   6.092 -0.4275 -0.6337  0.1172
 9515TIP3   OH252739   5.035   5.145   5.869  0.5493 -0.0549  0.1156
 9515TIP3    H152740   4.981   5.223   5.860 -2.6540 -2.1632 -0.6774
 9515TIP3    H252741   5.111   5.161   5.814  0.3343  2.7027  0.4927
 9516TIP3   OH252742   4.797   0.279   5.542  0.4024 -0.1835  0.4507
 9516TIP3    H152743   4.726   0.267   5.479  0.2290 -0.9847  0.7943
 9516TIP3    H252744   4.798   0.199   5.594  1.7071 -0.2789  0.3098
 9517TIP3   OH252745   2.567   5.342   5.086  0.0580 -0.7471  0.3286
 9517TIP3    H152746   2.623   5.420   5.094  1.5056 -1.8442  1.5577
 9517TIP3    H252747   2.493   5.359   5.144  0.7566 -0.5777  1.1934
 9518TIP3   OH252748   7.379   3.891   5.721 -0.9783 -0.4210  0.3712
 9518TIP3    H152749   7.469   3.866   5.745 -0.6200  0.0261 -0.4648
 9518TIP3    H252750   7.325   3.818   5.752 -0.1321 -1.5167 -0.6569
 9519TIP3   OH252751   2.734   2.440   5.497  0.4878  0.0862 -0.1664
 9519TIP3    H152752   2.760   2.382   5.568  3.1605  0.7485 -0.4765
 9519TIP3    H252753   2.691   2.514   5.540 -1.0951 -1.1181  0.3966
 9520TIP3   OH252754   0.977   2.392   6.246 -0.5149  0.1451 -0.2846
 9520TIP3    H152755   0.980   2.487   6.250  0.5741  0.2150 -2.0266
 9520TIP3    H252756   1.028   2.363   6.321 -1.3380  0.9034  0.5931
 9521TIP3   OH252757   6.760   6.649   5.317  0.0723 -0.2502  0.4372
 9521TIP3    H152758   6.716   6.669   5.234 -1.2811 -0.5207  1.0652
 9521TIP3    H252759   6.843   6.609   5.291 -0.2216 -0.1010 -0.7850
 9522TIP3   OH252760   5.288   6.317   4.633  0.3275 -0.0706  0.0677
 9522TIP3    H152761   5.298   6.329   4.728 -1.0084 -1.9733  0.5046
 9522TIP3    H252762   5.209   6.264   4.624  1.7454 -2.0068 -1.9527
 9523TIP3   OH252763   0.605   5.603   5.615 -0.0704  0.1514  0.1968
 9523TIP3    H152764   0.685   5.627   5.661  0.1054  0.0221 -0.0410
 9523TIP3    H252765   0.609   5.650   5.532 -0.6484  0.8167  0.5300
 9524TIP3   OH252766   2.732   6.491   6.243  0.1635 -0.6317  0.6425
 9524TIP3    H152767   2.812   6.452   6.209  0.0136 -0.6376  0.2853
 9524TIP3    H252768   2.744   6.493   6.338  1.7853  1.8763  0.4930
 9525TIP3   OH252769   6.823   0.408   6.028 -0.1675  0.6290  0.1771
 9525TIP3    H152770   6.867   0.490   6.048 -0.4088  0.4135  1.6460
 9525TIP3    H252771   6.796   0.373   6.112 -0.3164 -0.8331 -0.4403
 9526TIP3   OH252772   3.062   7.541   3.836 -0.1825  0.3664  0.3851
 9526TIP3    H152773   3.062   7.637   3.830 -1.1811  0.3844  0.4926
 9526TIP3    H252774   2.973   7.515   3.810 -0.5327 -0.3967  2.1807
 9527TIP3   OH252775   1.562   4.690   4.436 -0.1024  0.5544  0.3530
 9527TIP3    H152776   1.513   4.638   4.500  0.8481  1.4475  1.8611
 9527TIP3    H252777   1.495   4.725   4.377 -0.9784 -0.4284  0.7412
 9528TIP3   OH252778   3.632   2.128   5.580 -0.1358  0.3039 -0.3763
 9528TIP3    H152779   3.582   2.189   5.634 -1.5826 -1.8744  0.9137
 9528TIP3    H252780   3.714   2.115   5.627  0.0210  0.9101 -0.4675
 9529TIP3   OH252781   1.797   1.933   6.297  0.5946 -0.1981  0.5941
 9529TIP3    H152782   1.791   2.014   6.348  0.0257 -1.7669  3.1878
 9529TIP3    H252783   1.708   1.916   6.268  0.9189  0.6990 -1.0649
 9530TIP3   OH252784   2.256   1.202   4.945  0.0183  0.2078  0.0458
 9530TIP3    H152785   2.335   1.150   4.960 -0.6663 -0.6577  0.7664
 9530TIP3    H252786   2.184   1.140   4.952 -0.7854  1.1181  0.1853
 9531TIP3   OH252787   7.174   6.485   5.131  0.2686  0.0276  0.4789
 9531TIP3    H152788   7.185   6.556   5.195 -0.1329  0.7351 -0.2316
 9531TIP3    H252789   7.232   6.416   5.163 -0.4866  0.0752  2.0297
 9532TIP3   OH252790   1.028   0.663   6.111  0.4074  0.1616 -0.5094
 9532TIP3    H152791   0.966   0.689   6.179 -0.3594  2.0536 -1.8553
 9532TIP3    H252792   0.983   0.680   6.028  2.0011 -0.3021 -1.5308
 9533TIP3   OH252793   4.720   7.251   6.380  0.8312  0.1321 -0.6060
 9533TIP3    H152794   4.782   7.248   6.454 -1.2999  0.5842  1.3224
 9533TIP3    H252795   4.660   7.179   6.397  0.8451 -0.3646 -2.4949
 9534TIP3   OH252796   3.703   0.880   4.341  0.1211 -0.0091 -0.4184
 9534TIP3    H152797   3.785   0.849   4.379  0.0134  0.9942  0.7001
 9534TIP3    H252798   3.683   0.960   4.390 -0.2772  1.1051 -2.3036
 9535TIP3   OH252799   4.018   2.928   5.700  0.5023  0.0121  0.6389
 9535TIP3    H152800   3.968   2.999   5.739 -0.2589 -0.0382 -0.2022
 9535TIP3    H252801   3.952   2.864   5.674  1.0567 -0.3367  0.0668
 9536TIP3   OH252802   7.658   1.045   4.944 -0.4809 -0.2436 -0.9591
 9536TIP3    H152803   7.654   1.093   5.027 -0.4360 -1.1709 -0.4083
 9536TIP3    H252804   7.587   1.082   4.892 -0.5649  0.2929 -0.4774
 9537TIP3   OH252805   4.891   5.892   5.934 -0.4780 -0.0704 -0.5495
 9537TIP3    H152806   4.905   5.844   5.853 -0.0438  0.9415 -1.1032
 9537TIP3    H252807   4.799   5.878   5.955 -0.5406 -0.5154 -1.1075
 9538TIP3   OH252808   5.401   7.538   3.915  0.2931  0.3498  0.2507
 9538TIP3    H152809   5.368   7.556   4.003  0.0759  0.7610  0.0919
 9538TIP3    H252810   5.341   7.473   3.879 -0.0870  0.7661  0.1243
 9539TIP3   OH252811   7.516   7.080   6.205 -0.3301  0.4011 -0.5711
 9539TIP3    H152812   7.482   7.048   6.289  0.1093  0.2710 -0.4414
 9539TIP3    H252813   7.601   7.037   6.195 -0.9995 -0.7086 -1.7706
 9540TIP3   OH252814   0.258   0.913   4.522 -0.2193 -0.1530 -0.0854
 9540TIP3    H152815   0.174   0.959   4.518  0.3211  0.8712 -0.1767
 9540TIP3    H252816   0.280   0.911   4.615  0.1480  0.5451 -0.1468
 9541TIP3   OH252817   1.611   3.303   4.486  0.1323 -0.5044 -0.2388
 9541TIP3    H152818   1.585   3.220   4.525 -0.3383 -0.2908 -0.0927
 9541TIP3    H252819   1.604   3.367   4.557  1.0874 -0.4377 -0.1849
 9542TIP3   OH252820   1.893   3.272   5.641  0.4126 -0.4195  0.1230
 9542TIP3    H152821   1.837   3.195   5.645 -0.4580  0.2391  1.3515
 9542TIP3    H252822   1.950   3.264   5.718  1.9203 -0.9982 -1.0250
 9543TIP3   OH252823   3.901   1.358   3.840 -0.5192 -0.1671  0.2007
 9543TIP3    H152824   3.908   1.273   3.795 -0.6576  0.0194 -0.1816
 9543TIP3    H252825   3.990   1.394   3.838 -0.2444 -0.7427  1.2589
 9544TIP3   OH252826   6.957   6.284   3.813  0.1189  0.6194 -0.4094
 9544TIP3    H152827   6.945   6.192   3.790  0.5193  0.3363  0.4509
 9544TIP3    H252828   7.035   6.284   3.869 -0.7755  1.2656  0.8731
 9545TIP3   OH252829   3.061   0.869   4.006 -0.5557 -0.0841 -0.4820
 9545TIP3    H152830   2.987   0.815   4.035  0.2185  0.8785  3.9668
 9545TIP3    H252831   3.121   0.808   3.965 -1.1555 -2.0753  1.4257
 9546TIP3   OH252832   1.932   1.443   5.162  0.0998  0.0857 -0.1637
 9546TIP3    H152833   1.994   1.371   5.162 -0.4073 -0.3605  0.4459
 9546TIP3    H252834   1.981   1.517   5.197 -0.0898 -0.6198  1.6870
 9547TIP3   OH252835   0.792   3.153   5.122 -0.2291 -0.1774 -0.3897
 9547TIP3    H152836   0.829   3.073   5.160 -1.1661 -0.1130  0.6877
 9547TIP3    H252837   0.779   3.212   5.196  0.2082  0.8844 -1.1452
 9548TIP3   OH252838   2.262   2.957   3.560  0.4512 -0.2801 -0.6023
 9548TIP3    H152839   2.279   2.863   3.569  1.0457 -0.0574  0.8912
 9548TIP3    H252840   2.347   2.998   3.573 -0.0556  0.5312  0.3012
 9549TIP3   OH252841   1.894   5.234   5.183 -0.2603  0.2327  0.0475
 9549TIP3    H152842   1.888   5.175   5.107  1.4085 -0.1194  0.1441
 9549TIP3    H252843   1.857   5.316   5.152 -1.3801 -0.4620 -0.5296
 9550TIP3   OH252844   1.689   4.968   6.047  0.3693 -1.0815 -0.0741
 9550TIP3    H152845   1.669   4.933   6.134  2.0345 -0.0857  0.7644
 9550TIP3    H252846   1.758   4.911   6.013  0.4121 -0.8876 -0.3159
 9551TIP3   OH252847   6.869   7.300   5.098  0.0445 -0.0603 -0.3251
 9551TIP3    H152848   6.808   7.290   5.171 -0.5702 -1.5863 -1.0153
 9551TIP3    H252849   6.871   7.395   5.082 -0.4911  0.2155  1.0746
 9552TIP3   OH252850   1.866   4.858   5.824  0.3900 -0.6561 -0.0404
 9552TIP3    H152851   1.788   4.808   5.800  0.4077 -0.1293 -1.2277
 9552TIP3    H252852   1.932   4.790   5.844 -0.3812 -1.0993  1.0936
 9553TIP3   OH252853   3.630   3.037   5.859 -0.3903 -0.2267  0.3514
 9553TIP3    H152854   3.576   3.013   5.784 -2.1238 -0.3591  1.5692
 9553TIP3    H252855   3.572   3.089   5.915  0.9478  0.1735  1.4384
 9554TIP3   OH252856   6.538   7.291   5.079  0.5040  0.4783 -0.2225
 9554TIP3    H152857   6.501   7.352   5.143 -1.8634  0.4417 -1.4521
 9554TIP3    H252858   6.597   7.345   5.026 -1.0594  1.6127 -0.8782
 9555TIP3   OH252859   4.358   2.168   5.958  0.2636 -0.5813  0.5244
 9555TIP3    H152860   4.352   2.237   6.024 -1.7155 -0.7973  0.6499
 9555TIP3    H252861   4.398   2.094   6.004 -0.4402 -0.4961  1.3091
 9556TIP3   OH252862   4.602   5.080   5.469  0.3871 -0.6392  0.0688
 9556TIP3    H152863   4.595   5.089   5.564  0.3370 -1.5979  0.1668
 9556TIP3    H252864   4.689   5.114   5.449  0.3267 -0.2563  0.4293
 9557TIP3   OH252865   2.352   0.164   5.375 -0.0579  0.0089  0.0726
 9557TIP3    H152866   2.386   0.211   5.299 -1.2484  0.1049 -0.4050
 9557TIP3    H252867   2.295   0.097   5.339 -0.7103  0.1132  0.8843
 9558TIP3   OH252868   4.212   1.538   4.917  0.5180  0.4712  0.1524
 9558TIP3    H152869   4.278   1.587   4.867  0.2527  0.3360 -0.3321
 9558TIP3    H252870   4.182   1.470   4.857 -2.0280  2.1763 -0.6542
 9559TIP3   OH252871   2.556   7.226   5.142 -0.8232 -0.2753 -0.1556
 9559TIP3    H152872   2.578   7.177   5.062  0.9873  0.9760 -0.4873
 9559TIP3    H252873   2.484   7.283   5.116  0.4485  0.9076 -1.2673
 9560TIP3   OH252874   4.391   5.000   3.707  0.0036 -0.0762 -0.1540
 9560TIP3    H152875   4.351   5.075   3.751 -1.4719 -0.9522  0.0495
 9560TIP3    H252876   4.381   5.019   3.614  3.1902  1.8140 -0.2807
 9561TIP3   OH252877   5.093   4.373   5.460  0.4861  0.6280 -0.0357
 9561TIP3    H152878   5.036   4.344   5.389  1.8025 -1.2567 -0.4088
 9561TIP3    H252879   5.136   4.452   5.425  0.4554  0.2341 -1.0046
 9562TIP3   OH252880   7.531   7.199   4.479  0.5779 -0.7088 -0.8512
 9562TIP3    H152881   7.484   7.143   4.417 -0.0379  1.0925 -2.0822
 9562TIP3    H252882   7.497   7.173   4.565 -0.3260 -1.6299 -1.4602
 9563TIP3   OH252883   4.440   2.152   4.208  0.1895  0.2561 -0.1509
 9563TIP3    H152884   4.478   2.093   4.272  1.5148 -0.0255 -1.1704
 9563TIP3    H252885   4.470   2.239   4.234 -0.2065  0.2786  0.2468
 9564TIP3   OH252886   6.716   2.388   5.630  0.1108 -0.0546 -0.3227
 9564TIP3    H152887   6.625   2.369   5.653  0.6833 -1.4581  0.9460
 9564TIP3    H252888   6.724   2.360   5.539 -0.4061 -1.2523 -0.0305
 9565TIP3   OH252889   0.205   1.571   4.177 -0.1526 -0.1675  0.4956
 9565TIP3    H152890   0.191   1.498   4.117 -2.6861 -0.8460  1.7567
 9565TIP3    H252891   0.254   1.635   4.125 -0.8738 -1.3248 -1.7871
 9566TIP3   OH252892   1.366   7.154   4.806  0.1852  0.3011  0.0632
 9566TIP3    H152893   1.360   7.147   4.902 -0.7006 -2.0556 -0.0982
 9566TIP3    H252894   1.457   7.131   4.787  0.1624  0.0188  0.2895
 9567TIP3   OH252895   1.313   4.894   3.770 -0.0429  0.5307 -0.0380
 9567TIP3    H152896   1.384   4.847   3.726 -0.7225  0.0997 -0.7069
 9567TIP3    H252897   1.354   4.933   3.847  1.0234  0.7051 -0.6751
 9568TIP3   OH252898   1.390   2.504   5.371 -0.0907  0.0646  0.2742
 9568TIP3    H152899   1.384   2.479   5.463  0.3025 -2.0320 -0.2289
 9568TIP3    H252900   1.470   2.462   5.340 -0.7098 -0.0309 -1.2518
 9569TIP3   OH252901   3.558   4.164   4.575 -0.1746  0.1735 -0.0012
 9569TIP3    H152902   3.470   4.175   4.611  0.3960  0.3947  1.3926
 9569TIP3    H252903   3.546   4.167   4.480 -1.7139 -0.1777  0.1530
 9570TIP3   OH252904   3.499   1.391   6.623  0.3798 -0.2580  0.1070
 9570TIP3    H152905   3.489   1.483   6.596  1.7579 -0.1209 -0.0303
 9570TIP3    H252906   3.593   1.375   6.617  0.0100 -2.2757 -1.7914
 9571TIP3   OH252907   3.106   4.124   5.046 -0.5539 -0.0492  0.4139
 9571TIP3    H152908   3.193   4.120   5.085 -0.5260  1.1594  0.5319
 9571TIP3    H252909   3.063   4.043   5.072  0.7301 -0.9338 -0.1384
 9572TIP3   OH252910   4.194   5.650   5.170 -0.0478 -0.2179  0.4038
 9572TIP3    H152911   4.208   5.713   5.240 -0.3830 -0.3486  0.5921
 9572TIP3    H252912   4.148   5.700   5.102  2.7712  0.6924 -0.9714
 9573TIP3   OH252913   7.003   3.752   6.438  0.2641  0.2670 -0.2676
 9573TIP3    H152914   6.914   3.782   6.421 -0.5089 -2.2393 -1.1174
 9573TIP3    H252915   7.053   3.777   6.359 -0.1167  0.1371 -0.5501
 9574TIP3   OH252916   0.073   3.632   5.261 -0.0028  0.3063 -0.2392
 9574TIP3    H152917   0.065   3.725   5.283 -0.0720 -0.1238  1.7975
 9574TIP3    H252918  -0.017   3.602   5.252 -0.1818 -0.2103  2.4234
 9575TIP3   OH252919   6.952   0.246   5.836  0.1302  0.6334 -0.1568
 9575TIP3    H152920   6.897   0.290   5.901 -0.6325  0.4777 -0.6746
 9575TIP3    H252921   7.010   0.191   5.887  0.2164  1.2661  0.4361
 9576TIP3   OH252922   3.572   1.358   6.228  0.0461 -0.2716 -0.4353
 9576TIP3    H152923   3.539   1.293   6.290 -2.2238  0.1196 -1.1383
 9576TIP3    H252924   3.641   1.312   6.180 -2.0456 -2.5319 -1.5154
 9577TIP3   OH252925   1.496   1.602   5.188 -0.5509 -0.7694 -0.5142
 9577TIP3    H152926   1.443   1.569   5.260 -0.3586  1.0429  0.5127
 9577TIP3    H252927   1.439   1.662   5.141 -0.0638 -0.4132 -0.6638
 9578TIP3   OH252928   4.232   2.150   4.512  0.7179 -0.4883  0.2932
 9578TIP3    H152929   4.200   2.097   4.438 -1.0611  0.6522  0.1972
 9578TIP3    H252930   4.191   2.236   4.499  2.3455  0.4838  1.2749
 9579TIP3   OH252931   0.255   3.263   4.395  0.1860 -0.3026 -0.0022
 9579TIP3    H152932   0.159   3.263   4.394  0.1364  2.0082 -1.3325
 9579TIP3    H252933   0.278   3.187   4.449 -2.3505 -1.9361 -1.0202
 9580TIP3   OH252934   4.921   7.129   5.436  0.0675  0.5820  0.1073
 9580TIP3    H152935   5.003   7.176   5.422 -0.6593  1.8543 -0.0309
 9580TIP3    H252936   4.887   7.164   5.518 -0.6657  0.5516 -0.1794
 9581TIP3   OH252937   0.806   5.279   4.985 -0.1707 -0.1742 -1.1095
 9581TIP3    H152938   0.747   5.233   5.045  0.3904 -0.4871 -0.7900
 9581TIP3    H252939   0.867   5.326   5.042  0.8413 -1.0740 -1.4040
 9582TIP3   OH252940   6.459   4.322   6.656  0.3543 -0.1721 -0.3461
 9582TIP3    H152941   6.441   4.228   6.645 -0.3542 -0.2066  0.8999
 9582TIP3    H252942   6.442   4.360   6.570 -1.0430 -0.9529 -0.4447
 9583TIP3   OH252943   3.079   1.243   4.492  0.0383  0.2120  0.2210
 9583TIP3    H152944   2.996   1.272   4.455 -0.5553 -1.7027 -0.0256
 9583TIP3    H252945   3.135   1.226   4.415 -0.2762 -1.1131  0.2631
 9584TIP3   OH252946   1.163   7.161   6.643  0.5557  0.5429  0.5352
 9584TIP3    H152947   1.133   7.071   6.640  1.3789  0.2063  1.7767
 9584TIP3    H252948   1.119   7.199   6.719  1.1751  0.8160  0.7643
 9585TIP3   OH252949   3.671   0.797   5.575  0.0525 -0.8209 -0.1424
 9585TIP3    H152950   3.634   0.778   5.489 -0.4358 -0.4862 -0.0123
 9585TIP3    H252951   3.738   0.731   5.588  0.7126 -0.3744 -1.1473
 9586TIP3   OH252952   2.543   1.790   5.642  0.4455  0.0895 -0.2469
 9586TIP3    H152953   2.507   1.831   5.564  1.5164  2.8963  0.5818
 9586TIP3    H252954   2.514   1.847   5.714  1.9042 -0.7096  1.0283
 9587TIP3   OH252955   1.195   3.879   4.973  0.9134  0.0725 -0.0534
 9587TIP3    H152956   1.251   3.804   4.992  1.8109  1.1685  1.9225
 9587TIP3    H252957   1.247   3.934   4.914  1.2628  0.3015  0.4637
 9588TIP3   OH252958   2.358   0.895   4.688  0.3507  0.1415 -0.0443
 9588TIP3    H152959   2.379   0.833   4.619  0.7286 -0.1365  0.3117
 9588TIP3    H252960   2.284   0.945   4.654  2.3043  2.0032 -1.8541
 9589TIP3   OH252961   4.225   5.208   5.078 -0.7853 -0.3386 -0.0992
 9589TIP3    H152962   4.266   5.179   5.159 -1.0219  2.7879  1.2757
 9589TIP3    H252963   4.131   5.195   5.091 -1.0039  1.8682  1.0128
 9590TIP3   OH252964   1.123   3.355   6.365  0.2457  0.2679  0.1135
 9590TIP3    H152965   1.214   3.336   6.390  0.0264 -0.0683  0.6637
 9590TIP3    H252966   1.131   3.428   6.303  0.9225 -0.0680 -0.2086
 9591TIP3   OH252967   1.888   6.133   4.708 -0.1763  0.5091  0.2699
 9591TIP3    H152968   1.920   6.191   4.639  0.9288 -0.5681 -0.1747
 9591TIP3    H252969   1.821   6.079   4.666  1.0350 -0.6740 -0.2248
 9592TIP3   OH252970   3.415   6.645   5.498 -0.2592  0.5019  0.2166
 9592TIP3    H152971   3.397   6.708   5.427  0.1907 -1.6483 -1.9436
 9592TIP3    H252972   3.344   6.582   5.493  0.2377 -0.1498  1.1492
 9593TIP3   OH252973   5.764   3.154   5.069 -0.6200 -0.0046 -0.4792
 9593TIP3    H152974   5.857   3.144   5.091 -1.4201  0.8232  4.5511
 9593TIP3    H252975   5.759   3.237   5.023  1.1191 -0.0370 -0.8013
 9594TIP3   OH252976   3.362   2.651   4.968 -0.3545  0.5571  0.5466
 9594TIP3    H152977   3.435   2.614   4.918 -0.1607 -1.2518  2.0699
 9594TIP3    H252978   3.284   2.610   4.931 -0.2684 -0.2373  1.2075
 9595TIP3   OH252979   7.261   6.375   5.480 -0.2092 -0.1384  1.1045
 9595TIP3    H152980   7.248   6.341   5.392 -0.4390  1.0074  0.6820
 9595TIP3    H252981   7.336   6.433   5.472 -1.9442  2.2176  0.9969
 9596TIP3   OH252982   0.673   5.612   3.810 -0.2355 -0.0904  0.1490
 9596TIP3    H152983   0.610   5.629   3.740  1.3778  2.1004 -0.8694
 9596TIP3    H252984   0.654   5.680   3.875  0.6869  0.2207  0.0958
 9597TIP3   OH252985   5.938   5.766   4.981  0.0031  0.3816  0.0105
 9597TIP3    H152986   5.928   5.700   4.912 -1.3359  0.2825  0.2594
 9597TIP3    H252987   6.023   5.747   5.021  0.4511 -0.0371 -1.1187
 9598TIP3   OH252988   6.685   4.849   6.680 -0.6969 -0.2851 -0.1694
 9598TIP3    H152989   6.641   4.783   6.733 -1.4307  0.8542  0.7058
 9598TIP3    H252990   6.636   4.850   6.597 -1.0819 -0.4044  0.0521
 9599TIP3   OH252991   0.625   4.395   4.867  0.4633  0.2808  0.2085
 9599TIP3    H152992   0.715   4.426   4.867  0.9406 -0.9081 -1.5592
 9599TIP3    H252993   0.631   4.306   4.902  0.1356 -0.1006 -0.6677
 9600TIP3   OH252994   6.769   3.390   6.565 -0.9546 -0.4755 -0.1507
 9600TIP3    H152995   6.779   3.306   6.520 -0.1676 -1.4795  1.7896
 9600TIP3    H252996   6.859   3.420   6.580 -1.1441 -0.5999  1.4419
 9601TIP3   OH252997   2.973   6.386   5.400 -0.3126 -0.4777 -0.4711
 9601TIP3    H152998   2.974   6.291   5.396 -0.0558 -0.5911  1.2754
 9601TIP3    H252999   2.887   6.407   5.437  0.8928 -0.3132  2.5716
 9602TIP3   OH253000   6.692   3.360   5.042  0.1777  0.1259  0.1522
 9602TIP3    H153001   6.774   3.343   4.994 -0.4785 -0.7904 -0.6859
 9602TIP3    H253002   6.654   3.436   4.997  0.0877 -0.0614 -0.0880
 9603TIP3   OH253003   4.357   5.109   5.288  0.1262  0.3545  0.0669
 9603TIP3    H153004   4.436   5.106   5.233  0.3147 -0.1802  0.3636
 9603TIP3    H253005   4.390   5.099   5.377 -0.4649 -2.5652  0.0415
 9604TIP3   OH253006   4.086   1.196   5.432  0.1444 -0.6852  0.5747
 9604TIP3    H153007   4.055   1.179   5.521  0.3549 -0.5840  0.6681
 9604TIP3    H253008   4.009   1.228   5.385  0.3292  0.5747  1.0792
 9605TIP3   OH253009   3.687   6.828   6.076  0.2730 -0.5065  0.1754
 9605TIP3    H153010   3.685   6.746   6.126  1.4283 -0.3448  0.5346
 9605TIP3    H253011   3.755   6.880   6.119 -0.8423  0.8961  0.3191
 9606TIP3   OH253012   4.828   5.084   5.304 -0.6542  0.3224 -0.3740
 9606TIP3    H153013   4.788   5.154   5.252 -2.3967 -0.8310 -0.6968
 9606TIP3    H253014   4.794   5.004   5.264 -0.2423 -0.6593  1.1859
 9607TIP3   OH253015   4.120   0.695   3.893 -0.0924 -0.0871 -0.2702
 9607TIP3    H153016   4.211   0.666   3.898 -0.1171 -0.3192 -1.0722
 9607TIP3    H253017   4.089   0.692   3.983  0.5761 -0.3977 -0.0470
 9608TIP3   OH253018   0.978   0.226   5.771 -0.6277 -0.1231  0.5579
 9608TIP3    H153019   1.061   0.224   5.818 -0.5567 -1.1103  0.3954
 9608TIP3    H253020   0.954   0.134   5.760  0.0504 -0.0322 -2.5398
 9609TIP3   OH253021   2.248   7.279   5.251  0.1582 -0.1810 -0.0621
 9609TIP3    H153022   2.263   7.296   5.158  2.3309 -1.4446 -0.0197
 9609TIP3    H253023   2.282   7.357   5.295  0.1070 -0.0304 -0.2852
 9610TIP3   OH253024   6.813   7.654   5.976  0.6903 -0.1188  0.2800
 9610TIP3    H153025   6.905   7.680   5.968  0.9201 -0.6757  1.0029
 9610TIP3    H253026   6.794   7.662   6.069 -0.2948  0.9418  0.0085
 9611TIP3   OH253027   4.958   6.218   4.018 -0.3113  0.3054  0.0626
 9611TIP3    H153028   4.971   6.303   3.976 -0.2667 -0.1957 -0.9554
 9611TIP3    H253029   4.864   6.201   4.010 -0.1682 -0.1916 -0.6236
 9612TIP3   OH253030   6.283   7.315   4.471  0.0972 -0.0403 -0.4106
 9612TIP3    H153031   6.222   7.259   4.518  1.4036  0.0384  1.4919
 9612TIP3    H253032   6.370   7.285   4.499  0.8621  2.0119 -0.3987
 9613TIP3   OH253033   0.270   2.466   4.297 -0.0808  0.1518 -0.1527
 9613TIP3    H153034   0.192   2.502   4.255  0.0018 -1.0011 -1.3659
 9613TIP3    H253035   0.243   2.379   4.325  1.1841 -0.9489 -2.1080
 9614TIP3   OH253036   1.393   4.475   4.538  0.3554  0.6950  0.6703
 9614TIP3    H153037   1.360   4.470   4.627 -2.4792  1.8658 -0.2119
 9614TIP3    H253038   1.401   4.384   4.510 -0.5244  0.3422  1.5215
 9615TIP3   OH253039   4.935   3.938   6.348 -0.4608  0.0884 -0.6977
 9615TIP3    H153040   4.992   3.965   6.420  0.6495  0.1236 -1.5618
 9615TIP3    H253041   4.860   3.998   6.353 -0.0274  0.5828 -0.0395
 9616TIP3   OH253042   3.218   4.733   4.939 -0.5249  0.5248 -0.0184
 9616TIP3    H153043   3.172   4.688   4.868  0.7634 -0.0538 -0.5136
 9616TIP3    H253044   3.311   4.729   4.914 -0.1480  1.2355  1.1846
 9617TIP3   OH253045   7.348   6.839   5.624 -0.7317 -0.3093 -0.6316
 9617TIP3    H153046   7.352   6.819   5.718  0.1996 -1.2205 -0.8487
 9617TIP3    H253047   7.255   6.852   5.606 -0.8164  1.4369  0.7219
 9618TIP3   OH253048   3.956   6.943   4.605 -0.3977 -0.1253  0.3223
 9618TIP3    H153049   3.965   6.856   4.644 -0.9153  0.2430  1.2917
 9618TIP3    H253050   3.948   7.002   4.680 -0.9877  0.6550 -0.3390
 9619TIP3   OH253051   1.236   5.211   6.800 -0.4920 -0.2674  0.2454
 9619TIP3    H153052   1.245   5.291   6.851 -0.9843 -0.2158  0.2575
 9619TIP3    H253053   1.197   5.148   6.862 -0.1020 -0.5179  0.2401
 9620TIP3   OH253054   6.360   7.106   5.097  0.1303  0.0579  0.1483
 9620TIP3    H153055   6.439   7.158   5.085  2.0178 -2.3341  1.3100
 9620TIP3    H253056   6.310   7.154   5.163  2.2435  0.0297  1.8911
 9621TIP3   OH253057   4.939   5.374   4.965 -0.5067  0.0376  0.3724
 9621TIP3    H153058   4.933   5.347   4.873 -1.6056 -4.1767  1.4925
 9621TIP3    H253059   5.018   5.428   4.968 -0.2706  0.1046 -2.9629
 9622TIP3   OH253060   2.642   6.784   3.711 -0.1507 -0.1447  0.0105
 9622TIP3    H153061   2.548   6.774   3.699  0.0127 -0.8371 -0.7076
 9622TIP3    H253062   2.682   6.721   3.651  0.8285  1.6549 -1.3302
 9623TIP3   OH253063   3.370   3.823   3.944 -0.5218  0.0255 -0.3464
 9623TIP3    H153064   3.445   3.764   3.946  0.9441  1.7750 -0.2898
 9623TIP3    H253065   3.360   3.852   4.035 -0.6297  0.5446 -0.5214
 9624TIP3   OH253066   7.676   1.575   5.462  0.1231 -0.4052 -0.6836
 9624TIP3    H153067   7.771   1.580   5.466 -0.0004  1.0653  2.0284
 9624TIP3    H253068   7.649   1.546   5.549 -1.9254 -0.9925 -1.4494
 9625TIP3   OH253069   7.454   2.983   5.546 -0.4495 -0.2380  0.5101
 9625TIP3    H153070   7.417   3.070   5.532 -0.0578  0.0116  1.0104
 9625TIP3    H253071   7.501   2.989   5.629 -1.3248 -1.2311  1.1045
 9626TIP3   OH253072   2.129   2.034   4.847 -0.4123  0.0003 -0.3078
 9626TIP3    H153073   2.056   1.991   4.801 -0.4760  0.8234 -1.0016
 9626TIP3    H253074   2.168   2.091   4.781  0.2809  0.2729  0.3289
 9627TIP3   OH253075   0.551   5.129   5.426  0.5910 -0.2143  0.1808
 9627TIP3    H153076   0.479   5.066   5.423  0.4153  0.0016 -0.3165
 9627TIP3    H253077   0.508   5.214   5.433  0.8161 -0.1232  0.4637
 9628TIP3   OH253078   7.507   2.706   5.532  0.0057  0.0042  0.1177
 9628TIP3    H153079   7.506   2.800   5.516 -2.6489  0.1101  0.5668
 9628TIP3    H253080   7.534   2.697   5.623 -0.7193  0.4094  0.3781
 9629TIP3   OH253081   5.077   6.241   5.275 -0.2826 -1.2394 -0.1594
 9629TIP3    H153082   5.058   6.177   5.344  1.5956  0.3386  1.9619
 9629TIP3    H253083   5.167   6.221   5.248  0.4740  0.6466  0.7974
 9630TIP3   OH253084   6.884   6.677   5.700 -0.0339 -0.5460  0.1874
 9630TIP3    H153085   6.807   6.628   5.672 -0.4740  0.2239  0.0183
 9630TIP3    H253086   6.868   6.696   5.793 -0.2710 -0.0030  0.0430
 9631TIP3   OH253087   4.089   7.293   4.587 -0.5615 -0.4707  0.1233
 9631TIP3    H153088   3.998   7.311   4.562  0.3570  2.1662 -1.7757
 9631TIP3    H253089   4.125   7.243   4.514 -0.5836 -2.0144  1.1298
 9632TIP3   OH253090   6.608   5.961   4.234  0.5482 -0.2978  0.3327
 9632TIP3    H153091   6.665   5.934   4.162  0.8738 -1.9188  1.1454
 9632TIP3    H253092   6.577   6.048   4.209  0.9374 -0.6628 -1.5890
 9633TIP3   OH253093   3.778   5.164   4.960 -0.0671 -0.0957 -0.3505
 9633TIP3    H153094   3.805   5.231   5.024 -1.2122 -1.5443  1.7788
 9633TIP3    H253095   3.855   5.107   4.952  0.6412  0.9837 -1.5746
 9634TIP3   OH253096   6.073   1.738   3.978 -0.3153 -0.1066  0.1622
 9634TIP3    H153097   6.035   1.667   3.925  1.1189 -0.6026 -0.2531
 9634TIP3    H253098   6.107   1.693   4.055 -1.4585  0.4728  1.0198
 9635TIP3   OH253099   1.983   3.828   5.857  0.5805 -0.0230 -0.1331
 9635TIP3    H153100   1.922   3.806   5.786 -1.3620 -0.1362  1.4822
 9635TIP3    H253101   2.052   3.761   5.852  1.3233  0.8307 -2.7782
 9636TIP3   OH253102   5.602   2.674   4.342  0.1448  0.3881  0.4442
 9636TIP3    H153103   5.567   2.674   4.431 -2.3236 -1.5023 -0.4077
 9636TIP3    H253104   5.575   2.759   4.306  1.0754  1.1229  1.4002
 9637TIP3   OH253105   5.834   4.843   5.630 -0.8036  0.2533  0.5772
 9637TIP3    H153106   5.852   4.936   5.620 -1.1934  0.3805  1.0312
 9637TIP3    H253107   5.767   4.838   5.698 -1.3231 -0.3163  0.0378
 9638TIP3   OH253108   4.690   5.644   4.115 -0.4385  0.0945  0.6758
 9638TIP3    H153109   4.664   5.658   4.206  0.9629 -1.3524  1.3404
 9638TIP3    H253110   4.739   5.562   4.116  3.1120  1.9675 -0.6548
 9639TIP3   OH253111   3.865   0.478   4.131  0.4875  0.6673 -0.3892
 9639TIP3    H153112   3.831   0.421   4.062 -0.5306  2.0817 -1.1074
 9639TIP3    H253113   3.953   0.500   4.102  1.4857 -1.6203  0.6170
 9640TIP3   OH253114   1.520   7.029   3.886 -0.0144  0.3160  0.0153
 9640TIP3    H153115   1.610   6.998   3.893  0.1533  0.7587 -0.1480
 9640TIP3    H253116   1.517   7.110   3.936  0.0953  1.1588 -1.2733
 9641TIP3   OH253117   1.776   4.858   4.142  0.6573 -0.1124 -0.2565
 9641TIP3    H153118   1.742   4.770   4.159  0.1532 -0.0842 -1.0594
 9641TIP3    H253119   1.726   4.914   4.202  0.3531 -0.2661 -0.3618
 9642TIP3   OH253120   6.257   5.004   5.639 -0.5601 -0.1294  0.2622
 9642TIP3    H153121   6.244   4.914   5.666 -1.1538 -0.5681 -1.3308
 9642TIP3    H253122   6.350   5.011   5.621 -0.7070 -0.8480 -0.8917
 9643TIP3   OH253123   6.303   6.959   4.397 -0.6619 -0.2262  0.2172
 9643TIP3    H153124   6.344   6.984   4.314  1.8439 -0.3274  1.3431
 9643TIP3    H253125   6.223   7.012   4.400 -0.8966 -0.2804 -2.2634
 9644TIP3   OH253126   2.810   5.083   4.260  0.2152 -0.3096 -0.8186
 9644TIP3    H153127   2.861   5.094   4.180 -1.2648  0.5758 -1.6904
 9644TIP3    H253128   2.734   5.031   4.233  0.0533 -0.6289  0.1909
 9645TIP3   OH253129   5.353   5.709   5.863 -0.6543 -0.1428  0.0305
 9645TIP3    H153130   5.399   5.654   5.927 -0.0605  0.2746 -0.0256
 9645TIP3    H253131   5.306   5.646   5.807  1.5652 -0.7927 -1.2549
 9646TIP3   OH253132   0.200   3.343   3.960  0.4050  0.0604 -0.1004
 9646TIP3    H153133   0.189   3.248   3.957  2.1534 -0.1631 -1.7614
 9646TIP3    H253134   0.268   3.357   4.026  0.9551  0.0443 -0.6589
 9647TIP3   OH253135   2.624   4.001   4.572 -0.8777 -0.0144 -0.0218
 9647TIP3    H153136   2.657   4.090   4.571  1.0342 -0.6735  0.4654
 9647TIP3    H253137   2.619   3.978   4.665 -0.8981 -0.5835 -0.1606
 9648TIP3   OH253138   0.191   2.809   6.882  0.0251  0.1039 -0.1778
 9648TIP3    H153139   0.242   2.808   6.801 -0.0745  0.5708 -0.2515
 9648TIP3    H253140   0.165   2.901   6.892 -1.2037 -0.1939 -0.4049
 9649TIP3   OH253141   3.041   5.289   3.955 -0.1444 -0.5660 -0.2697
 9649TIP3    H153142   3.077   5.272   4.042  1.8394 -1.4937 -1.1945
 9649TIP3    H253143   2.975   5.221   3.943 -0.9546  0.0150  0.7634
 9650TIP3   OH253144   0.530   7.425   5.634 -0.3086  0.3463 -0.5257
 9650TIP3    H153145   0.608   7.371   5.629  0.6274  1.2223  2.5260
 9650TIP3    H253146   0.459   7.364   5.652  0.2388 -0.1595 -0.0516
 9651TIP3   OH253147   4.308   4.681   4.652 -0.0592 -0.2172 -0.3687
 9651TIP3    H153148   4.390   4.729   4.644  0.2349 -0.5242  0.6827
 9651TIP3    H253149   4.308   4.621   4.577  0.0181  0.7382 -1.1449
 9652TIP3   OH253150   3.352   0.595   4.554  0.0434 -0.2999  0.4230
 9652TIP3    H153151   3.353   0.567   4.645  0.0884 -0.3805  0.3975
 9652TIP3    H253152   3.322   0.686   4.557  0.6737 -0.0914  0.5720
 9653TIP3   OH253153   3.720   5.921   3.947  0.4112  0.4439  0.1243
 9653TIP3    H153154   3.644   5.914   3.888 -0.2677  1.5975  0.8258
 9653TIP3    H253155   3.711   6.007   3.987  1.6715  0.2653  0.8297
 9654TIP3   OH253156   4.098   0.055   3.913  0.0638 -0.0551  0.1849
 9654TIP3    H153157   4.190   0.040   3.938 -0.2066  0.6968  1.7596
 9654TIP3    H253158   4.065  -0.033   3.893  1.3376 -0.2535 -1.2982
 9655TIP3   OH253159   2.721   5.933   5.202  0.3546  0.5933  0.7093
 9655TIP3    H153160   2.630   5.906   5.210  0.0320  1.4463  0.1378
 9655TIP3    H253161   2.765   5.894   5.277 -0.1458 -1.1446  0.1530
 9656TIP3   OH253162   3.353   6.304   3.771 -0.0742  0.3317 -0.4261
 9656TIP3    H153163   3.339   6.392   3.807 -2.0910 -0.7741  1.6974
 9656TIP3    H253164   3.268   6.281   3.731  0.7404 -0.3008 -1.8741
 9657TIP3   OH253165   5.448   5.433   3.993  0.3044  0.2900 -0.3439
 9657TIP3    H153166   5.422   5.461   4.081 -1.9305 -0.2776 -0.7780
 9657TIP3    H253167   5.437   5.338   3.994 -0.2427  0.3319 -1.3707
 9658TIP3   OH253168   2.995   7.139   4.834  0.3031 -0.3574 -0.1973
 9658TIP3    H153169   3.042   7.175   4.758 -1.4808  0.4941 -0.9617
 9658TIP3    H253170   2.958   7.057   4.803  1.9114 -1.4635  0.6635
 9659TIP3   OH253171   3.986   5.011   4.981  0.0471  0.0336 -0.0879
 9659TIP3    H153172   4.004   4.965   4.899 -2.0584  0.8858 -1.1267
 9659TIP3    H253173   3.985   4.943   5.048  1.2951 -0.7517 -0.8466
 9660TIP3   OH253174   1.348   5.371   6.060 -0.1343  0.6601 -0.4138
 9660TIP3    H153175   1.411   5.329   6.119  1.3155  0.2675 -2.1431
 9660TIP3    H253176   1.265   5.328   6.079  0.5431 -0.3219  0.4605
 9661TIP3   OH253177   2.556   5.784   3.939  0.5120 -0.4707 -0.3947
 9661TIP3    H153178   2.524   5.697   3.915 -2.0357 -0.1974  1.6233
 9661TIP3    H253179   2.631   5.767   3.996  0.7895 -1.2859 -0.9771
 9662TIP3   OH253180   1.563   0.434   6.527 -0.0283  0.0343  0.3404
 9662TIP3    H153181   1.593   0.524   6.509  0.8123  0.0753  1.7952
 9662TIP3    H253182   1.634   0.378   6.495  0.8669  0.0539  2.1650
 9663TIP3   OH253183   0.610   6.990   5.700 -0.0002 -0.6267  0.0372
 9663TIP3    H153184   0.516   7.003   5.687 -0.5943 -1.1681  3.0170
 9663TIP3    H253185   0.646   7.079   5.708 -0.7500 -0.4351  1.5140
 9664TIP3   OH253186   5.921   5.466   5.467  0.2267  0.0170 -0.0314
 9664TIP3    H153187   5.921   5.469   5.562  0.0512  0.4905 -0.0456
 9664TIP3    H253188   6.011   5.483   5.442  0.9031 -2.8573  0.1195
 9665TIP3   OH253189   7.641   4.651   5.692  0.3097  0.6693 -0.5224
 9665TIP3    H153190   7.713   4.614   5.742 -0.9705 -3.6260 -1.4411
 9665TIP3    H253191   7.566   4.646   5.751 -0.3107 -0.2060 -1.3650
 9666TIP3   OH253192   3.921   4.311   4.340 -0.0964 -0.0385  0.5625
 9666TIP3    H153193   3.914   4.308   4.245  0.3368 -1.4695  0.5599
 9666TIP3    H253194   3.991   4.375   4.356 -1.8061  2.0977  0.0607
 9667TIP3   OH253195   4.552   5.212   4.843  0.5824  0.2715 -0.5035
 9667TIP3    H153196   4.479   5.203   4.904  0.5244 -0.4140 -0.6644
 9667TIP3    H253197   4.529   5.288   4.790 -0.1894 -0.1403 -0.7785
 9668TIP3   OH253198   2.587   4.203   5.839 -0.6240 -0.3901 -0.8408
 9668TIP3    H153199   2.657   4.192   5.775  0.1516  2.9863 -0.7730
 9668TIP3    H253200   2.510   4.224   5.786 -0.5421  0.1074 -0.7649
 9669TIP3   OH253201   7.471   4.457   5.573  0.1379 -0.6388 -0.1747
 9669TIP3    H153202   7.399   4.393   5.582 -0.8063  0.4966  0.6261
 9669TIP3    H253203   7.504   4.469   5.662  1.2771 -1.0626 -0.5220
 9670TIP3   OH253204   0.339   3.242   5.411  0.0935  0.3636 -0.6944
 9670TIP3    H153205   0.383   3.248   5.496  0.3968 -2.2980 -0.5944
 9670TIP3    H253206   0.411   3.245   5.348  0.4414 -2.6535 -0.5806
 9671TIP3   OH253207   0.403   4.376   4.344  0.1898  0.5738  0.4416
 9671TIP3    H153208   0.425   4.363   4.437  1.3062  1.2448  0.2929
 9671TIP3    H253209   0.310   4.353   4.338  0.1746  0.2335  1.6664
 9672TIP3   OH253210   0.134   0.471   4.581 -0.0020 -0.5733 -0.7640
 9672TIP3    H153211   0.167   0.555   4.548  0.9642 -0.0536  1.3616
 9672TIP3    H253212   0.213   0.423   4.606 -0.6574 -0.9403  0.6909
 9673TIP3   OH253213   2.257   6.072   6.437  0.3985 -0.3490  0.3973
 9673TIP3    H153214   2.313   5.994   6.441 -0.8428 -1.3009 -0.3422
 9673TIP3    H253215   2.168   6.039   6.445 -0.1033  1.1137  1.1950
 9674TIP3   OH253216   6.095   3.131   4.747  0.3087 -0.2398 -0.1382
 9674TIP3    H153217   6.058   3.209   4.788  0.6051 -0.7788  1.2136
 9674TIP3    H253218   6.184   3.157   4.722  1.7132 -1.0030  3.4128
 9675TIP3   OH253219   1.853   0.678   4.465  0.1724 -0.1407 -0.2439
 9675TIP3    H153220   1.904   0.733   4.406  1.0353 -0.8662 -0.2179
 9675TIP3    H253221   1.871   0.589   4.435 -0.9738 -0.4251 -0.1207
 9676TIP3   OH253222   0.875   5.524   4.014 -0.0808 -0.3706  0.3528
 9676TIP3    H153223   0.935   5.451   3.997  0.3037  0.2170 -0.9064
 9676TIP3    H253224   0.807   5.514   3.948  0.0886  0.5198  0.0334
 9677TIP3   OH253225   4.466   6.903   6.193  0.7034 -0.2039  0.2843
 9677TIP3    H153226   4.460   6.986   6.145 -0.8527 -1.9719 -2.9058
 9677TIP3    H253227   4.389   6.903   6.250 -0.4216 -0.2126 -1.1718
 9678TIP3   OH253228   5.476   0.980   3.980 -0.0799 -0.5255  0.2078
 9678TIP3    H153229   5.532   0.955   3.906  1.6783  1.9418  0.6083
 9678TIP3    H253230   5.514   0.934   4.055  0.0621 -0.5694  0.1103
 9679TIP3   OH253231   5.770   3.381   4.192 -0.5036  0.3915 -0.2569
 9679TIP3    H153232   5.686   3.427   4.183 -1.3764 -0.2967  3.0464
 9679TIP3    H253233   5.750   3.290   4.170 -0.2378  0.4966 -0.9458
 9680TIP3   OH253234   1.413   4.447   4.254  0.4744 -0.2664 -0.2504
 9680TIP3    H153235   1.498   4.481   4.227 -0.0105 -0.8198 -2.7556
 9680TIP3    H253236   1.434   4.369   4.306  1.5465 -0.7317 -1.3137
 9681TIP3   OH253237   3.479   1.177   6.415  0.4003 -0.4676  0.0240
 9681TIP3    H153238   3.471   1.239   6.487 -0.2955 -0.0028 -0.4336
 9681TIP3    H253239   3.440   1.096   6.449  1.1498 -0.6091  0.5625
 9682TIP3   OH253240   1.478   2.985   5.752  0.2355 -0.8187 -0.4680
 9682TIP3    H153241   1.489   2.893   5.774  2.3178 -0.3608  0.7278
 9682TIP3    H253242   1.537   2.999   5.677 -1.0601 -0.7029 -1.5080
 9683TIP3   OH253243   1.804   3.858   5.624 -0.5625  0.0497 -0.3114
 9683TIP3    H153244   1.873   3.898   5.572  0.2827 -2.1771 -1.0030
 9683TIP3    H253245   1.742   3.824   5.559 -1.9369  1.2488  0.2856
 9684TIP3   OH253246   3.584   5.548   5.774 -0.1498  0.1201 -0.6162
 9684TIP3    H153247   3.552   5.606   5.706  1.8659  1.9385 -0.1145
 9684TIP3    H253248   3.675   5.575   5.789  0.8243 -2.9928 -0.1430
 9685TIP3   OH253249   0.771   6.058   6.014  0.4790 -0.2545 -0.8661
 9685TIP3    H153250   0.694   6.027   6.061  0.8522 -0.4864 -0.4031
 9685TIP3    H253251   0.790   5.988   5.951  0.2068 -0.1165 -1.1023
 9686TIP3   OH253252   2.324   4.694   4.064 -0.1850  0.5253 -0.1786
 9686TIP3    H153253   2.342   4.604   4.092 -0.7927  0.5346  0.2880
 9686TIP3    H253254   2.294   4.737   4.144  0.5770  1.2772 -0.2938
 9687TIP3   OH253255   4.676   3.805   4.224  0.3264  0.0247  0.3707
 9687TIP3    H153256   4.607   3.799   4.158 -0.6231  1.9902  1.1216
 9687TIP3    H253257   4.705   3.714   4.236 -2.5893 -1.0005  0.4826
 9688TIP3   OH253258   4.711   0.078   3.889 -0.2931 -0.2509  0.1877
 9688TIP3    H153259   4.650   0.090   3.962  2.5629  1.7472  2.4694
 9688TIP3    H253260   4.737  -0.014   3.894 -1.3269 -0.5312  0.6322
 9689TIP3   OH253261   1.685   1.519   3.894  1.0092  0.7278 -0.0543
 9689TIP3    H153262   1.593   1.491   3.887  1.5688 -1.1965 -0.4034
 9689TIP3    H253263   1.687   1.575   3.971 -0.1459 -0.8158  1.1769
 9690TIP3   OH253264   2.074   3.671   5.583 -0.1051  0.3200  0.5105
 9690TIP3    H153265   2.167   3.653   5.598  0.0215  1.4993  1.1930
 9690TIP3    H253266   2.071   3.762   5.556 -0.9766  0.0003 -0.5507
 9691TIP3   OH253267   3.217   6.902   4.733  0.6565 -0.2350 -0.2041
 9691TIP3    H153268   3.276   6.959   4.685  0.9101  0.7148  1.1726
 9691TIP3    H253269   3.260   6.817   4.734  1.8520  0.3456  0.4471
 9692TIP3   OH253270   5.963   3.378   5.948  0.1871  0.5274  0.1881
 9692TIP3    H153271   6.042   3.341   5.909 -0.4028 -1.8532  1.0752
 9692TIP3    H253272   5.987   3.397   6.038 -0.4015 -0.9210  0.6796
 9693TIP3   OH253273   2.982   1.095   3.852 -0.4410 -0.3376  0.2330
 9693TIP3    H153274   3.067   1.124   3.817 -1.0323  0.7084 -0.3763
 9693TIP3    H253275   3.005   1.029   3.917  0.9854  1.3904  1.6062
 9694TIP3   OH253276   2.379   5.901   4.789  0.0971  0.7069 -0.0140
 9694TIP3    H153277   2.309   5.966   4.778 -0.3208  0.5413  1.3924
 9694TIP3    H253278   2.338   5.817   4.770 -0.1864  0.5819  1.0780
 9695TIP3   OH253279   3.202   4.310   4.505  0.3150 -0.5045  0.1692
 9695TIP3    H153280   3.226   4.308   4.413  2.7347 -1.7321  0.7393
 9695TIP3    H253281   3.217   4.401   4.532  0.9169 -0.4468 -0.3387
 9696TIP3   OH253282   4.614   1.341   4.260  0.0973 -0.5392  0.0257
 9696TIP3    H153283   4.655   1.425   4.237  0.3714 -0.5163  0.5598
 9696TIP3    H253284   4.522   1.353   4.238  0.1123 -0.0483  0.2029
 9697TIP3   OH253285   1.800   7.495   6.197 -0.3418 -0.1445 -0.1387
 9697TIP3    H153286   1.764   7.417   6.238  1.1608 -0.3265  0.9313
 9697TIP3    H253287   1.754   7.568   6.238 -0.8715 -0.4227 -0.2339
 9698TIP3   OH253288   0.681   3.065   5.707 -0.0291  0.3260  0.0605
 9698TIP3    H153289   0.708   3.088   5.795 -3.1316  0.1996  1.1696
 9698TIP3    H253290   0.684   2.970   5.704  0.7651  0.3469 -0.2728
 9699TIP3   OH253291   1.339   7.205   5.090 -0.1674  0.5472 -0.0185
 9699TIP3    H153292   1.408   7.141   5.108 -0.5924 -0.4734 -1.7756
 9699TIP3    H253293   1.331   7.256   5.171  1.1500 -0.7143  0.9447
 9700TIP3   OH253294   3.932   2.585   4.132 -0.5315 -0.1141  0.3153
 9700TIP3    H153295   3.907   2.625   4.049  0.3064  0.2055  0.2051
 9700TIP3    H253296   3.929   2.656   4.195  2.9521  0.7145 -0.2598
 9701TIP3   OH253297   1.050   0.249   6.191 -0.2170  0.4183 -0.3537
 9701TIP3    H153298   1.117   0.317   6.180 -0.1806  0.2732 -1.0291
 9701TIP3    H253299   0.968   0.297   6.201  0.1406  0.6757  2.0369
 9702TIP3   OH253300   7.648   7.185   5.816 -0.0810  0.1898  0.4630
 9702TIP3    H153301   7.576   7.130   5.849 -1.7755  0.8956 -1.8008
 9702TIP3    H253302   7.721   7.125   5.805 -1.3607 -1.2900 -0.3218
 9703TIP3   OH253303   3.206   0.394   5.296 -0.2619  0.4029 -0.3389
 9703TIP3    H153304   3.244   0.375   5.382 -1.3739  0.0218  0.0886
 9703TIP3    H253305   3.242   0.326   5.239  0.5046  0.6712 -0.1952
 9704TIP3   OH253306   1.243   1.947   5.445  0.5909 -0.4494 -0.1399
 9704TIP3    H153307   1.293   1.942   5.364  0.0422 -0.5843 -0.4742
 9704TIP3    H253308   1.174   2.011   5.426  0.9208  0.1070  0.4767
 9705TIP3   OH253309   2.784   2.389   4.169  0.0485  0.0027  0.1731
 9705TIP3    H153310   2.688   2.384   4.168  0.0356 -0.5832 -2.3346
 9705TIP3    H253311   2.805   2.421   4.257 -2.4409  0.2961  0.7505
 9706TIP3   OH253312   7.418   6.269   3.725 -0.4415  0.3516 -0.0275
 9706TIP3    H153313   7.479   6.247   3.795  0.5293  0.2517 -0.8839
 9706TIP3    H253314   7.433   6.203   3.657 -2.2111 -0.2743  0.1354
 9707TIP3   OH253315   6.208   7.148   6.777  0.4572  0.0853 -0.0131
 9707TIP3    H153316   6.287   7.112   6.816 -0.3625  0.9931  2.6880
 9707TIP3    H253317   6.230   7.159   6.684  2.5191 -2.2001  0.1170
 9708TIP3   OH253318   0.181   3.869   4.490  0.3945 -0.7053 -0.2962
 9708TIP3    H153319   0.174   3.870   4.585 -0.8783 -1.8390 -0.3528
 9708TIP3    H253320   0.191   3.962   4.466 -1.3148 -0.1808  0.8271
 9709TIP3   OH253321   3.149   2.458   4.222  0.3816 -0.3201 -1.0081
 9709TIP3    H153322   3.061   2.443   4.256 -0.1327  3.2910 -0.4123
 9709TIP3    H253323   3.138   2.464   4.127  0.7206 -3.4626 -1.3801
 9710TIP3   OH253324   5.589   1.777   5.974  0.3032 -0.1937 -0.1280
 9710TIP3    H153325   5.632   1.832   6.040 -0.3847  0.6403 -0.3553
 9710TIP3    H253326   5.549   1.706   6.025 -0.4225  0.5695  0.3890
 9711TIP3   OH253327   7.393   6.271   4.585 -0.0549  0.1524 -0.1847
 9711TIP3    H153328   7.345   6.351   4.606  0.2292  0.3381 -0.2228
 9711TIP3    H253329   7.361   6.206   4.646  0.2927  0.5106  0.3936
 9712TIP3   OH253330   1.674   5.924   6.494  0.5392 -0.2661 -0.0745
 9712TIP3    H153331   1.684   6.011   6.456  0.1996 -0.0368  0.3544
 9712TIP3    H253332   1.619   5.937   6.571 -0.4259 -1.0221 -0.6161
 9713TIP3   OH253333   3.080   5.634   5.791 -0.7410 -0.2399 -0.2714
 9713TIP3    H153334   3.063   5.706   5.853 -1.0723 -0.6587  0.1319
 9713TIP3    H253335   3.131   5.571   5.841  0.9485  0.4053 -1.0914
 9714TIP3   OH253336   3.052   3.215   4.479  0.1239 -0.4462  0.5044
 9714TIP3    H153337   3.028   3.131   4.439  1.5547 -0.1823 -1.0062
 9714TIP3    H253338   3.140   3.200   4.514 -0.5790 -0.2694  2.4745
 9715TIP3   OH253339   2.351   2.243   5.184  0.0778 -0.1300  0.0179
 9715TIP3    H153340   2.379   2.332   5.204  0.2033  0.0805 -1.0696
 9715TIP3    H253341   2.269   2.254   5.135  1.0618 -0.5147 -1.7924
 9716TIP3   OH253342   1.690   7.328   5.863  0.3612  0.4732 -0.3764
 9716TIP3    H153343   1.620   7.264   5.847  1.2115 -0.5095 -0.2409
 9716TIP3    H253344   1.645   7.412   5.864 -1.0604 -0.2560  1.1228
 9717TIP3   OH253345   6.550   5.119   5.570  0.2931  0.2071 -0.2105
 9717TIP3    H153346   6.640   5.104   5.540 -0.4418  0.1958 -2.5810
 9717TIP3    H253347   6.527   5.205   5.535 -1.1995 -0.5472 -1.1823
 9718TIP3   OH253348   2.669   0.767   4.268  0.4443  0.6024 -0.1891
 9718TIP3    H153349   2.763   0.750   4.255  0.2441 -0.0143 -0.8924
 9718TIP3    H253350   2.633   0.769   4.179 -0.1547  1.1910  0.0600
 9719TIP3   OH253351   7.210   7.124   4.839 -0.2284  0.2218  0.2368
 9719TIP3    H153352   7.129   7.090   4.801 -0.0687 -1.6603  1.4408
 9719TIP3    H253353   7.184   7.157   4.925  0.3131 -0.7951  0.8134
 9720TIP3   OH253354   2.819   3.168   4.249 -0.1678  0.4227  0.2374
 9720TIP3    H153355   2.761   3.231   4.292 -0.6503  0.7665 -0.8961
 9720TIP3    H253356   2.768   3.134   4.176 -0.0766 -1.6317  1.0666
 9721TIP3   OH253357   1.130   3.754   4.171 -0.3930 -0.0231 -0.1265
 9721TIP3    H153358   1.084   3.688   4.119  2.1552 -3.5832  1.7603
 9721TIP3    H253359   1.073   3.771   4.245 -1.7706  1.2478 -1.4019
 9722TIP3   OH253360   3.065   1.681   4.463 -0.1864  0.4759  0.0229
 9722TIP3    H153361   3.088   1.661   4.372  3.6214  1.8180  0.5235
 9722TIP3    H253362   3.036   1.772   4.461  1.8940  1.1816  0.3557
 9723TIP3   OH253363   6.029   5.166   5.100 -0.6324  0.2372  0.4617
 9723TIP3    H153364   6.017   5.202   5.188 -1.6434  1.3667 -0.1072
 9723TIP3    H253365   5.991   5.078   5.105  1.9081 -0.8887  1.8806
 9724TIP3   OH253366   7.541   4.814   5.060  0.4321 -0.4772  0.2240
 9724TIP3    H153367   7.583   4.744   5.010  1.7508  0.4625 -0.0278
 9724TIP3    H253368   7.572   4.895   5.019 -2.1768  0.2990 -0.4273
 9725TIP3   OH253369   3.742   2.849   5.238  0.0820 -0.0129 -0.1856
 9725TIP3    H153370   3.745   2.840   5.143  1.4430 -0.5159 -0.1155
 9725TIP3    H253371   3.769   2.940   5.255 -0.3769  0.1430 -0.2863
 9726TIP3   OH253372   7.634   6.455   5.821  0.1752 -0.4369 -0.4477
 9726TIP3    H153373   7.632   6.376   5.875  1.8306 -0.8262 -0.9028
 9726TIP3    H253374   7.702   6.438   5.755 -0.3774  0.8295 -1.4036
 9727TIP3   OH253375   5.145   4.425   3.791 -0.2896  0.2450  0.6120
 9727TIP3    H153376   5.064   4.441   3.744  1.7311  0.7453 -3.0730
 9727TIP3    H253377   5.173   4.512   3.821 -0.6101  0.1936  1.0813
 9728TIP3   OH253378   4.696   5.036   6.580  0.3509  0.4428 -0.3001
 9728TIP3    H153379   4.605   5.045   6.607  0.0994  0.6283 -1.1983
 9728TIP3    H253380   4.741   5.110   6.621 -0.0766  0.8700 -0.6024
 9729TIP3   OH253381   4.067   5.657   4.449  0.4396  0.0144 -0.3991
 9729TIP3    H153382   4.079   5.608   4.368  2.9252 -0.6424  0.2989
 9729TIP3    H253383   4.036   5.592   4.512 -1.2708  0.4789 -0.7011
 9730TIP3   OH253384   1.881   6.531   3.921  0.4204 -0.5167 -0.4475
 9730TIP3    H153385   1.950   6.491   3.973 -0.1501 -1.4157 -0.3604
 9730TIP3    H253386   1.801   6.513   3.970  0.0209 -0.2470 -0.9888
 9731TIP3   OH253387   3.782   3.617   5.308  0.6229 -0.2101 -0.4359
 9731TIP3    H153388   3.819   3.619   5.220 -0.2758  0.2154 -0.8069
 9731TIP3    H253389   3.696   3.657   5.300  0.1208 -1.0599  0.4439
 9732TIP3   OH253390   0.780   0.720   4.343 -0.5163  0.3734 -1.0211
 9732TIP3    H153391   0.743   0.637   4.373  1.7240 -0.7003 -0.9599
 9732TIP3    H253392   0.849   0.694   4.282 -0.8492  2.2904 -2.3215
 9733TIP3   OH253393   0.814   7.157   6.925 -0.0560 -0.4995  0.1397
 9733TIP3    H153394   0.758   7.089   6.963 -1.0849  0.1029 -0.2492
 9733TIP3    H253395   0.861   7.112   6.854  0.3938 -1.1513  0.8388
 9734TIP3   OH253396   5.566   6.533   3.744 -0.2172 -0.0107  0.5007
 9734TIP3    H153397   5.653   6.511   3.709 -0.2909 -1.6997  1.3035
 9734TIP3    H253398   5.560   6.484   3.826 -2.0845 -0.2443  0.2602
 9735TIP3   OH253399   0.049   3.997   4.221  0.4197  0.1411 -0.0870
 9735TIP3    H153400   0.000   3.941   4.281 -0.3523  0.5440 -0.3144
 9735TIP3    H253401   0.128   3.948   4.201  0.5829 -0.1043  1.0701
 9736TIP3   OH253402   7.646   5.711   5.517  0.5041 -0.2010 -0.2891
 9736TIP3    H153403   7.721   5.688   5.573  1.2046  1.6934 -0.3782
 9736TIP3    H253404   7.681   5.713   5.429  0.0571 -0.4826 -0.4762
 9737TIP3   OH253405   4.970   6.503   6.047 -0.2877 -0.1584 -0.6969
 9737TIP3    H153406   4.920   6.424   6.027 -0.5614 -0.5397  1.2964
 9737TIP3    H253407   4.952   6.521   6.139  2.3920  0.3065 -0.1690
 9738TIP3   OH253408   4.209   4.104   6.454 -0.5036 -0.4181  0.2978
 9738TIP3    H153409   4.126   4.149   6.470  0.1299  0.1443  2.2520
 9738TIP3    H253410   4.273   4.174   6.443 -0.4243 -0.8076 -2.5392
 9739TIP3   OH253411   6.772   1.930   5.566 -0.4652  0.7989 -0.1645
 9739TIP3    H153412   6.852   1.920   5.617  0.8553  0.5287 -2.1615
 9739TIP3    H253413   6.738   1.841   5.557  0.1611  0.6359 -1.0243
 9740TIP3   OH253414   2.342   4.731   5.854 -0.1043  0.0028  0.1325
 9740TIP3    H153415   2.385   4.677   5.788 -0.1932  0.8060 -0.6087
 9740TIP3    H253416   2.356   4.685   5.936  1.9165  0.0949 -0.1257
 9741TIP3   OH253417   6.033   1.944   4.313  0.4363 -0.0311  0.0179
 9741TIP3    H153418   5.941   1.951   4.340  0.5735 -0.2853  0.5560
 9741TIP3    H253419   6.050   1.850   4.307  0.0414 -0.0211 -2.2771
 9742TIP3   OH253420   1.246   3.850   5.784  0.0244  0.0754  0.0574
 9742TIP3    H153421   1.277   3.763   5.811 -2.3442 -0.8658  0.0888
 9742TIP3    H253422   1.250   3.903   5.864  0.1861 -0.4232  0.3883
 9743TIP3   OH253423   7.515   1.865   5.968  0.3361  1.1440  0.1245
 9743TIP3    H153424   7.519   1.853   5.873 -3.1205  0.2001 -0.0296
 9743TIP3    H253425   7.540   1.780   6.004 -2.1013  0.2045 -0.1856
 9744TIP3   OH253426   2.737   0.319   5.237  0.3828  0.1551  0.2078
 9744TIP3    H153427   2.781   0.365   5.165 -0.3791  3.7251  1.8072
 9744TIP3    H253428   2.645   0.317   5.211  0.5112 -1.4100 -0.2312
 9745TIP3   OH253429   3.573   2.626   5.300  0.9376  0.0407 -0.0836
 9745TIP3    H153430   3.498   2.680   5.275  0.6386  0.3624  1.3635
 9745TIP3    H253431   3.647   2.686   5.301  0.4988  0.6474  2.1066
 9746TIP3   OH253432   1.011   2.734   4.505  0.5486 -0.1860  0.1594
 9746TIP3    H153433   0.929   2.701   4.541  0.5449  1.0946  1.4408
 9746TIP3    H253434   1.040   2.800   4.568  1.2461  1.2289 -1.5398
 9747TIP3   OH253435   4.304   5.172   3.885  0.2971  0.6312  0.3107
 9747TIP3    H153436   4.326   5.264   3.900  1.2338  0.5779 -0.6875
 9747TIP3    H253437   4.324   5.129   3.968  2.1580  0.9278  0.0518
 9748TIP3   OH253438   4.089   7.445   4.042  0.1631 -0.0479  0.1781
 9748TIP3    H153439   4.000   7.465   4.072  0.2629  0.0755  0.3931
 9748TIP3    H253440   4.088   7.350   4.027  0.6225 -0.4640  2.3775
 9749TIP3   OH253441   1.184   1.756   6.452  0.8917  0.1681  0.7033
 9749TIP3    H153442   1.149   1.776   6.539  3.1921  1.0549  1.4906
 9749TIP3    H253443   1.140   1.819   6.394 -0.7105 -0.4697  1.1664
 9750TIP3   OH253444   7.153   7.228   5.092  0.0239 -0.5672  0.3378
 9750TIP3    H153445   7.079   7.280   5.123 -1.0818 -1.8142 -0.0892
 9750TIP3    H253446   7.226   7.289   5.089 -0.0659 -0.0544  4.1106
 9751TIP3   OH253447   5.866   2.227   5.755 -0.3371 -0.7089  0.5241
 9751TIP3    H153448   5.911   2.165   5.813  0.2898  0.6661  1.5662
 9751TIP3    H253449   5.896   2.313   5.785 -0.1924  0.0678 -1.7195
 9752TIP3   OH253450   2.324   3.534   6.084  0.1683 -0.0052  0.2586
 9752TIP3    H153451   2.403   3.498   6.124 -0.0081 -1.5769 -0.7077
 9752TIP3    H253452   2.266   3.552   6.158  1.2982  0.9115  0.9563
 9753TIP3   OH253453   3.156   1.928   3.811 -0.1578 -0.3865  0.1702
 9753TIP3    H153454   3.226   1.978   3.770 -0.3552 -1.7679 -1.9980
 9753TIP3    H253455   3.197   1.884   3.885  1.9479 -2.8196 -2.2025
 9754TIP3   OH253456   2.388   1.213   6.174 -0.3384 -0.1255 -0.0342
 9754TIP3    H153457   2.332   1.279   6.215  0.5342 -0.2107  1.3266
 9754TIP3    H253458   2.351   1.129   6.201 -0.7404 -0.2044 -0.7963
 9755TIP3   OH253459   0.027   5.313   4.169 -0.2396  0.0264 -0.4686
 9755TIP3    H153460  -0.036   5.293   4.100 -0.6682  0.6374 -0.2601
 9755TIP3    H253461   0.098   5.359   4.125 -0.6271  0.6360 -0.4767
 9756TIP3   OH253462   2.483   5.002   4.652  0.2913  0.0605 -0.0897
 9756TIP3    H153463   2.392   5.024   4.670  0.4734  0.3189  0.5445
 9756TIP3    H253464   2.479   4.919   4.604 -0.3908  1.2117 -2.1247
 9757TIP3   OH253465   6.976   1.857   4.340 -0.1096  0.0872 -0.7175
 9757TIP3    H153466   6.993   1.932   4.283 -0.6867  0.2414 -0.6907
 9757TIP3    H253467   7.003   1.887   4.427 -0.3720  0.2742 -0.7009
 9758TIP3   OH253468   5.417   1.407   6.520  0.3944 -0.2707  0.9886
 9758TIP3    H153469   5.350   1.466   6.554  0.6010 -0.5598  1.9501
 9758TIP3    H253470   5.499   1.456   6.529  0.2359  0.4326 -1.0336
 9759TIP3   OH253471   5.128   5.265   5.212 -0.6663  0.1755 -0.2171
 9759TIP3    H153472   5.194   5.197   5.224 -0.4484  0.5381  0.7467
 9759TIP3    H253473   5.110   5.265   5.118 -1.6647 -2.1455 -0.0959
 9760TIP3   OH253474   0.275   5.737   4.255 -0.6510 -0.2674 -0.4897
 9760TIP3    H153475   0.251   5.735   4.163 -1.5765 -1.9837 -0.2583
 9760TIP3    H253476   0.213   5.798   4.295  0.2980  1.1476 -1.1010
 9761TIP3   OH253477   1.675   6.451   5.356  0.4275 -0.3425  0.0728
 9761TIP3    H153478   1.715   6.462   5.443  2.1438 -0.3816 -0.6731
 9761TIP3    H253479   1.723   6.511   5.300 -1.7297  0.8780 -0.5944
 9762TIP3   OH253480   0.781   3.113   5.973  0.3578  0.0373  0.7247
 9762TIP3    H153481   0.870   3.092   5.999  0.6054 -0.1346 -0.2199
 9762TIP3    H253482   0.745   3.162   6.047  1.4931  0.8058  0.7934
 9763TIP3   OH253483   1.561   6.713   3.829 -0.3831 -0.0723  0.1865
 9763TIP3    H153484   1.639   6.769   3.824 -0.2113 -0.0339  2.2499
 9763TIP3    H253485   1.534   6.700   3.738 -0.6706  3.6595 -0.4019
 9764TIP3   OH253486   1.970   5.162   5.667  0.3784 -0.3803  0.8097
 9764TIP3    H153487   1.962   5.072   5.636 -0.7070 -0.7014  1.9230
 9764TIP3    H253488   1.895   5.173   5.725 -0.2231  1.6497 -0.2620
 9765TIP3   OH253489   5.435   6.046   4.162 -0.7188  0.2414 -0.2737
 9765TIP3    H153490   5.454   6.087   4.246  0.1906 -0.7093 -0.0023
 9765TIP3    H253491   5.349   6.007   4.173  0.0701 -1.2889  0.7916
 9766TIP3   OH253492   6.719   4.036   6.628 -0.3984  0.2931  0.1510
 9766TIP3    H153493   6.735   3.951   6.667 -2.0073  0.6124  1.6196
 9766TIP3    H253494   6.627   4.055   6.648  0.1006  2.6738  0.4777
 9767TIP3   OH253495   6.598   6.980   3.987 -0.0434  0.2187  0.0629
 9767TIP3    H153496   6.592   6.961   3.893  0.9158 -1.6121  0.3213
 9767TIP3    H253497   6.597   7.075   3.992 -0.9336  0.3463 -1.7402
 9768TIP3   OH253498   2.020   1.422   4.616 -0.2844  0.1590 -0.0232
 9768TIP3    H153499   2.035   1.445   4.708 -1.4457 -1.8534  0.7392
 9768TIP3    H253500   2.016   1.326   4.615  0.2265  0.0976 -2.2798
 9769TIP3   OH253501   0.447   5.650   5.887 -0.1501 -0.4614  0.3676
 9769TIP3    H153502   0.509   5.655   5.815  2.6928  2.8216  2.6697
 9769TIP3    H253503   0.485   5.586   5.948 -0.8506 -0.8970  0.3623
 9770TIP3   OH253504   2.334   2.209   5.501  0.3367 -0.2001 -0.6074
 9770TIP3    H153505   2.301   2.278   5.444 -2.7039 -1.2074 -0.2787
 9770TIP3    H253506   2.289   2.223   5.584  1.2764 -1.3496  0.1320
 9771TIP3   OH253507   7.112   3.456   5.872  0.0301 -0.6490 -0.0258
 9771TIP3    H153508   7.158   3.510   5.936  0.4838 -2.3269  1.1527
 9771TIP3    H253509   7.021   3.456   5.902  0.1419 -0.9998  0.3239
 9772TIP3   OH253510   2.048   0.279   6.498 -0.0963  0.8385  0.3763
 9772TIP3    H153511   2.016   0.271   6.408  0.8729 -1.0427  0.1546
 9772TIP3    H253512   1.974   0.251   6.552  0.6112 -2.2288 -0.0760
 9773TIP3   OH253513   2.254   3.196   4.130  0.1289 -0.1016 -0.1462
 9773TIP3    H153514   2.263   3.272   4.187  0.6985 -0.4628  0.2558
 9773TIP3    H253515   2.160   3.176   4.131 -0.0140  0.5562 -0.2139
 9774TIP3   OH253516   6.449   1.776   5.574  0.1500  0.4973  0.2182
 9774TIP3    H153517   6.430   1.826   5.654  1.1277  0.3888  0.5265
 9774TIP3    H253518   6.485   1.693   5.606 -1.4591 -0.4462 -0.2842
 9775TIP3   OH253519   2.955   6.739   3.662 -0.0819  0.3451 -0.8649
 9775TIP3    H153520   2.962   6.663   3.719 -0.4539  1.1011  0.2206
 9775TIP3    H253521   3.030   6.731   3.602  0.7302 -0.0964  0.1848
 9776TIP3   OH253522   4.759   4.618   6.830  0.2134 -0.3495 -0.2437
 9776TIP3    H153523   4.666   4.611   6.811 -0.0565  0.2291  0.7785
 9776TIP3    H253524   4.789   4.527   6.839  0.2946 -0.6598 -2.9175
 9777TIP3   OH253525   7.642   7.164   4.936 -0.0464 -0.0083 -0.7560
 9777TIP3    H153526   7.643   7.091   4.874  1.1268 -0.1122 -0.6353
 9777TIP3    H253527   7.645   7.243   4.882  0.3327 -0.0852 -0.8455
 9778TIP3   OH253528   2.313   1.584   4.906  0.4218 -0.0133  0.0624
 9778TIP3    H153529   2.249   1.520   4.875  0.1405  0.5302 -0.5183
 9778TIP3    H253530   2.336   1.634   4.828  0.9042  0.3559  0.4378
 9779TIP3   OH253531   1.448   1.968   5.167  0.0760  0.4847 -0.1307
 9779TIP3    H153532   1.524   1.939   5.219  0.7282  2.5997  0.1653
 9779TIP3    H253533   1.413   1.887   5.131 -1.1203 -1.3451  4.4321
 9780TIP3   OH253534   5.175   5.998   4.431 -0.4392  0.5236  0.2091
 9780TIP3    H153535   5.255   6.049   4.438 -0.2102  0.1121  0.6793
 9780TIP3    H253536   5.150   6.005   4.339  0.3107  0.3966 -0.0116
 9781TIP3   OH253537   0.908   0.749   4.761  0.6250 -0.3367  0.1982
 9781TIP3    H153538   0.838   0.695   4.798  0.2439 -0.6069 -0.8669
 9781TIP3    H253539   0.864   0.802   4.694  1.1016  0.8838  0.8053
 9782TIP3   OH253540   1.004   4.427   5.877 -0.0544  0.0813  0.7463
 9782TIP3    H153541   1.010   4.523   5.877  2.2184 -0.0022  0.6584
 9782TIP3    H253542   0.913   4.408   5.853 -0.3667  2.1927  0.0810
 9783TIP3   OH253543   6.179   6.041   4.472  0.4795 -0.4096 -0.0275
 9783TIP3    H153544   6.236   6.011   4.542  0.2980 -0.4279  0.1117
 9783TIP3    H253545   6.236   6.046   4.395  0.8889  0.4671  0.3116
 9784TIP3   OH253546   3.708   3.876   4.092  0.0288 -0.6840 -0.0753
 9784TIP3    H153547   3.716   3.870   4.187  1.9235  1.1138 -0.0550
 9784TIP3    H253548   3.675   3.964   4.076  0.8643 -0.5299 -1.0982
 9785TIP3   OH253549   0.852   4.606   3.842 -0.1881 -0.3564 -0.6510
 9785TIP3    H153550   0.827   4.698   3.839 -0.2428 -0.3827 -1.1541
 9785TIP3    H253551   0.816   4.569   3.761  0.4013 -0.6690 -0.7753
 9786TIP3   OH253552   3.576   2.377   3.861  0.5931 -0.1804 -0.1444
 9786TIP3    H153553   3.527   2.394   3.942  0.2408 -0.4758 -0.2934
 9786TIP3    H253554   3.634   2.304   3.883  0.5997 -0.1666 -0.1155
 9787TIP3   OH253555   2.572   3.205   5.482 -0.2289 -0.1916 -0.0011
 9787TIP3    H153556   2.565   3.221   5.388  1.1437 -0.9486 -0.2665
 9787TIP3    H253557   2.639   3.137   5.490 -2.2418 -2.1695  1.3512
 9788TIP3   OH253558   5.727   6.779   4.252 -0.1090  0.2337  0.1905
 9788TIP3    H153559   5.716   6.729   4.170  0.1018  0.3081  0.1181
 9788TIP3    H253560   5.722   6.870   4.225 -1.0962  0.2601  0.3999
 9789TIP3   OH253561   5.726   6.956   5.412  0.1974 -0.6184 -0.3807
 9789TIP3    H153562   5.764   6.868   5.401 -2.9827 -2.2076  0.2945
 9789TIP3    H253563   5.701   6.982   5.324  0.0204 -0.9394 -0.4267
 9790TIP3   OH253564   1.806   7.293   4.056 -0.2530  0.2815 -0.0801
 9790TIP3    H153565   1.832   7.204   4.077  0.7942  0.5704 -0.1112
 9790TIP3    H253566   1.734   7.283   3.994  0.6508 -0.5419 -1.0300
 9791TIP3   OH253567   2.377   3.721   4.987  0.2229  0.2631  0.1159
 9791TIP3    H153568   2.407   3.683   5.070 -0.8081  0.0499  0.3952
 9791TIP3    H253569   2.290   3.755   5.006 -0.3161 -0.4224 -1.0719
 9792TIP3   OH253570   2.135   5.760   4.035 -0.0522 -0.1517 -0.6857
 9792TIP3    H153571   2.094   5.727   4.115  0.5935  0.8198  0.0691
 9792TIP3    H253572   2.137   5.684   3.977 -0.6226 -0.8577  0.1780
 9793TIP3   OH253573   7.108   2.628   5.766  0.1528 -0.3646  0.4528
 9793TIP3    H153574   7.057   2.607   5.688  0.2590 -1.9445  0.7744
 9793TIP3    H253575   7.048   2.614   5.839  0.6190 -0.8419  0.7523
 9794TIP3   OH253576   6.068   5.689   3.710 -0.3974  0.0421 -0.6697
 9794TIP3    H153577   6.104   5.765   3.663  0.5720  0.4849  0.7328
 9794TIP3    H253578   5.975   5.708   3.718 -0.4486  0.3257 -1.6906
 9795TIP3   OH253579   0.783   6.330   3.362 -0.1090 -0.5903  0.8778
 9795TIP3    H153580   0.776   6.376   3.446 -2.1066  0.7501  0.0549
 9795TIP3    H253581   0.692   6.307   3.340  0.5869 -2.7709  0.0446
 9796TIP3   OH253582   0.837   1.357   5.416  0.5338 -0.3915  0.0427
 9796TIP3    H153583   0.921   1.401   5.431  1.5246 -2.7908  2.4903
 9796TIP3    H253584   0.827   1.357   5.321  2.9458  0.6379 -0.2865
 9797TIP3   OH253585   4.292   4.668   5.093  0.0705 -0.1441 -1.1751
 9797TIP3    H153586   4.298   4.682   4.998  0.8233  2.1177 -0.8596
 9797TIP3    H253587   4.382   4.652   5.120 -0.2260 -1.4010 -0.8962
 9798TIP3   OH253588   2.877   5.484   6.645  0.6256  0.1711 -0.3222
 9798TIP3    H153589   2.884   5.401   6.598  0.3275  1.1022 -2.0975
 9798TIP3    H253590   2.783   5.493   6.664  0.6356  0.1522 -0.2667
 9799TIP3   OH253591   2.280   6.083   5.334  0.1793 -0.2371  0.3849
 9799TIP3    H153592   2.194   6.050   5.358 -0.3062  0.5437 -0.2320
 9799TIP3    H253593   2.327   6.092   5.417  0.3465 -2.4496  0.5925
 9800TIP3   OH253594   5.230   6.367   5.862  0.1745 -0.6334  0.0561
 9800TIP3    H153595   5.298   6.360   5.796 -0.4237  1.1227 -0.7845
 9800TIP3    H253596   5.185   6.282   5.859  0.9506 -1.0280 -0.8851
 9801TIP3   OH253597   0.364   7.314   6.579 -0.1803  0.0779  0.3294
 9801TIP3    H153598   0.422   7.330   6.653 -1.2237 -0.0912  1.1957
 9801TIP3    H253599   0.392   7.378   6.513  1.4072 -0.4267  0.4685
 9802TIP3   OH253600   1.350   5.581   5.238  0.2783 -0.2675  0.1209
 9802TIP3    H153601   1.292   5.570   5.163  0.2771 -3.0200  0.4171
 9802TIP3    H253602   1.399   5.660   5.219 -2.9070  1.7444 -0.5430
 9803TIP3   OH253603   2.572   7.568   5.851  0.6102 -0.3620  0.5445
 9803TIP3    H153604   2.499   7.549   5.910 -1.6569  2.8402 -0.9007
 9803TIP3    H253605   2.617   7.642   5.893 -0.2538  1.0972 -0.9584
 9804TIP3   OH253606   5.105   2.424   3.755  0.2768  0.0485  0.5777
 9804TIP3    H153607   5.040   2.366   3.714  0.3591  0.0027  0.5113
 9804TIP3    H253608   5.147   2.370   3.822  1.2294 -0.3654 -0.3233
 9805TIP3   OH253609   0.805   4.157   4.639  0.7133  0.4725  0.2349
 9805TIP3    H153610   0.762   4.227   4.590 -2.7299 -1.8314 -0.3844
 9805TIP3    H253611   0.866   4.118   4.576  0.3866  0.9661 -0.3951
 9806TIP3   OH253612   0.446   6.130   5.577 -0.1401  0.2977 -0.4459
 9806TIP3    H153613   0.362   6.158   5.613 -0.4301 -0.4047 -0.5577
 9806TIP3    H253614   0.510   6.190   5.614 -0.6081  0.4183  0.1722
 9807TIP3   OH253615   2.460   5.352   4.447  0.0443  0.2268 -0.1301
 9807TIP3    H153616   2.499   5.421   4.500 -0.6801  0.3419  0.2597
 9807TIP3    H253617   2.372   5.383   4.428 -0.7859 -1.1730  1.1903
 9808TIP3   OH253618   1.181   2.054   6.299 -0.0027 -0.4927 -0.0667
 9808TIP3    H153619   1.095   2.023   6.270  0.0597 -0.2185 -0.5573
 9808TIP3    H253620   1.162   2.109   6.375 -0.3748  0.4881 -0.8480
 9809TIP3   OH253621   2.354   1.279   4.408 -0.0112  0.3197  0.0729
 9809TIP3    H153622   2.349   1.251   4.499 -0.2613  0.2780  0.0464
 9809TIP3    H253623   2.374   1.199   4.359 -1.3779  0.0500 -0.0766
 9810TIP3   OH253624   6.835   5.974   4.404  0.1403  0.1996  0.8921
 9810TIP3    H153625   6.866   5.886   4.421  0.3743 -0.3561 -1.8467
 9810TIP3    H253626   6.751   5.962   4.360  0.8385  1.2180 -0.8376
 9811TIP3   OH253627   3.108   5.517   5.284 -0.3367  0.8603  0.2679
 9811TIP3    H153628   3.081   5.558   5.366  0.0749  0.6279  0.5210
 9811TIP3    H253629   3.030   5.522   5.228 -0.2510  2.1492  0.2251
 9812TIP3   OH253630   5.834   7.272   5.845  0.5276  0.5644 -0.2825
 9812TIP3    H153631   5.886   7.284   5.766 -2.5816  3.2976 -2.2120
 9812TIP3    H253632   5.877   7.327   5.910  2.6016 -0.9782 -0.2390
 9813TIP3   OH253633   0.671   4.753   3.619 -0.0401  0.0790  0.1116
 9813TIP3    H153634   0.641   4.664   3.601  0.1294  0.0886 -0.2193
 9813TIP3    H253635   0.698   4.787   3.534 -1.7492  1.0783 -0.0816
 9814TIP3   OH253636   5.170   1.559   6.393  0.2642 -0.0018 -0.0338
 9814TIP3    H153637   5.076   1.551   6.379 -0.0096 -0.1213  1.6735
 9814TIP3    H253638   5.205   1.472   6.373 -0.1607 -0.2904  0.4476
 9815TIP3   OH253639   2.215   5.432   4.355  0.0111  0.2419 -0.2592
 9815TIP3    H153640   2.177   5.497   4.294  0.4284  1.5327  0.8028
 9815TIP3    H253641   2.141   5.376   4.378  0.1735 -1.4365 -3.2651
 9816TIP3   OH253642   1.107   4.840   4.603 -0.2113 -0.6517  0.1371
 9816TIP3    H153643   1.137   4.928   4.582  0.8427 -0.9453  0.3564
 9816TIP3    H253644   1.186   4.786   4.599 -0.7693 -1.5103  0.4331
 9817TIP3   OH253645   7.005   2.780   4.838  0.2370  0.4902  0.3494
 9817TIP3    H153646   7.011   2.709   4.774 -2.3324 -1.0668  1.6303
 9817TIP3    H253647   7.009   2.860   4.787  1.0406 -0.6359 -1.4210
 9818TIP3   OH253648   6.272   6.902   5.803 -0.1897  0.6418 -0.1977
 9818TIP3    H153649   6.227   6.853   5.734 -0.4498 -0.4322  0.6901
 9818TIP3    H253650   6.364   6.878   5.794 -0.0370  1.4583 -0.9151
 9819TIP3   OH253651   1.791   1.516   4.926  0.0040 -0.3736 -0.3610
 9819TIP3    H153652   1.742   1.463   4.862  0.4890 -0.4999 -0.6360
 9819TIP3    H253653   1.813   1.454   4.995  1.4545 -0.7980 -1.1660
 9820TIP3   OH253654   0.394   2.427   5.383  0.0163 -0.4066  0.0950
 9820TIP3    H153655   0.329   2.426   5.312  0.2189 -3.1317 -0.1845
 9820TIP3    H253656   0.363   2.359   5.444  1.8617 -0.7798  0.6735
 9821TIP3   OH253657   0.730   3.180   5.471 -0.3455 -0.8955 -0.3216
 9821TIP3    H153658   0.671   3.109   5.447  2.2521 -3.1065 -0.4947
 9821TIP3    H253659   0.735   3.175   5.567 -1.3248  0.1366 -0.1808
 9822TIP3   OH253660   5.182   3.500   5.700  0.0465  0.0545  0.6494
 9822TIP3    H153661   5.165   3.498   5.794 -1.6021  1.9009  0.4653
 9822TIP3    H253662   5.134   3.576   5.669  1.6188  0.2561 -1.5164
 9823TIP3   OH253663   7.402   7.460   6.422 -0.1396 -0.3140 -0.0726
 9823TIP3    H153664   7.488   7.492   6.449  0.2192 -1.1111 -0.2439
 9823TIP3    H253665   7.343   7.490   6.491  0.6633 -1.8320  1.3568
 9824TIP3   OH253666   4.654   6.243   4.211  0.5284 -0.5292 -0.5017
 9824TIP3    H153667   4.674   6.178   4.144 -2.0489 -1.4789 -0.4656
 9824TIP3    H253668   4.580   6.292   4.175 -1.2991 -1.4275  1.7844
 9825TIP3   OH253669   3.357   3.493   5.052  0.9473  0.2872  0.1033
 9825TIP3    H153670   3.279   3.527   5.097  0.7150  1.0540 -0.8401
 9825TIP3    H253671   3.322   3.447   4.976  1.4076  0.5908 -0.2943
 9826TIP3   OH253672   1.313   6.246   5.695  0.3450 -0.3486  0.1087
 9826TIP3    H153673   1.340   6.310   5.629  0.0673  0.4351  0.7375
 9826TIP3    H253674   1.359   6.272   5.775  1.2823 -1.7518  0.0498
 9827TIP3   OH253675   4.521   1.046   5.832 -0.1365 -0.2328  0.3275
 9827TIP3    H153676   4.551   1.121   5.780 -0.1482 -0.4837 -0.0459
 9827TIP3    H253677   4.438   1.021   5.792  0.0932 -0.7344  0.1579
 9828TIP3   OH253678   1.483   7.539   4.883  0.6744 -0.2601 -0.0380
 9828TIP3    H153679   1.558   7.544   4.824  1.2056  0.2960  0.6754
 9828TIP3    H253680   1.477   7.447   4.907  1.4166 -0.2362  0.2600
 9829TIP3   OH253681   1.478   4.161   6.340  0.2042  0.2152 -0.1039
 9829TIP3    H153682   1.545   4.168   6.272  1.6032 -0.3404  1.1806
 9829TIP3    H253683   1.519   4.111   6.410 -1.2869  0.5612  1.0704
 9830TIP3   OH253684   5.417   5.794   6.542  0.0696  0.3923 -0.3901
 9830TIP3    H153685   5.442   5.841   6.622  0.0780  1.9845 -1.2982
 9830TIP3    H253686   5.325   5.772   6.555  0.7614 -1.9845  1.2697
 9831TIP3   OH253687   5.879   3.594   5.118 -0.3336  0.0604 -0.3111
 9831TIP3    H153688   5.970   3.598   5.087  0.2095 -0.5620  1.0852
 9831TIP3    H253689   5.848   3.685   5.114  0.3956  0.3032 -0.6711
 9832TIP3   OH253690   0.868   0.354   3.970  0.1152  0.3076 -0.4842
 9832TIP3    H153691   0.917   0.435   3.956  1.3902 -0.5720 -1.2661
 9832TIP3    H253692   0.934   0.286   3.973 -0.9786 -0.7800 -0.3027
 9833TIP3   OH253693   3.665   5.203   4.719  0.0754  0.1835  0.1255
 9833TIP3    H153694   3.723   5.197   4.795  0.5422 -0.7483 -0.2959
 9833TIP3    H253695   3.685   5.289   4.681  0.7286  0.1398  0.3498
 9834TIP3   OH253696   1.730   3.108   3.687 -0.4882 -0.0745  0.1759
 9834TIP3    H153697   1.677   3.033   3.714 -1.7706  0.5615 -0.4745
 9834TIP3    H253698   1.682   3.146   3.613  1.0252  0.3756 -0.6211
 9835TIP3   OH253699   6.331   7.439   6.407 -0.2493 -0.2452  0.3339
 9835TIP3    H153700   6.420   7.417   6.376 -0.7799 -0.8025 -0.8611
 9835TIP3    H253701   6.310   7.520   6.361 -1.5060 -1.6996 -1.7971
 9836TIP3   OH253702   0.697   4.835   5.085  0.6089  0.5485  0.5828
 9836TIP3    H153703   0.778   4.787   5.099  1.0592  1.2651  0.4705
 9836TIP3    H253704   0.661   4.798   5.004  0.2083 -0.5847  1.2557
 9837TIP3   OH253705   2.857   6.012   4.266 -0.1935  0.2005  0.0218
 9837TIP3    H153706   2.866   6.084   4.329  0.3029  0.5930 -0.4818
 9837TIP3    H253707   2.920   5.946   4.297 -0.3105  0.1812  0.2196
 9838TIP3   OH253708   6.844   3.997   6.204  0.2310 -0.8517 -0.0693
 9838TIP3    H153709   6.801   3.939   6.266  1.2697 -1.8061 -0.2021
 9838TIP3    H253710   6.916   4.036   6.253  0.5443 -0.9557 -0.4373
 9839TIP3   OH253711   4.389   4.450   5.554 -0.3502  0.1688  0.4118
 9839TIP3    H153712   4.328   4.445   5.628 -0.6632 -3.1742  0.1018
 9839TIP3    H253713   4.335   4.475   5.480 -0.6176  0.6664  0.7672
 9840TIP3   OH253714   1.630   1.776   4.322 -0.2363 -0.6330  0.3014
 9840TIP3    H153715   1.559   1.712   4.327 -0.8276 -0.2235 -1.7967
 9840TIP3    H253716   1.591   1.857   4.354 -1.8609  0.3785 -3.6468
 9841TIP3   OH253717   7.371   5.531   6.527  0.4939 -0.5749 -0.4440
 9841TIP3    H153718   7.356   5.625   6.520  1.4065 -0.4564 -0.9598
 9841TIP3    H253719   7.298   5.499   6.580 -0.1489  0.3293 -0.7596
 9842TIP3   OH253720   0.548   2.204   5.269  0.5955  0.7017 -0.3613
 9842TIP3    H153721   0.475   2.242   5.222 -1.5655 -0.2197  2.0117
 9842TIP3    H253722   0.583   2.276   5.322 -1.0277  0.3659  1.2493
 9843TIP3   OH253723   6.215   2.266   5.904  0.4184  0.1347 -0.6558
 9843TIP3    H153724   6.193   2.237   5.815 -0.7851 -1.6885  0.1975
 9843TIP3    H253725   6.140   2.240   5.957  0.6997  2.0304  0.7720
 9844TIP3   OH253726   5.285   7.615   4.175 -0.0383 -0.8391 -0.3683
 9844TIP3    H153727   5.264   7.708   4.161  1.4571 -0.5887 -1.2063
 9844TIP3    H253728   5.334   7.614   4.258 -1.5111 -1.1472  0.5371
 9845TIP3   OH253729   6.444   3.075   4.917 -0.2359 -0.0347 -0.1077
 9845TIP3    H153730   6.523   3.114   4.956 -0.1755  0.0203 -0.2845
 9845TIP3    H253731   6.453   2.981   4.934 -0.3079  0.0114  0.1876
 9846TIP3   OH253732   3.159   5.144   4.847  0.2047 -0.3298  0.1456
 9846TIP3    H153733   3.233   5.176   4.795  0.3606 -0.3132  0.3795
 9846TIP3    H253734   3.197   5.119   4.931 -0.1942  0.5994  0.6240
 9847TIP3   OH253735   0.961   3.845   3.822  0.0934 -0.4592 -0.2988
 9847TIP3    H153736   0.889   3.907   3.839  0.4522  0.3090 -1.4816
 9847TIP3    H253737   0.919   3.767   3.787 -0.2484 -0.3651 -0.0975
 9848TIP3   OH253738   3.251   2.936   5.268 -0.3520 -0.2395  0.3588
 9848TIP3    H153739   3.220   2.859   5.316 -1.4270  0.1249  0.2691
 9848TIP3    H253740   3.292   2.990   5.336  1.0577 -1.1897  0.3083
 9849TIP3   OH253741   3.730   2.574   5.783  0.2626 -0.1907 -0.2491
 9849TIP3    H153742   3.680   2.512   5.731  1.2890  0.6478 -2.3569
 9849TIP3    H253743   3.808   2.526   5.810 -0.4601 -0.7492  0.9142
 9850TIP3   OH253744   1.028   3.016   5.801 -0.1501  0.0375  0.0526
 9850TIP3    H153745   1.033   2.970   5.884  0.2503  0.5466  0.3181
 9850TIP3    H253746   1.007   2.949   5.737 -0.4570 -0.3604  0.5648
 9851TIP3   OH253747   4.985   4.399   4.380  0.4596 -0.1154 -0.0090
 9851TIP3    H153748   4.993   4.313   4.422  2.0397 -1.2912 -2.4920
 9851TIP3    H253749   5.032   4.389   4.297  1.1963  3.3387 -0.1290
 9852TIP3   OH253750   7.120   3.716   5.501 -0.0273  0.1952 -0.5118
 9852TIP3    H153751   7.177   3.695   5.427  4.0370  0.8224  2.1130
 9852TIP3    H253752   7.091   3.631   5.535  1.3055 -0.3071 -0.5806
 9853TIP3   OH253753   4.479   4.951   4.479  0.0629  0.6474 -0.0166
 9853TIP3    H153754   4.460   4.869   4.433  1.5929 -1.0762  2.2179
 9853TIP3    H253755   4.573   4.946   4.499 -0.1900  2.0714  1.8209
 9854TIP3   OH253756   0.363   1.069   5.014 -0.2106  0.3130 -0.3138
 9854TIP3    H153757   0.320   1.068   4.928 -2.5867 -2.9026  0.7438
 9854TIP3    H253758   0.435   1.007   5.005 -0.1282  0.3824 -0.1345
 9855TIP3   OH253759   6.276   7.041   3.725  0.1833  0.6298 -0.4219
 9855TIP3    H153760   6.312   7.098   3.793  1.0112  0.1049 -0.3983
 9855TIP3    H253761   6.354   7.003   3.683 -0.3244  0.6010 -1.3613
 9856TIP3   OH253762   2.525   4.534   5.277  0.0444 -1.1603 -0.4746
 9856TIP3    H153763   2.505   4.445   5.307  0.4389 -2.1955 -3.0404
 9856TIP3    H253764   2.596   4.522   5.213 -1.2685  0.7262 -2.4077
 9857TIP3   OH253765   1.295   4.874   5.495 -0.1191  0.0294  0.4761
 9857TIP3    H153766   1.291   4.961   5.533 -3.1044 -0.3952  1.3422
 9857TIP3    H253767   1.215   4.866   5.444  1.0876 -1.5029 -1.3393
 9858TIP3   OH253768   1.899   4.984   4.414  0.3328 -0.2000 -0.0984
 9858TIP3    H153769   1.805   5.003   4.413  0.0614 -1.4788 -0.3979
 9858TIP3    H253770   1.905   4.892   4.438  1.5604  0.0328  0.5951
 9859TIP3   OH253771   4.603   2.107   3.712  0.0724 -0.6110  0.0455
 9859TIP3    H153772   4.605   2.088   3.806  1.7173 -0.0745  0.1472
 9859TIP3    H253773   4.685   2.072   3.679  0.7500  1.5348 -0.6900
 9860TIP3   OH253774   6.325   7.118   5.455 -0.1692 -0.4800 -0.4118
 9860TIP3    H153775   6.419   7.126   5.441  0.0463 -2.8669 -0.6068
 9860TIP3    H253776   6.293   7.209   5.453  1.7028  0.2439 -3.2384
 9861TIP3   OH253777   2.623   4.036   5.595  0.5397  0.0286  0.6693
 9861TIP3    H153778   2.642   3.983   5.517  0.9332 -0.8745  1.3686
 9861TIP3    H253779   2.660   3.987   5.668  0.6120  1.1065  1.3862
 9862TIP3   OH253780   1.704   1.042   4.957  0.6555  0.2480 -0.7229
 9862TIP3    H153781   1.709   0.983   5.032 -1.0970  1.3256  0.3190
 9862TIP3    H253782   1.613   1.035   4.927  0.3794  2.3952 -0.5332
 9863TIP3   OH253783   5.386   0.597   4.691  0.0951  0.2749 -0.0143
 9863TIP3    H153784   5.368   0.687   4.720  0.0817  0.6337 -1.0625
 9863TIP3    H253785   5.322   0.582   4.621 -1.0687 -1.2108  1.3075
 9864TIP3   OH253786   2.210   3.615   6.352  0.0404 -0.0823  0.3949
 9864TIP3    H153787   2.300   3.624   6.383 -0.0710  1.4435  0.3595
 9864TIP3    H253788   2.170   3.551   6.412  2.1023 -3.8286 -1.8826
 9865TIP3   OH253789   2.913   6.106   5.389  0.1015  0.0389 -0.1377
 9865TIP3    H153790   2.859   6.140   5.318  0.7153  1.8548  0.2249
 9865TIP3    H253791   2.895   6.012   5.390 -2.1660  0.4130 -0.7599
 9866TIP3   OH253792   2.462   0.492   4.098  0.1230 -0.4960  0.2719
 9866TIP3    H153793   2.379   0.489   4.050  0.8515  0.9640 -1.1631
 9866TIP3    H253794   2.525   0.526   4.035  1.8264 -1.5136  1.3577
 9867TIP3   OH253795   3.193   6.090   6.078 -0.1167 -0.1207 -0.3222
 9867TIP3    H153796   3.256   6.027   6.111  1.2694  1.3392 -0.0800
 9867TIP3    H253797   3.195   6.162   6.142 -1.5244  0.2658 -0.6774
 9868TIP3   OH253798   5.145   0.140   5.754  0.4212 -0.3303 -0.1041
 9868TIP3    H153799   5.069   0.184   5.793  0.6689 -1.2326  1.4953
 9868TIP3    H253800   5.106   0.067   5.704  0.1826 -0.3236  0.0670
 9869TIP3   OH253801   2.039   0.311   5.962 -0.4433  0.1490 -0.5469
 9869TIP3    H153802   2.125   0.301   5.920  0.1385 -0.8918  0.7890
 9869TIP3    H253803   2.044   0.395   6.006  0.5465 -0.5786  0.8337
 9870TIP3   OH253804   0.177   3.055   3.980  0.2042 -0.5367  0.0344
 9870TIP3    H153805   0.122   2.987   3.943 -1.3100  0.2460  0.7469
 9870TIP3    H253806   0.159   3.052   4.074  0.5455  0.4469  0.1466
 9871TIP3   OH253807   3.964   4.653   6.386  0.2986  0.3745 -0.1026
 9871TIP3    H153808   3.919   4.617   6.463 -0.2042 -1.7727 -1.3263
 9871TIP3    H253809   3.943   4.747   6.388 -0.3720  0.2317  1.9020
 9872TIP3   OH253810   1.879   0.635   6.267  0.1428 -0.8888 -0.4009
 9872TIP3    H153811   1.824   0.604   6.339  0.8776 -1.2175  0.0330
 9872TIP3    H253812   1.831   0.709   6.230 -0.2902 -0.7806  0.3616
 9873TIP3   OH253813   5.682   6.636   4.024  0.2730  0.6349 -0.4622
 9873TIP3    H153814   5.636   6.553   4.037 -0.1079  1.0068  0.7935
 9873TIP3    H253815   5.706   6.637   3.932 -1.6823  0.1372 -1.0166
 9874TIP3   OH253816   6.512   0.602   4.063 -0.5141  0.1020  0.0496
 9874TIP3    H153817   6.595   0.615   4.108 -0.7798 -0.3094  0.6738
 9874TIP3    H253818   6.472   0.689   4.059  0.0460  0.3389 -0.4617
 9875TIP3   OH253819   4.668   4.272   4.671  0.0865  0.0110  0.0602
 9875TIP3    H153820   4.734   4.340   4.656 -0.1284  0.1243 -0.3821
 9875TIP3    H253821   4.668   4.259   4.766 -0.3483  1.1018  0.2185
 9876TIP3   OH253822   7.633   7.576   6.480 -0.4023  0.1615  0.4250
 9876TIP3    H153823   7.691   7.638   6.523 -0.4288 -0.2415  1.0548
 9876TIP3    H253824   7.691   7.522   6.426 -0.4727  1.2589 -0.8030
 9877TIP3   OH253825   6.854   0.737   5.767 -0.2586 -0.8604 -0.4030
 9877TIP3    H153826   6.940   0.761   5.800 -1.3317  2.7339  0.1689
 9877TIP3    H253827   6.869   0.717   5.674  1.3042 -1.2904 -0.0815
 9878TIP3   OH253828   1.982   0.467   4.316  0.5267 -0.2433 -0.3893
 9878TIP3    H153829   1.969   0.422   4.233 -0.7406  1.0763 -0.9542
 9878TIP3    H253830   1.996   0.397   4.380  0.3639 -1.3331 -1.5124
 9879TIP3   OH253831   5.229   4.893   6.679 -0.0093 -0.0558  0.5440
 9879TIP3    H153832   5.257   4.832   6.611  1.9727  1.5119 -0.1599
 9879TIP3    H253833   5.136   4.876   6.691 -0.5433 -0.1921 -2.8074
 9880TIP3   OH253834   6.588   4.154   3.851  0.6693 -0.2275 -0.5668
 9880TIP3    H153835   6.571   4.092   3.780  0.2473  0.3263 -0.9541
 9880TIP3    H253836   6.514   4.144   3.911  1.1686 -0.9013 -0.0460
 9881TIP3   OH253837   4.450   7.488   5.391 -0.1220 -0.2965 -0.0581
 9881TIP3    H153838   4.477   7.468   5.301  0.2555 -0.8263  0.1660
 9881TIP3    H253839   4.416   7.577   5.387 -0.5804 -0.4981 -0.8246
 9882TIP3   OH253840   4.550   4.117   4.474  0.5060 -0.2677 -0.0991
 9882TIP3    H153841   4.457   4.128   4.455  0.8401  1.7755 -0.8899
 9882TIP3    H253842   4.569   4.185   4.538  1.5239 -0.3895 -0.2552
 9883TIP3   OH253843   6.327   7.353   4.838 -0.3208  0.2391 -0.1529
 9883TIP3    H153844   6.286   7.409   4.903 -0.1198  0.9636 -0.6437
 9883TIP3    H253845   6.320   7.265   4.875  0.2982  0.6947  1.0951
 9884TIP3   OH253846   6.249   4.002   3.807  0.5097 -0.1836 -0.1385
 9884TIP3    H153847   6.253   3.912   3.775 -0.3366 -0.0238 -0.7396
 9884TIP3    H253848   6.225   3.994   3.899  1.0431 -0.5884 -0.0293
 9885TIP3   OH253849   1.271   1.396   6.228  0.0332  0.1335  0.6136
 9885TIP3    H153850   1.202   1.350   6.180 -0.0392  1.3829 -0.5419
 9885TIP3    H253851   1.255   1.375   6.320 -1.1715 -0.5370  0.2708
 9886TIP3   OH253852   3.142   1.567   6.852 -0.4778 -0.6705  0.2293
 9886TIP3    H153853   3.206   1.625   6.809 -1.7799  0.0062 -0.8699
 9886TIP3    H253854   3.178   1.479   6.841 -0.5318 -0.4805 -1.9238
 9887TIP3   OH253855   2.575   3.884   4.273 -0.1747 -0.3466 -0.0595
 9887TIP3    H153856   2.589   3.922   4.359 -0.5338  0.2886 -0.2728
 9887TIP3    H253857   2.523   3.950   4.226 -0.3546 -0.8729 -0.6124
 9888TIP3   OH253858   5.666   0.956   5.122  0.0767  0.1901 -0.2849
 9888TIP3    H153859   5.627   1.043   5.117  1.8883  1.0929  0.4114
 9888TIP3    H253860   5.614   0.910   5.189 -0.9687  0.6703 -0.7517
 9889TIP3   OH253861   6.415   4.124   5.894  0.0713 -0.4199 -0.3134
 9889TIP3    H153862   6.500   4.116   5.937 -0.6308  0.8396  1.4035
 9889TIP3    H253863   6.356   4.071   5.947 -0.6429  0.4746 -0.1950
 9890TIP3   OH253864   5.163   7.531   6.096  0.2900 -0.1192 -0.1577
 9890TIP3    H153865   5.172   7.495   6.008 -0.5393  1.1307 -0.7822
 9890TIP3    H253866   5.069   7.542   6.109  0.4467  0.4976  0.5618
 9891TIP3   OH253867   6.237   7.216   4.195  0.0743  0.2799  0.3983
 9891TIP3    H153868   6.284   7.217   4.279  2.5382  1.4409 -0.8657
 9891TIP3    H253869   6.174   7.288   4.202 -1.1511 -0.8729  1.8969
 9892TIP3   OH253870   1.435   5.861   4.392 -0.2188  0.4623  0.3491
 9892TIP3    H153871   1.398   5.860   4.303 -2.5875  1.8563  1.2170
 9892TIP3    H253872   1.488   5.782   4.396 -3.3565 -1.9776 -1.0175
 9893TIP3   OH253873   2.384   6.255   6.600  0.0514  0.5140 -0.5524
 9893TIP3    H153874   2.355   6.346   6.602 -0.9296  0.2037  0.4333
 9893TIP3    H253875   2.348   6.219   6.519  1.2347  1.2231 -1.4291
 9894TIP3   OH253876   0.694   5.336   4.451 -0.2324 -0.1773 -0.3870
 9894TIP3    H153877   0.713   5.327   4.358  1.6347  2.5204 -0.3780
 9894TIP3    H253878   0.612   5.386   4.454 -0.0837  0.0760 -0.5737
 9895TIP3   OH253879   3.251   6.808   3.947  0.4677  0.2516 -0.0147
 9895TIP3    H153880   3.165   6.806   3.989 -0.7142 -1.6473 -2.2905
 9895TIP3    H253881   3.238   6.858   3.867  1.4167 -0.2526 -0.5033
 9896TIP3   OH253882   7.251   0.706   4.059 -0.6417 -0.1352 -0.0898
 9896TIP3    H153883   7.295   0.641   4.114  0.0978 -0.8615 -1.5086
 9896TIP3    H253884   7.159   0.678   4.058 -0.8101  0.2886  1.3093
 9897TIP3   OH253885   3.950   1.486   4.388  0.0174 -0.0217 -0.3855
 9897TIP3    H153886   3.943   1.426   4.463 -2.1687  1.3308  0.5906
 9897TIP3    H253887   3.980   1.568   4.426  0.3587  0.2594 -1.2577
 9898TIP3   OH253888   5.059   3.705   5.550  0.2799  0.2729  0.4467
 9898TIP3    H153889   5.091   3.783   5.503  0.5446  1.1236  1.9789
 9898TIP3    H253890   4.978   3.735   5.592 -0.7681 -0.9110 -0.6674
 9899TIP3   OH253891   4.624   5.862   6.025 -0.1074  0.1659 -0.1690
 9899TIP3    H153892   4.532   5.887   6.027  0.1433  1.2464 -1.1547
 9899TIP3    H253893   4.662   5.905   6.102 -0.1199  1.1206 -0.6695
 9900TIP3   OH253894   1.738   1.636   6.147  0.0925 -0.2106  0.2570
 9900TIP3    H153895   1.685   1.679   6.214  0.9255  2.1162 -0.4915
 9900TIP3    H253896   1.828   1.651   6.174  0.5452  2.5496 -2.2586
 9901TIP3   OH253897   3.515   3.503   4.200  0.3573  0.2479 -0.6455
 9901TIP3    H153898   3.532   3.582   4.251 -0.2434  0.7021 -1.1221
 9901TIP3    H253899   3.601   3.469   4.179  0.7204  1.9041 -2.1131
 9902TIP3   OH253900   4.975   1.228   6.248 -0.5677 -0.2181 -0.4923
 9902TIP3    H153901   5.051   1.219   6.305 -1.3528 -0.4238  0.5433
 9902TIP3    H253902   4.943   1.317   6.263  0.2168  0.3398 -1.9091
 9903TIP3   OH253903   3.605   3.212   4.634 -0.0191  0.5607  0.3593
 9903TIP3    H153904   3.596   3.163   4.716  1.9120  0.2216  0.4074
 9903TIP3    H253905   3.555   3.293   4.649 -2.7199 -0.9968  0.5145
 9904TIP3   OH253906   6.695   1.654   6.381  0.3693 -0.1134  0.3195
 9904TIP3    H153907   6.774   1.692   6.418 -0.0934  0.5627  0.6308
 9904TIP3    H253908   6.650   1.727   6.340  0.8848 -0.8488 -1.6427
 9905TIP3   OH253909   0.015   2.314   5.959 -0.0937  0.1124  0.1793
 9905TIP3    H153910   0.042   2.390   5.907 -2.9602 -0.7150 -2.8748
 9905TIP3    H253911  -0.059   2.346   6.011 -2.8627 -0.9149 -2.8647
 9906TIP3   OH253912   7.266   1.189   4.595  0.1750 -0.5236  0.0867
 9906TIP3    H153913   7.186   1.138   4.607  0.8315 -2.4709 -2.7241
 9906TIP3    H253914   7.336   1.124   4.590  1.4485  0.8413 -0.8413
 9907TIP3   OH253915   5.526   0.954   5.991 -0.0184 -0.2975 -0.0970
 9907TIP3    H153916   5.464   0.907   5.935 -0.5008  1.0185 -0.7084
 9907TIP3    H253917   5.483   1.038   6.009  0.8732 -0.0335  0.8481
 9908TIP3   OH253918   2.163   6.057   4.771  0.1889  0.1877  0.1669
 9908TIP3    H153919   2.126   6.027   4.854 -1.1324 -1.7807 -1.0576
 9908TIP3    H253920   2.103   6.125   4.741  0.4112  0.5695  0.5674
 9909TIP3   OH253921   7.442   1.173   4.847 -0.0868 -0.1989 -0.4648
 9909TIP3    H153922   7.444   1.266   4.827  0.5602 -0.2301 -0.5661
 9909TIP3    H253923   7.353   1.157   4.878  0.4120  0.9097  1.7295
 9910TIP3   OH253924   2.670   0.751   6.332 -0.1032  0.3153  0.1276
 9910TIP3    H153925   2.652   0.685   6.400  2.8768  1.4554  2.2422
 9910TIP3    H253926   2.757   0.728   6.300 -0.6755  0.9483 -2.0375
 9911TIP3   OH253927   2.659   0.127   5.965 -0.6239 -0.0807  0.1545
 9911TIP3    H153928   2.604   0.126   6.043 -3.4249  1.8100 -1.6002
 9911TIP3    H253929   2.692   0.217   5.960 -0.3470 -0.2197 -0.7508
 9912TIP3   OH253930   1.204   5.538   5.002 -0.4936  0.4047 -0.8900
 9912TIP3    H153931   1.127   5.574   4.957 -1.5289 -1.6022 -0.8718
 9912TIP3    H253932   1.251   5.489   4.934  0.4036  1.0316 -0.7390
 9913TIP3   OH253933   6.847   7.345   6.246  0.0785 -0.2686 -0.3956
 9913TIP3    H153934   6.814   7.322   6.159 -1.2933 -2.2039  0.5550
 9913TIP3    H253935   6.875   7.262   6.284 -1.8605  0.0242  1.9688
 9914TIP3   OH253936   7.512   5.558   4.190 -0.3282  0.5771 -0.3014
 9914TIP3    H153937   7.466   5.537   4.272  0.5817  0.7089  0.2559
 9914TIP3    H253938   7.595   5.511   4.197 -0.7869 -0.4910 -1.7559
 9915TIP3   OH253939   0.098   6.464   6.720  0.0929  0.3696  0.0566
 9915TIP3    H153940   0.075   6.464   6.627  0.8006  0.6959 -0.1247
 9915TIP3    H253941   0.190   6.438   6.722 -0.3353 -1.2412  0.7828
 9916TIP3   OH253942   6.039   7.059   4.013 -0.4081 -0.0153 -0.0155
 9916TIP3    H153943   6.064   7.109   3.936 -0.9745  1.3756  0.6586
 9916TIP3    H253944   6.114   7.066   4.072 -1.0038  1.3233  0.6528
 9917TIP3   OH253945   0.442   1.072   6.475  0.3213  0.0223  0.3228
 9917TIP3    H153946   0.413   0.986   6.505  0.4599 -0.1420 -0.0083
 9917TIP3    H253947   0.512   1.097   6.536 -0.4798  0.4106  1.1136
 9918TIP3   OH253948   4.184   1.982   4.718  0.2793  0.0539  0.2701
 9918TIP3    H153949   4.258   1.943   4.766  0.7847 -0.3610 -0.8114
 9918TIP3    H253950   4.225   2.046   4.660 -0.1711 -0.3691 -0.5372
 9919TIP3   OH253951   4.647   3.997   5.553  0.4913 -0.1493  0.3881
 9919TIP3    H153952   4.614   4.083   5.528  1.7653  0.2644  0.0312
 9919TIP3    H253953   4.598   3.974   5.632  0.3514  1.0535  0.6640
 9920TIP3   OH253954   1.329   5.407   4.802  0.4082 -0.1345  0.0110
 9920TIP3    H153955   1.305   5.432   4.713  1.5969  2.3933  0.3122
 9920TIP3    H253956   1.405   5.351   4.790  0.7225  0.3965 -0.5862
 9921TIP3   OH253957   5.756   3.229   5.476  0.4955 -0.6138 -0.2234
 9921TIP3    H153958   5.722   3.304   5.429  2.0863  0.0637 -0.3303
 9921TIP3    H253959   5.839   3.258   5.514  0.8748 -2.1322  0.2238
 9922TIP3   OH253960   0.670   1.930   4.437 -0.3106 -0.0960  0.1247
 9922TIP3    H153961   0.590   1.931   4.489 -0.5787 -0.1566 -0.2817
 9922TIP3    H253962   0.671   1.844   4.396 -0.0494 -0.0861  0.1051
 9923TIP3   OH253963   4.984   2.952   4.521 -0.5721 -0.1735  0.6449
 9923TIP3    H153964   4.906   2.899   4.504 -0.2638  0.0554 -1.9069
 9923TIP3    H253965   4.958   3.012   4.590 -2.2576 -0.9243  0.7171
 9924TIP3   OH253966   3.114   1.365   5.043  0.2885 -0.2586  0.7825
 9924TIP3    H153967   3.150   1.361   4.954  1.3025  1.2474  1.0871
 9924TIP3    H253968   3.139   1.281   5.082 -0.7131 -1.2080 -0.5115
 9925TIP3   OH253969   3.907   0.209   4.435  0.3685  0.1673  0.0472
 9925TIP3    H153970   3.915   0.194   4.341 -1.4038 -0.0460 -0.1004
 9925TIP3    H253971   3.933   0.300   4.448  1.3531 -0.0274 -0.5359
 9926TIP3   OH253972   6.490   6.069   5.285  0.4387 -0.4735 -0.0210
 9926TIP3    H153973   6.537   6.110   5.358 -1.0743 -1.0014  1.3059
 9926TIP3    H253974   6.457   6.143   5.234  0.3294 -0.0757  0.6192
 9927TIP3   OH253975   7.476   0.022   5.425  0.1631 -0.1651 -0.1177
 9927TIP3    H153976   7.517   0.107   5.442  0.8925 -0.2046 -1.5916
 9927TIP3    H253977   7.546  -0.042   5.441 -0.2967 -0.4888  0.6779
 9928TIP3   OH253978   5.070   3.305   4.134 -0.0169 -0.1353 -0.0439
 9928TIP3    H153979   5.060   3.363   4.209 -2.1414  0.3799 -0.6508
 9928TIP3    H253980   5.115   3.358   4.068 -0.5846  0.3329 -0.0635
 9929TIP3   OH253981   2.160   6.993   4.429  0.3243  0.0802 -0.7387
 9929TIP3    H153982   2.130   7.071   4.383  0.9020  0.5211 -0.3830
 9929TIP3    H253983   2.146   6.921   4.367 -2.0126  0.1455 -0.3939
 9930TIP3   OH253984   3.883   4.650   5.205 -0.1974 -0.7700 -0.4617
 9930TIP3    H153985   3.932   4.593   5.145 -0.3847 -0.5933 -0.7872
 9930TIP3    H253986   3.798   4.662   5.163  0.3394  0.9556 -1.1616
 9931TIP3   OH253987   5.869   2.693   4.047 -0.1674  0.0792  0.5495
 9931TIP3    H153988   5.822   2.721   4.125 -2.1213 -0.2078 -0.4797
 9931TIP3    H253989   5.834   2.606   4.027  0.7001 -0.0931 -0.3430
 9932TIP3   OH253990   3.596   1.222   5.823  0.3018  0.3729  0.2042
 9932TIP3    H153991   3.548   1.305   5.818  0.8534  0.7714  1.1665
 9932TIP3    H253992   3.624   1.216   5.914  0.0265 -1.0261  0.2182
 9933TIP3   OH253993   5.251   0.615   5.477  0.0820  0.3220  0.0457
 9933TIP3    H153994   5.328   0.606   5.534 -0.7672 -0.2432  1.1518
 9933TIP3    H253995   5.280   0.582   5.392  1.0794  0.1666  0.4262
 9934TIP3   OH253996   4.797   1.859   4.814 -0.1739  0.0328  0.0520
 9934TIP3    H153997   4.704   1.880   4.806  0.1568  1.5044 -0.1910
 9934TIP3    H253998   4.817   1.806   4.737 -0.4156  1.2691 -0.8877
 9935TIP3   OH253999   0.071   3.364   5.336  0.3320 -0.3791 -0.5215
 9935TIP3    H154000   0.143   3.317   5.378 -0.7778 -0.4745  1.3919
 9935TIP3    H254001   0.091   3.456   5.352 -2.1443 -0.3490  4.3564
 9936TIP3   OH254002   4.191   3.356   6.029  0.2557 -0.3337  0.5465
 9936TIP3    H154003   4.273   3.406   6.035  0.4813 -0.7913  1.5515
 9936TIP3    H254004   4.198   3.291   6.099 -0.1840 -1.5549 -0.5196
 9937TIP3   OH254005   3.225   4.746   4.082  1.1176  0.0802  0.7825
 9937TIP3    H154006   3.240   4.652   4.093  1.6996  0.1899  0.9312
 9937TIP3    H254007   3.312   4.784   4.072  0.9423  0.7058  1.5282
 9938TIP3   OH254008   3.405   5.472   5.270 -0.3806 -0.1676  0.1181
 9938TIP3    H154009   3.415   5.556   5.225  1.0538  1.4635  3.1350
 9938TIP3    H254010   3.312   5.467   5.291 -0.6743  0.0814 -1.0349
 9939TIP3   OH254011   0.170   0.133   5.230  0.8002 -0.3632 -0.2327
 9939TIP3    H154012   0.233   0.063   5.213 -0.5141 -1.1291 -2.4412
 9939TIP3    H254013   0.176   0.189   5.152 -1.0325 -0.3444 -0.3970
 9940TIP3   OH254014   6.595   4.011   4.647  0.5140  0.3345 -0.2199
 9940TIP3    H154015   6.644   4.060   4.581 -0.1266 -0.4206 -1.2834
 9940TIP3    H254016   6.565   3.933   4.601 -0.2412 -0.0407  0.8798
 9941TIP3   OH254017   4.668   1.315   4.972 -0.5002  0.1230  0.0818
 9941TIP3    H154018   4.664   1.228   5.010  0.8882  0.6239  1.5135
 9941TIP3    H254019   4.756   1.347   4.994 -0.9504  1.8673 -0.4332
 9942TIP3   OH254020   7.123   4.898   6.546 -0.2602  0.1523 -0.2150
 9942TIP3    H154021   7.136   4.818   6.495  1.7213 -2.2501  3.5820
 9942TIP3    H254022   7.039   4.885   6.590 -1.7913  2.0461 -2.3759
 9943TIP3   OH254023   4.585   3.574   3.674 -0.5335 -0.1456 -0.6761
 9943TIP3    H154024   4.605   3.589   3.582 -0.7085  0.7591 -0.5731
 9943TIP3    H254025   4.496   3.538   3.675  1.0454 -4.7900 -1.1916
 9944TIP3   OH254026   1.546   3.194   4.875 -0.8681  0.0958  0.5106
 9944TIP3    H154027   1.568   3.159   4.789 -1.4232  1.0833 -0.0463
 9944TIP3    H254028   1.579   3.128   4.937 -0.3882 -0.5799 -0.4436
 9945TIP3   OH254029   2.397   1.726   4.292  0.2492 -0.5668  0.2491
 9945TIP3    H154030   2.492   1.722   4.290  0.3052 -2.3882  2.5478
 9945TIP3    H254031   2.372   1.670   4.365 -2.6264 -0.4873 -0.5493
 9946TIP3   OH254032   6.109   6.599   5.201 -0.0157  0.2390  0.2781
 9946TIP3    H154033   6.159   6.676   5.172  0.0128  0.5026  1.0020
 9946TIP3    H254034   6.022   6.632   5.220  0.4436  0.4749  2.2490
 9947TIP3   OH254035   5.947   0.816   4.073 -0.0603  0.4198  0.7794
 9947TIP3    H154036   5.921   0.729   4.043 -0.8225  1.2912 -1.2437
 9947TIP3    H254037   5.937   0.811   4.169 -0.0284 -1.6986  0.7345
 9948TIP3   OH254038   0.394   5.890   6.007 -0.3183  0.1577  0.0645
 9948TIP3    H154039   0.425   5.816   5.954 -2.3410 -0.3826 -0.4318
 9948TIP3    H254040   0.437   5.878   6.092 -0.9902 -1.8997  0.1659
 9949TIP3   OH254041   6.521   0.283   4.688  0.2639  0.3235 -0.0787
 9949TIP3    H154042   6.468   0.272   4.766 -1.2721  2.7522 -0.6528
 9949TIP3    H254043   6.493   0.212   4.629  0.0273 -0.3440  0.8242
 9950TIP3   OH254044   6.554   4.883   4.710  0.0835  0.4709  0.2281
 9950TIP3    H154045   6.497   4.954   4.681  0.2202 -0.1645 -1.7900
 9950TIP3    H254046   6.496   4.821   4.755 -0.7452  0.1397 -1.2422
 9951TIP3   OH254047   1.025   3.907   6.195 -0.2655  0.3396  0.1286
 9951TIP3    H154048   0.965   3.835   6.177  2.2406 -1.4946 -1.4389
 9951TIP3    H254049   1.111   3.866   6.203  0.9171  2.8822  1.9720
 9952TIP3   OH254050   5.865   5.800   5.567 -0.7371  0.3091  0.2551
 9952TIP3    H154051   5.924   5.816   5.641  0.0653 -3.8975  0.7859
 9952TIP3    H254052   5.923   5.792   5.491 -1.1044  0.3708 -0.0362
 9953TIP3   OH254053   7.273   4.304   6.371 -0.5994  0.0729 -0.0959
 9953TIP3    H154054   7.352   4.338   6.413 -1.0076  2.8109 -1.3253
 9953TIP3    H254055   7.203   4.362   6.400 -1.8188 -1.1217 -0.5318
 9954TIP3   OH254056   4.105   2.872   3.672  0.3711  0.8369 -0.0936
 9954TIP3    H154057   4.161   2.872   3.749 -0.2635 -0.3943  0.3920
 9954TIP3    H254058   4.166   2.864   3.598  0.8954  0.5975  0.3579
 9955TIP3   OH254059   2.717   6.495   3.603 -0.0791  0.6368 -0.3135
 9955TIP3    H154060   2.715   6.419   3.661 -0.4627  0.8239 -0.0753
 9955TIP3    H254061   2.808   6.524   3.604 -0.4658  2.0824  2.1012
 9956TIP3   OH254062   7.384   6.116   4.811 -0.1598  0.6604 -0.0512
 9956TIP3    H154063   7.357   6.028   4.836  0.8259  0.0995 -0.8880
 9956TIP3    H254064   7.312   6.172   4.840 -1.2612 -0.5213 -0.3860
 9957TIP3   OH254065   4.506   3.017   4.001 -0.5811  0.0552 -0.4054
 9957TIP3    H154066   4.600   3.033   4.001 -0.2430 -1.4911  1.5483
 9957TIP3    H254067   4.467   3.098   4.035  0.3549 -0.3027  1.7004
 9958TIP3   OH254068   6.370   1.899   5.135  0.7026  0.5010  0.0394
 9958TIP3    H154069   6.344   1.809   5.114  0.2946  0.9183 -1.3464
 9958TIP3    H254070   6.296   1.952   5.106  0.9992  1.3104  0.7226
 9959TIP3   OH254071   1.119   6.896   5.613  0.5348 -0.5984  0.0468
 9959TIP3    H154072   1.028   6.927   5.609  0.6444 -0.2342  0.3718
 9959TIP3    H254073   1.112   6.805   5.643  0.1372 -1.2543 -1.8838
 9960TIP3   OH254074   2.942   6.958   6.734 -0.2248 -0.5107  0.3585
 9960TIP3    H154075   3.017   6.898   6.731  0.0783 -0.1520  0.6050
 9960TIP3    H254076   2.885   6.929   6.663  0.4509 -0.3926 -0.2383
 9961TIP3   OH254077   4.604   5.709   4.398  0.3713  0.2215 -0.1467
 9961TIP3    H154078   4.564   5.755   4.472 -0.8435  1.7616 -1.6691
 9961TIP3    H254079   4.560   5.623   4.397 -0.3278  0.5622  0.3258
 9962TIP3   OH254080   5.575   6.814   4.506 -0.1797 -0.2181  0.1104
 9962TIP3    H154081   5.627   6.786   4.431  0.2573 -1.3303  0.8074
 9962TIP3    H254082   5.522   6.887   4.473 -1.7149 -2.1446 -1.9055
 9963TIP3   OH254083   4.777   2.044   5.056 -0.3796  0.3116  0.1544
 9963TIP3    H154084   4.696   2.015   5.097 -0.1577 -1.2161 -0.4137
 9963TIP3    H254085   4.814   1.964   5.017  0.2735  1.3729 -1.5039
 9964TIP3   OH254086   7.196   0.940   4.358  0.2836 -0.0277  0.7055
 9964TIP3    H154087   7.213   0.887   4.436  0.3363 -0.0567  0.6748
 9964TIP3    H254088   7.260   0.909   4.294 -0.9140 -1.2638  0.0423
 9965TIP3   OH254089   5.604   0.777   4.114 -0.2916  0.1327  0.3686
 9965TIP3    H154090   5.661   0.705   4.086  1.4713  0.7766  2.0429
 9965TIP3    H254091   5.541   0.736   4.173  0.3955 -0.1547  0.9245
 9966TIP3   OH254092   7.163   3.867   4.145  0.0063  0.6684  0.3556
 9966TIP3    H154093   7.129   3.932   4.084 -0.0184 -0.3597 -0.7677
 9966TIP3    H254094   7.085   3.820   4.176  0.1284  0.3147  0.1359
 9967TIP3   OH254095   5.020   1.113   4.417 -0.5146  0.1429 -0.7148
 9967TIP3    H154096   5.048   1.194   4.457 -2.2533  0.2806  0.2963
 9967TIP3    H254097   4.931   1.130   4.387 -0.8689 -1.3538 -0.5834
 9968TIP3   OH254098   6.658   6.563   4.410  0.2271  0.3293  0.0240
 9968TIP3    H154099   6.636   6.553   4.318 -0.0531  1.1498 -0.0095
 9968TIP3    H254100   6.574   6.582   4.452  0.4947  0.9408  0.2919
 9969TIP3   OH254101   5.181   0.675   4.152 -0.4499 -0.0696 -0.0188
 9969TIP3    H154102   5.127   0.602   4.120  0.3658 -0.8753  0.3933
 9969TIP3    H254103   5.259   0.633   4.189 -0.4428  0.9506  1.2005
 9970TIP3   OH254104   4.407   4.030   5.299 -0.4699  0.3186 -0.1484
 9970TIP3    H154105   4.410   3.969   5.226  2.0756  1.1951 -0.9008
 9970TIP3    H254106   4.383   4.114   5.259  1.3675  0.8980 -0.1265
 9971TIP3   OH254107   6.562   3.550   3.809 -0.8589 -0.1070  0.1039
 9971TIP3    H154108   6.481   3.583   3.849 -1.1478 -1.7685  1.0162
 9971TIP3    H254109   6.611   3.628   3.785 -1.4365  1.0048  2.2276
 9972TIP3   OH254110   5.303   4.032   3.965 -0.0052  0.5904 -0.1757
 9972TIP3    H154111   5.304   4.125   3.939 -2.5755  0.4614 -1.0761
 9972TIP3    H254112   5.310   4.034   4.060  2.9957  1.4725 -0.3048
 9973TIP3   OH254113   1.203   6.559   4.397  0.0022 -0.1189 -0.1145
 9973TIP3    H154114   1.159   6.628   4.447 -0.0464 -0.0324 -0.2762
 9973TIP3    H254115   1.245   6.505   4.463  1.5292  1.0643 -0.0655
 9974TIP3   OH254116   7.506   5.058   6.338  0.1963 -0.1260 -0.1176
 9974TIP3    H154117   7.489   5.099   6.423  1.6673 -2.2967  1.3404
 9974TIP3    H254118   7.420   5.035   6.304 -0.3321 -1.7301  2.1530
 9975TIP3   OH254119   0.329   2.496   6.228 -0.2384  0.0584  0.0328
 9975TIP3    H154120   0.244   2.460   6.255 -0.6143  0.7974 -0.1328
 9975TIP3    H254121   0.378   2.420   6.196 -0.1871 -0.6511  1.7050
 9976TIP3   OH254122   3.625   1.850   4.134 -0.4492 -0.5194  0.4256
 9976TIP3    H154123   3.697   1.901   4.097  0.4674 -0.5689  2.0432
 9976TIP3    H254124   3.653   1.829   4.223 -1.1025 -3.2171  0.0988
 9977TIP3   OH254125   1.248   5.312   5.301 -0.0410  0.1130 -0.6232
 9977TIP3    H154126   1.178   5.348   5.356 -0.0526 -1.4194  0.4427
 9977TIP3    H254127   1.291   5.389   5.264 -1.0323  1.1530  0.2811
 9978TIP3   OH254128   3.135   3.819   4.949 -0.1153 -0.5043  0.3510
 9978TIP3    H154129   3.226   3.800   4.927 -0.3082  0.2700 -1.2422
 9978TIP3    H254130   3.099   3.861   4.871 -1.5627  0.1446  1.3158
 9979TIP3   OH254131   6.517   6.804   5.748  0.3934  0.0502  0.2258
 9979TIP3    H154132   6.525   6.771   5.659 -0.1144  0.9101 -0.1504
 9979TIP3    H254133   6.531   6.727   5.803  1.2664 -0.3816 -0.5756
 9980TIP3   OH254134   5.707   1.195   4.147 -0.3542 -0.5196 -0.2577
 9980TIP3    H154135   5.663   1.111   4.161 -2.6961  0.7532  0.5441
 9980TIP3    H254136   5.712   1.235   4.234 -0.9250  0.9153 -0.8579
 9981TIP3   OH254137   6.406   2.301   4.659  0.1856  0.4399  0.5028
 9981TIP3    H154138   6.414   2.212   4.692  0.4955  0.4848  0.5487
 9981TIP3    H254139   6.496   2.333   4.653  0.1365  0.4331 -0.3733
 9982TIP3   OH254140   2.447   3.126   4.506 -0.7318 -0.3566 -0.3128
 9982TIP3    H154141   2.527   3.177   4.505 -2.0125  1.7935 -1.0027
 9982TIP3    H254142   2.472   3.041   4.543  1.7263  0.3821 -0.1313
 9983TIP3   OH254143   1.918   0.770   3.756 -0.4229 -0.3956  0.6116
 9983TIP3    H154144   1.916   0.743   3.848 -1.3368  1.8692  1.3223
 9983TIP3    H254145   1.857   0.844   3.751  0.5823  0.3748 -1.5445
 9984TIP3   OH254146   3.342   4.829   3.653 -0.6829 -0.2082  0.6890
 9984TIP3    H154147   3.375   4.867   3.572 -1.9457 -0.6234 -0.0514
 9984TIP3    H254148   3.255   4.795   3.630 -0.9880 -0.5025  2.1701
 9985TIP3   OH254149   6.094   0.589   5.981 -0.4853 -0.0473  0.3342
 9985TIP3    H154150   6.114   0.499   6.008  0.4023 -0.2250 -0.8623
 9985TIP3    H254151   6.130   0.597   5.893 -0.3752  1.5526  0.4927
 9986TIP3   OH254152   1.503   2.422   5.619 -0.2815  0.1943  0.3777
 9986TIP3    H154153   1.483   2.416   5.713 -3.1555 -1.6877 -0.2379
 9986TIP3    H254154   1.593   2.392   5.612 -0.6133 -1.5290  2.3922
 9987TIP3   OH254155   3.718   0.221   5.010 -0.2772 -0.0345 -0.0675
 9987TIP3    H154156   3.808   0.242   4.986 -0.8912  0.7965 -1.8520
 9987TIP3    H254157   3.664   0.267   4.945 -1.9652 -1.2383  0.3869
 9988TIP3   OH254158   5.273   3.026   4.477  0.1117 -0.4013 -0.3927
 9988TIP3    H154159   5.300   2.981   4.557 -0.3926 -0.6244 -0.3453
 9988TIP3    H254160   5.179   3.013   4.472  0.0720 -0.0159 -0.7957
 9989TIP3   OH254161   3.952   4.242   6.449  0.6768  0.0343  0.3286
 9989TIP3    H154162   3.860   4.240   6.474  0.8597 -0.4758  0.9895
 9989TIP3    H254163   3.951   4.240   6.353  0.0151 -0.4777  0.3393
 9990TIP3   OH254164   5.319   2.411   5.311 -0.7697 -0.4483 -0.5006
 9990TIP3    H154165   5.365   2.385   5.391  2.6101 -2.5088 -2.8593
 9990TIP3    H254166   5.248   2.348   5.302 -1.5433  0.1530  1.0922
 9991TIP3   OH254167   3.001   3.835   6.110  0.2746 -0.1284  0.8320
 9991TIP3    H154168   3.077   3.791   6.072  0.8217  0.8053  0.7950
 9991TIP3    H254169   3.024   3.847   6.202  1.4148  2.5290  0.3240
 9992TIP3   OH254170   6.993   5.100   4.385  0.0766 -0.2673  0.0719
 9992TIP3    H154171   7.024   5.132   4.300  0.6529 -0.2967  0.2702
 9992TIP3    H254172   7.060   5.038   4.413 -0.0088 -0.0993  0.6529
 9993TIP3   OH254173   4.865   5.824   5.572 -0.6180  0.1460 -0.4590
 9993TIP3    H154174   4.943   5.807   5.520 -1.6779 -0.4320 -1.9178
 9993TIP3    H254175   4.811   5.745   5.562 -1.0425  0.1736  1.2136
 9994TIP3   OH254176   0.847   4.332   6.102 -0.6038 -0.0259  0.1509
 9994TIP3    H154177   0.901   4.356   6.027  3.4540 -2.2773  2.0501
 9994TIP3    H254178   0.808   4.415   6.130 -0.9797  1.1515 -3.3673
 9995TIP3   OH254179   3.563   5.486   4.132  0.0069  0.2691  0.0489
 9995TIP3    H154180   3.659   5.485   4.127  0.0227  1.0277  0.1355
 9995TIP3    H254181   3.542   5.424   4.203  0.4741  0.6916  0.5635
 9996TIP3   OH254182   3.038   0.924   5.442  0.1048 -0.6338 -0.0664
 9996TIP3    H154183   3.054   0.981   5.517 -0.8461  0.9404 -0.9987
 9996TIP3    H254184   2.972   0.971   5.390 -1.0224 -2.7808 -0.6833
 9997TIP3   OH254185   5.439   3.947   5.273 -0.4203  0.4032  0.3348
 9997TIP3    H154186   5.422   3.947   5.178  1.0892  1.6091  0.0236
 9997TIP3    H254187   5.506   3.880   5.285 -0.3150  0.5318  0.4702
 9998TIP3   OH254188   4.594   2.005   3.990 -0.2014 -0.3897  0.5494
 9998TIP3    H154189   4.532   2.058   4.040  0.0322 -0.7360  1.2279
 9998TIP3    H254190   4.594   1.920   4.034 -0.2025 -0.7932 -0.2273
 9999TIP3   OH254191   0.269   3.048   4.693 -0.2038  0.2984 -0.4978
 9999TIP3    H154192   0.350   2.999   4.680  0.4053  0.9663  0.5963
 9999TIP3    H254193   0.291   3.113   4.760 -1.5882  0.6485 -0.3536
10000TIP3   OH254194   1.411   5.953   3.877 -0.0494 -0.1837 -0.5142
10000TIP3    H154195   1.409   5.999   3.793 -0.5103  0.8463  0.0409
10000TIP3    H254196   1.433   6.021   3.941 -1.7665 -0.4938  0.4670
10001TIP3   OH254197   5.480   2.658   4.605 -0.1521  0.4198 -0.1127
10001TIP3    H154198   5.454   2.741   4.644 -0.9412  0.0113  0.2528
10001TIP3    H254199   5.397   2.613   4.587  0.2536 -0.1039 -0.7140
10002TIP3   OH254200   5.343   0.557   5.204 -0.2437 -0.5176  0.0966
10002TIP3    H154201   5.264   0.502   5.199  1.1391 -2.5189 -1.3034
10002TIP3    H254202   5.384   0.548   5.118  1.4976  0.5126  0.7664
10003TIP3   OH254203   0.697   0.640   3.991  0.0068 -0.0543 -0.0437
10003TIP3    H154204   0.647   0.714   3.957  1.8818  0.3407 -2.2066
10003TIP3    H254205   0.788   0.661   3.971  0.7043 -2.4949  0.1820
10004TIP3   OH254206   3.919   4.338   4.893 -0.0732  0.2097  0.0280
10004TIP3    H154207   3.947   4.290   4.815  2.7384  0.5072  0.7203
10004TIP3    H254208   3.898   4.426   4.862 -0.9205 -0.2200 -0.6426
10005TIP3   OH254209   1.240   2.922   6.049  0.1448 -0.2840 -0.3564
10005TIP3    H154210   1.149   2.891   6.052 -0.1267  0.5232  1.5236
10005TIP3    H254211   1.259   2.947   6.140  1.7895  0.8720 -0.9803
10006TIP3   OH254212   0.530   7.265   4.645  0.4542  0.0047  0.5087
10006TIP3    H154213   0.578   7.185   4.667 -2.5145 -1.5352  1.9243
10006TIP3    H254214   0.510   7.256   4.552  0.0739 -0.9423  0.6780
10007TIP3   OH254215   1.102   6.867   4.084 -0.0319 -0.5495  0.0519
10007TIP3    H154216   1.144   6.789   4.119  0.1301 -0.6701 -0.4012
10007TIP3    H254217   1.157   6.893   4.010  1.5582  1.6394  1.8554
10008TIP3   OH254218   1.512   5.207   6.663  0.7808 -0.3580 -0.6474
10008TIP3    H154219   1.427   5.180   6.698  0.2632  1.6464 -0.2562
10008TIP3    H254220   1.576   5.171   6.725  0.3548 -2.8066 -1.5175
10009TIP3   OH254221   7.593   4.022   4.616 -0.0477 -0.5766  0.4985
10009TIP3    H154222   7.551   4.012   4.530 -0.0875  0.5874  0.3702
10009TIP3    H254223   7.603   4.116   4.627  0.6548 -0.7472  1.4464
10010TIP3   OH254224   4.106   4.783   4.380  0.1706 -0.6041  0.4005
10010TIP3    H154225   4.111   4.693   4.411  0.8223 -0.3104  1.2037
10010TIP3    H254226   4.169   4.830   4.434  2.0224 -0.1981 -1.9431
10011TIP3   OH254227   1.872   5.866   4.334 -0.0721 -0.0748 -0.1332
10011TIP3    H154228   1.862   5.924   4.259 -1.8306  0.5314  0.5287
10011TIP3    H254229   1.813   5.793   4.317 -1.0714  0.4391  0.9720
10012TIP3   OH254230   7.228   1.508   5.508  0.3342 -0.0982  0.1601
10012TIP3    H154231   7.270   1.502   5.422  2.1539  2.6429  0.7203
10012TIP3    H254232   7.135   1.505   5.489  0.6046  2.5496 -2.2655
10013TIP3   OH254233   3.824   7.177   5.759 -0.1625 -0.1545  0.5433
10013TIP3    H154234   3.764   7.195   5.687 -1.5746 -1.9924  1.1686
10013TIP3    H254235   3.826   7.082   5.765  1.5050 -0.0861  1.6623
10014TIP3   OH254236   6.728   6.312   3.994 -0.4877  0.1475 -0.7330
10014TIP3    H154237   6.744   6.406   3.990  2.2669 -0.1922  0.3457
10014TIP3    H254238   6.784   6.274   3.927 -0.4953 -0.8177 -0.2291
10015TIP3   OH254239   5.019   7.528   4.106  0.2563  0.4544  0.0885
10015TIP3    H154240   5.115   7.521   4.114  0.2119 -0.7655 -0.1345
10015TIP3    H254241   4.996   7.606   4.156  1.0471 -1.1522  3.2308
10016TIP3   OH254242   0.104   5.690   5.296 -0.1214 -0.1950 -0.4631
10016TIP3    H154243   0.190   5.650   5.282  0.8014  0.8876  1.7262
10016TIP3    H254244   0.099   5.759   5.230  1.4583  0.8130  0.3921
10017TIP3   OH254245   2.713   2.963   4.087 -0.0564  0.1402  0.1277
10017TIP3    H154246   2.618   2.959   4.098 -0.3336  1.0471 -1.5534
10017TIP3    H254247   2.726   2.966   3.992  1.4867  2.7589  0.3270
10018TIP3   OH254248   1.097   3.382   4.764 -1.3871  0.4597  0.2751
10018TIP3    H154249   1.017   3.330   4.754 -1.3975  0.3218  0.9987
10018TIP3    H254250   1.165   3.318   4.786 -1.2449  0.6686  0.4492
10019TIP3   OH254251   0.180   6.991   4.125 -0.1765  0.4614  0.3298
10019TIP3    H154252   0.197   6.916   4.182 -1.1566  1.0137  1.4072
10019TIP3    H254253   0.120   6.958   4.058 -0.7169  0.3105  0.8834
10020TIP3   OH254254   6.341   0.562   4.904  0.3834  0.0662 -0.4616
10020TIP3    H154255   6.302   0.637   4.860 -1.0295  0.5822  1.5339
10020TIP3    H254256   6.300   0.486   4.864  0.0927  0.4462 -0.8960
10021TIP3   OH254257   3.873   5.458   4.880 -0.1000 -0.1995  0.8967
10021TIP3    H154258   3.892   5.394   4.948 -0.0091 -0.1679  0.9008
10021TIP3    H254259   3.777   5.457   4.872 -0.0187 -1.7598 -0.4612
10022TIP3   OH254260   6.123   3.548   4.998  0.1558 -0.0363 -0.1777
10022TIP3    H154261   6.185   3.622   4.994 -0.3810  0.3675 -1.2526
10022TIP3    H254262   6.179   3.470   4.993  0.5970  0.3238 -1.2338
10023TIP3   OH254263   2.895   7.349   5.213  0.7134 -0.0087 -0.0363
10023TIP3    H154264   2.951   7.341   5.137  0.2896  0.0559 -0.3586
10023TIP3    H254265   2.806   7.348   5.178  0.4706 -1.0337  0.5342
10024TIP3   OH254266   1.624   4.026   5.780  0.1699 -0.2343  0.2494
10024TIP3    H154267   1.684   3.978   5.723  0.3035 -0.2614  0.4122
10024TIP3    H254268   1.553   4.054   5.722  1.3373  1.5884 -0.3813
10025TIP3   OH254269   6.546   5.360   5.413  0.0114  0.4770 -0.0626
10025TIP3    H154270   6.549   5.444   5.367  0.4055  0.8901  0.7000
10025TIP3    H254271   6.638   5.332   5.417 -0.2002 -0.4723 -1.1459
10026TIP3   OH254272   0.744   5.326   6.912 -0.4422 -0.4104 -0.0125
10026TIP3    H154273   0.798   5.387   6.861 -1.7327  1.3098  0.5571
10026TIP3    H254274   0.775   5.239   6.886  1.7396  0.4617 -0.5897
10027TIP3   OH254275   6.566   4.159   5.197  0.4220  0.2190  0.1867
10027TIP3    H154276   6.514   4.154   5.278 -0.0157 -0.0974 -0.1052
10027TIP3    H254277   6.639   4.099   5.211 -0.6295 -1.2292 -0.3305
10028TIP3   OH254278   5.173   2.077   5.101 -0.4779  0.1184  0.6647
10028TIP3    H154279   5.115   2.043   5.032 -0.0807  0.6819  0.0398
10028TIP3    H254280   5.195   2.000   5.153 -0.0355 -0.5180 -0.4098
10029TIP3   OH254281   6.838   0.237   4.969  1.0863  0.2068  0.4051
10029TIP3    H154282   6.890   0.264   4.894  1.9018  0.5490  1.0793
10029TIP3    H254283   6.796   0.317   5.001  0.0517 -0.0785 -0.1830
10030TIP3   OH254284   0.759   3.488   4.811  0.4720 -0.2984 -0.1498
10030TIP3    H154285   0.831   3.474   4.873  0.3676  0.3166  0.1143
10030TIP3    H254286   0.799   3.540   4.740  0.4548 -0.5372 -0.3364
10031TIP3   OH254287   4.280   1.288   5.251 -0.4168  0.2326 -0.5754
10031TIP3    H154288   4.262   1.266   5.160  2.2759 -1.9059 -0.7331
10031TIP3    H254289   4.228   1.227   5.302  0.3960 -0.6746 -0.8058
10032TIP3   OH254290   1.400   3.652   4.036 -0.1513 -0.1191  0.6774
10032TIP3    H154291   1.330   3.635   3.973  1.3832  0.5572 -1.2887
10032TIP3    H254292   1.455   3.718   3.995  1.3890 -0.2501  2.3792
10033TIP3   OH254293   7.588   0.192   4.995  0.1607  0.1149 -0.3080
10033TIP3    H154294   7.512   0.144   5.028 -0.0567  0.6313 -0.0439
10033TIP3    H254295   7.654   0.124   4.980 -0.0046 -0.2261  0.4290
10034TIP3   OH254296   0.129   6.364   5.469 -0.2978 -0.0420  0.0107
10034TIP3    H154297   0.179   6.396   5.545  1.2796 -1.7467 -0.2566
10034TIP3    H254298   0.047   6.331   5.507  0.3332 -0.5751  0.9425
10035TIP3   OH254299   1.916   2.176   6.161 -0.4965  0.0270  0.4417
10035TIP3    H154300   1.829   2.140   6.147  0.1426 -1.1992 -0.5203
10035TIP3    H254301   1.950   2.130   6.238  0.2437 -1.3613 -0.6709
10036TIP3   OH254302   1.333   3.005   5.460  0.5470 -0.7399 -0.1264
10036TIP3    H154303   1.340   3.092   5.421  2.1172 -0.4262  0.7603
10036TIP3    H254304   1.368   3.016   5.549 -1.1274 -1.8464  0.7309
10037TIP3   OH254305   3.467   6.079   3.862  0.2285  0.4155  0.4690
10037TIP3    H154306   3.404   6.018   3.823 -0.6104  2.6396 -1.9396
10037TIP3    H254307   3.451   6.162   3.817  3.5527  1.6086  1.2077
10038TIP3   OH254308   5.243   3.508   4.702  0.6600 -0.4837  0.6774
10038TIP3    H154309   5.207   3.449   4.635  0.5215  0.4117 -0.0548
10038TIP3    H254310   5.338   3.499   4.694  0.6476 -0.1544  0.1536
10039TIP3   OH254311   0.359   1.437   4.777 -0.0772 -0.8176  0.1749
10039TIP3    H154312   0.414   1.433   4.699 -2.2375 -2.7190 -1.3727
10039TIP3    H254313   0.308   1.356   4.775 -2.2194  0.3674  2.0323
10040TIP3   OH254314   2.698   2.644   5.907 -0.4488 -0.2551  0.3128
10040TIP3    H154315   2.676   2.658   5.815 -0.4880  0.0048  0.3593
10040TIP3    H254316   2.625   2.684   5.955  1.4824  3.4750  0.5554
10041TIP3   OH254317   3.824   6.931   6.409 -0.1451  0.0157  0.1539
10041TIP3    H154318   3.749   6.898   6.459 -1.3157  2.0688 -0.1238
10041TIP3    H254319   3.874   6.982   6.473  0.7502 -0.9157  0.2113
10042TIP3   OH254320   7.231   0.278   4.441 -0.3062 -0.2878  0.8199
10042TIP3    H154321   7.225   0.288   4.536 -1.5041 -1.3991  0.8799
10042TIP3    H254322   7.301   0.214   4.428  0.1546  0.1877  0.9213
10043TIP3   OH254323   4.172   4.855   4.109 -0.5077  0.6017 -0.4286
10043TIP3    H154324   4.194   4.767   4.078  0.8184  0.9054 -0.3938
10043TIP3    H254325   4.124   4.841   4.190 -0.7144 -0.1017 -0.6681
10044TIP3   OH254326   3.699   5.346   5.611  0.4959 -0.4970  0.1628
10044TIP3    H154327   3.667   5.399   5.684 -0.3121  0.0920 -0.6090
10044TIP3    H254328   3.749   5.407   5.557  1.0001 -0.9066  0.1552
10045TIP3   OH254329   2.910   6.467   5.809 -0.1711  0.0343 -0.0766
10045TIP3    H154330   2.958   6.400   5.858  0.3452  0.9766  0.7490
10045TIP3    H254331   2.823   6.429   5.796  0.1139 -0.8017  0.3570
10046TIP3   OH254332   4.544   6.384   4.525  0.6228  0.0231 -0.5911
10046TIP3    H154333   4.540   6.290   4.508  0.6140 -0.0824 -0.0314
10046TIP3    H254334   4.637   6.405   4.526  0.6055  0.1435 -1.3590
10047TIP3   OH254335   1.651   4.175   4.242 -0.2817  0.5160 -0.4798
10047TIP3    H154336   1.632   4.154   4.151 -4.2735  2.0169 -0.1643
10047TIP3    H254337   1.674   4.268   4.241 -0.6595  0.6200  0.0655
10048TIP3   OH254338   4.057   6.486   5.651 -0.0177 -0.0465 -0.2076
10048TIP3    H154339   3.983   6.461   5.706  0.6342 -0.7375  0.3777
10048TIP3    H254340   4.043   6.579   5.633 -0.6175  0.0229  0.5473
10049TIP3   OH254341   0.599   2.509   4.753 -0.2959 -0.7728  0.2172
10049TIP3    H154342   0.515   2.553   4.763  0.0180 -0.0437 -0.2567
10049TIP3    H254343   0.603   2.486   4.660  0.0150 -0.8160  0.2400
10050TIP3   OH254344   0.420   4.789   4.982 -0.4497  0.6258 -0.0384
10050TIP3    H154345   0.373   4.866   4.948  0.3921  0.7077 -1.0580
10050TIP3    H254346   0.467   4.754   4.906  0.1075 -0.2136  0.6785
10051TIP3   OH254347   4.158   7.098   6.052  0.4988  0.2324  0.0506
10051TIP3    H154348   4.156   7.178   6.105  2.1782 -1.3584  2.7767
10051TIP3    H254349   4.248   7.094   6.019  0.5991 -0.7545  0.4039
10052TIP3   OH254350   7.052   3.192   5.089 -0.5952  0.4333 -0.1738
10052TIP3    H154351   7.104   3.235   5.157 -0.7069  0.6179 -0.2056
10052TIP3    H254352   7.036   3.104   5.123  0.6945 -0.0037 -0.6612
10053TIP3   OH254353   3.998   5.495   4.644  0.4312 -0.8942  0.1400
10053TIP3    H154354   3.964   5.502   4.733 -0.9998  0.1473 -0.4651
10053TIP3    H254355   3.933   5.443   4.597  1.3333 -1.7069 -0.2451
10054TIP3   OH254356   2.924   2.808   4.961  0.3421  0.1451 -0.3910
10054TIP3    H154357   2.966   2.857   5.032 -0.3378  0.3597 -0.1360
10054TIP3    H254358   2.950   2.854   4.881 -0.4032  1.0142 -0.1440
10055TIP3   OH254359   0.707   0.047   5.624  1.0222 -0.0110  0.2258
10055TIP3    H154360   0.669   0.127   5.586  1.5201  0.3139  0.4011
10055TIP3    H254361   0.653   0.030   5.702 -1.0345 -1.5950 -1.4369
10056TIP3   OH254362   6.551   6.959   4.885  0.1466 -0.3329 -0.1761
10056TIP3    H154363   6.634   6.991   4.922 -1.3086  2.0780  1.2506
10056TIP3    H254364   6.525   6.889   4.945  2.2075 -2.8151 -1.9819
10057TIP3   OH254365   1.839   7.516   4.475 -1.0721  0.3361  0.1518
10057TIP3    H154366   1.928   7.532   4.504 -0.7849  0.1636 -0.6159
10057TIP3    H254367   1.833   7.557   4.389 -2.0911  1.3627  0.6824
10058TIP3   OH254368   1.310   2.241   5.516  0.6155 -0.3331 -0.2552
10058TIP3    H154369   1.335   2.149   5.523 -0.8342 -0.7239  0.2083
10058TIP3    H254370   1.357   2.284   5.588 -0.8304 -1.2458  1.3016
10059TIP3   OH254371   2.834   1.713   5.991 -0.1227 -0.3131  0.2501
10059TIP3    H154372   2.881   1.714   6.074 -0.9764  2.8716  0.8272
10059TIP3    H254373   2.783   1.794   5.991 -0.7533 -0.5611 -3.0731
10060TIP3   OH254374   3.357   3.858   5.617  0.6072  0.1217 -0.4887
10060TIP3    H154375   3.401   3.777   5.639  1.4154  0.5794 -0.3805
10060TIP3    H254376   3.379   3.918   5.688 -0.0912  0.4062 -0.4976
10061TIP3   OH254377   3.464   3.706   5.817 -0.6148  0.4556  0.0156
10061TIP3    H154378   3.401   3.760   5.864  0.4946  1.9586 -0.1586
10061TIP3    H254379   3.512   3.659   5.885 -1.2386  0.0462  0.1872
10062TIP3   OH254380   0.009   7.492   4.331 -0.3236 -0.1168  0.2787
10062TIP3    H154381   0.027   7.547   4.407  0.7691 -0.1014  0.0320
10062TIP3    H254382   0.080   7.427   4.331 -1.6195 -1.5989  0.6168
10063TIP3   OH254383   2.654   3.648   4.157  0.8827 -0.4798  0.0456
10063TIP3    H154384   2.623   3.717   4.215  0.0441  0.8377 -1.8581
10063TIP3    H254385   2.744   3.672   4.137  1.3645 -1.2471  1.1879
10064TIP3   OH254386   3.952   2.846   5.405 -0.5760 -0.0754  0.5853
10064TIP3    H154387   3.868   2.821   5.367 -0.4977 -0.7640  0.8505
10064TIP3    H254388   4.006   2.870   5.329 -0.8241 -0.2097  0.3646
10065TIP3   OH254389   6.336   1.769   4.728 -0.2494  0.1318 -0.0436
10065TIP3    H154390   6.257   1.721   4.752  0.5329 -1.2040 -0.0301
10065TIP3    H254391   6.382   1.711   4.667  0.7836  0.8312  0.0414
10066TIP3   OH254392   0.314   5.242   4.503 -0.0908 -0.0842 -0.4585
10066TIP3    H154393   0.363   5.239   4.585  0.1278 -1.2152 -0.6059
10066TIP3    H254394   0.358   5.308   4.450  1.2394 -0.9920 -0.5447
10067TIP3   OH254395   4.612   1.168   6.485 -0.1540  0.3324  0.7038
10067TIP3    H154396   4.590   1.209   6.401 -2.1227 -2.7643 -0.4910
10067TIP3    H254397   4.552   1.209   6.547 -0.1143  1.2269  0.1724
10068TIP3   OH254398   4.161   6.629   6.079 -0.1474  0.1538 -0.4871
10068TIP3    H154399   4.161   6.597   6.170  0.0213  2.6038  0.4629
10068TIP3    H254400   4.251   6.656   6.063 -0.4628  1.0167 -0.8704
10069TIP3   OH254401   0.064   4.686   6.988  0.1290 -0.2715 -0.1375
10069TIP3    H154402  -0.030   4.670   6.993  0.1853 -0.8107 -0.6647
10069TIP3    H254403   0.072   4.768   6.938 -0.0537 -0.3459 -0.2891
10070TIP3   OH254404   5.764   6.462   5.096 -0.3128 -0.1709  0.4255
10070TIP3    H154405   5.721   6.416   5.023 -0.0425 -1.9309  1.3050
10070TIP3    H254406   5.809   6.536   5.054  0.1578 -1.3455 -1.2866
10071TIP3   OH254407   5.574   6.273   5.284 -0.0888  0.2229  0.0258
10071TIP3    H154408   5.647   6.313   5.237 -0.8023  0.2783 -1.0680
10071TIP3    H254409   5.577   6.181   5.259 -0.4167  0.2344 -0.0610
10072TIP3   OH254410   5.931   4.955   6.325 -0.3157 -0.4577  0.3298
10072TIP3    H154411   5.893   5.038   6.353 -1.6322 -0.6361 -0.8169
10072TIP3    H254412   5.941   4.905   6.405 -0.5615  0.3938  0.9038
10073TIP3   OH254413   1.616   6.821   4.411  0.3998 -0.1919 -0.6339
10073TIP3    H154414   1.708   6.809   4.433  0.1754 -0.5283  0.1870
10073TIP3    H254415   1.579   6.733   4.415 -0.0264 -0.0142 -0.6195
10074TIP3   OH254416   5.430   7.518   4.575 -0.3620  0.6414  0.2256
10074TIP3    H154417   5.340   7.485   4.572  0.1008 -0.7108  0.5103
10074TIP3    H254418   5.429   7.596   4.519 -1.7766  0.8467  0.4911
10075TIP3   OH254419   3.216   1.178   5.886 -0.3232 -0.0729  0.2035
10075TIP3    H154420   3.272   1.242   5.842 -0.0871 -0.1100  0.4524
10075TIP3    H254421   3.229   1.194   5.979 -0.6254 -0.1693  0.2653
10076TIP3   OH254422   6.824   6.096   5.209  0.4367  0.2575 -0.4486
10076TIP3    H154423   6.878   6.060   5.139 -0.0113 -0.2883 -0.5238
10076TIP3    H254424   6.781   6.172   5.169  0.6160  0.2785 -0.6005
10077TIP3   OH254425   2.617   3.607   4.518  0.2687 -0.1897 -0.2879
10077TIP3    H154426   2.666   3.675   4.471 -0.9321  0.7626 -0.2411
10077TIP3    H254427   2.625   3.632   4.610  0.2026 -0.3748 -0.2328
10078TIP3   OH254428   2.239   2.633   5.312  0.1791  0.0916  0.2846
10078TIP3    H154429   2.300   2.564   5.283  2.2474  1.5051  1.0256
10078TIP3    H254430   2.280   2.714   5.283 -2.1173  1.0823 -0.4304
10079TIP3   OH254431   0.959   6.080   4.677 -0.2608 -0.4362  0.5511
10079TIP3    H154432   0.892   6.013   4.660  0.1932 -0.3551 -1.9667
10079TIP3    H254433   0.974   6.076   4.771 -0.6668 -3.5129  0.5922
10080TIP3   OH254434   3.445   3.605   5.514  0.0089 -0.1343 -0.3262
10080TIP3    H154435   3.517   3.542   5.515 -0.4047 -0.6190 -0.4828
10080TIP3    H254436   3.366   3.551   5.513 -0.3440  0.3686 -1.5826
10081TIP3   OH254437   7.533   6.271   5.015  0.6662  0.6885 -0.2531
10081TIP3    H154438   7.501   6.217   4.944  1.8287  0.8225 -0.8956
10081TIP3    H254439   7.587   6.212   5.068 -1.7918  0.0470  1.7285
10082TIP3   OH254440   1.919   4.935   5.522  0.1956 -0.5355  0.1921
10082TIP3    H154441   1.939   5.006   5.461 -0.2493 -1.1687 -0.7160
10082TIP3    H254442   1.953   4.857   5.480 -0.0673 -0.9800  0.7927
10083TIP3   OH254443   2.141   2.635   3.958 -0.4630 -0.2692 -0.0993
10083TIP3    H154444   2.148   2.635   3.862  1.8325  0.4351  0.0139
10083TIP3    H254445   2.171   2.548   3.984  1.4535  0.3846  0.0494
10084TIP3   OH254446   2.223   2.264   4.326  0.4002  0.0051 -0.2765
10084TIP3    H154447   2.139   2.219   4.330  0.6770 -0.5018 -0.1467
10084TIP3    H254448   2.272   2.219   4.257  0.6744  0.1070 -0.1507
10085TIP3   OH254449   5.692   7.308   5.405 -0.3462  0.5426  0.0228
10085TIP3    H154450   5.668   7.307   5.313  0.1926  0.8405 -0.1227
10085TIP3    H254451   5.622   7.260   5.449  0.0475 -0.7327 -0.7012
10086TIP3   OH254452   2.791   2.578   6.158 -0.0092 -0.1772  0.3963
10086TIP3    H154453   2.879   2.607   6.135 -0.1843  1.9260  2.1256
10086TIP3    H254454   2.743   2.578   6.075  0.9361  1.2287 -0.1799
10087TIP3   OH254455   6.331   2.682   5.205  0.0692 -0.5198  0.3495
10087TIP3    H154456   6.253   2.628   5.189  0.0000 -0.8465  1.7323
10087TIP3    H254457   6.296   2.766   5.232  0.1791 -0.9018  1.7325
10088TIP3   OH254458   4.167   2.424   4.468 -0.2066 -0.0449 -0.5882
10088TIP3    H154459   4.185   2.396   4.378 -0.6472 -0.5094 -0.5360
10088TIP3    H254460   4.081   2.465   4.463 -0.8261 -1.2708 -0.1352
10089TIP3   OH254461   3.370   4.045   3.781 -0.1609 -0.1201  0.2393
10089TIP3    H154462   3.380   3.957   3.819 -0.8991  0.6961  2.4622
10089TIP3    H254463   3.442   4.095   3.817  0.0191  0.3089 -0.7030
10090TIP3   OH254464   6.397   5.081   4.568 -0.1592 -0.3095 -0.0150
10090TIP3    H154465   6.421   5.080   4.475  0.6109  1.0686  0.1319
10090TIP3    H254466   6.305   5.108   4.568 -0.3226 -0.8488 -0.3953
10091TIP3   OH254467   6.925   5.461   5.919 -0.2717  0.2292  0.6414
10091TIP3    H154468   6.997   5.403   5.893 -1.2163 -1.3307  1.3743
10091TIP3    H254469   6.927   5.531   5.854  2.7588  1.0150  1.4173
10092TIP3   OH254470   1.819   5.591   5.471  0.1870  0.2377  0.1275
10092TIP3    H154471   1.869   5.510   5.465  0.5873  0.3945  1.1573
10092TIP3    H254472   1.779   5.601   5.385  2.3434  0.3819 -0.9105
10093TIP3   OH254473   0.475   2.717   4.547  0.1284 -0.0387 -0.1791
10093TIP3    H154474   0.509   2.771   4.618  0.6054 -1.4108  0.6601
10093TIP3    H254475   0.381   2.710   4.566  0.1776 -0.0491  0.0627
10094TIP3   OH254476   3.322   6.187   4.981  0.1481 -0.3651 -0.7752
10094TIP3    H154477   3.396   6.200   4.922 -0.3878  0.6608 -1.2475
10094TIP3    H254478   3.326   6.095   5.005  0.5334 -0.7420 -2.2078
10095TIP3   OH254479   1.426   5.491   4.429 -0.0384  0.0671  0.4674
10095TIP3    H154480   1.464   5.431   4.493 -0.9113 -1.2530 -0.1824
10095TIP3    H254481   1.343   5.519   4.469 -0.6432 -0.8546 -0.0898
10096TIP3   OH254482   2.638   2.959   4.629  0.2715  0.1569  0.4778
10096TIP3    H154483   2.677   2.973   4.716  1.5547 -2.5982  0.4505
10096TIP3    H254484   2.712   2.931   4.574 -0.5036  1.8491 -1.5705
10097TIP3   OH254485   7.029   2.541   4.548 -0.5252  0.0526  0.3411
10097TIP3    H154486   7.041   2.458   4.593 -0.5698  0.3387  0.8885
10097TIP3    H254487   6.967   2.521   4.477  0.2665 -0.5972 -0.1791
10098TIP3   OH254488   7.596   6.281   5.602 -0.1794 -0.5770 -0.3567
10098TIP3    H154489   7.549   6.210   5.557  0.2880 -2.3070  1.7267
10098TIP3    H254490   7.528   6.346   5.620 -1.2349 -1.7416  0.0948
10099TIP3   OH254491   2.096   5.578   4.697  0.1866  0.6192  0.1135
10099TIP3    H154492   2.050   5.650   4.652 -0.4229  0.4383  0.4310
10099TIP3    H254493   2.032   5.506   4.697  0.1892  0.6082  1.2408
10100TIP3   OH254494   0.019   3.270   4.788 -0.2357 -0.0602  0.2933
10100TIP3    H154495  -0.013   3.354   4.820 -0.7170  0.0927 -0.5629
10100TIP3    H254496   0.112   3.270   4.810  0.0908  1.3059 -0.9217
10101TIP3   OH254497   2.101   6.142   4.453  0.1058  0.5383  0.2107
10101TIP3    H154498   2.192   6.159   4.478 -0.2070  3.8529 -0.4701
10101TIP3    H254499   2.106   6.116   4.361  0.3511  0.8090  0.1465
10102TIP3   OH254500   2.808   7.011   4.485 -0.0397 -0.0094  0.5763
10102TIP3    H154501   2.864   6.957   4.540  0.1753 -0.0660  0.3053
10102TIP3    H254502   2.742   6.951   4.450 -0.3730  0.0886  1.0270
10103TIP3   OH254503   7.006   1.897   5.693 -0.6476 -0.1662  0.4598
10103TIP3    H154504   7.027   1.946   5.773 -0.1212 -1.5437  1.2108
10103TIP3    H254505   7.045   1.948   5.622 -0.4386  0.6805  1.1642
10104TIP3   OH254506   1.861   2.483   4.370 -0.0618  0.1521 -0.5912
10104TIP3    H154507   1.885   2.463   4.280 -0.8096 -0.0779 -0.7435
10104TIP3    H254508   1.934   2.450   4.422 -0.3758 -1.2196 -0.9909
10105TIP3   OH254509   1.637   1.331   4.781  0.2580 -0.1601 -0.1131
10105TIP3    H154510   1.670   1.248   4.748 -0.0827 -0.0681 -0.7030
10105TIP3    H254511   1.617   1.382   4.703 -0.7451 -0.0063  0.2231
10106TIP3   OH254512   4.996   0.689   5.357  0.5808 -0.0468 -0.9213
10106TIP3    H154513   5.069   0.658   5.412  0.3785 -0.6968 -1.0142
10106TIP3    H254514   5.033   0.763   5.309  0.5498  1.0674  0.6652
10107TIP3   OH254515   3.103   4.268   6.605 -0.0150 -0.0042  0.8057
10107TIP3    H154516   3.169   4.289   6.539 -0.1263  0.9355  0.9910
10107TIP3    H254517   3.030   4.327   6.587  0.1933  0.6850  2.1385
10108TIP3   OH254518   6.731   7.662   4.311 -0.1111 -0.5615  0.0335
10108TIP3    H154519   6.819   7.627   4.329  0.3248  0.1010 -0.7539
10108TIP3    H254520   6.673   7.606   4.363  0.7195 -1.3668  0.1402
10109TIP3   OH254521   5.939   4.862   5.136 -0.2175 -0.5092 -0.6263
10109TIP3    H154522   5.888   4.816   5.203 -0.9065 -0.1218 -0.8875
10109TIP3    H254523   6.030   4.847   5.163 -0.4313  2.3001  2.2773
10110TIP3   OH254524   3.412   0.027   4.351 -0.1379 -0.5696 -0.0433
10110TIP3    H154525   3.468   0.028   4.273 -0.8257  1.9352 -0.5806
10110TIP3    H254526   3.470   0.053   4.422  0.6132 -3.3388  0.4751
10111TIP3   OH254527   5.283   2.457   4.519 -0.0172  0.4348  0.3949
10111TIP3    H154528   5.240   2.404   4.585  0.2215  1.4438  1.3930
10111TIP3    H254529   5.232   2.538   4.516  0.4657  0.7294 -0.0671
10112TIP3   OH254530   5.355   1.092   5.651 -0.2243 -0.0528  0.4361
10112TIP3    H154531   5.339   1.034   5.577  1.1369  0.1212 -0.0182
10112TIP3    H254532   5.368   1.033   5.725 -1.0844 -0.2436  0.4391
10113TIP3   OH254533   2.442   0.408   5.917 -0.3866  0.3907  0.3491
10113TIP3    H154534   2.508   0.414   5.848 -0.9456  2.1138 -0.0702
10113TIP3    H254535   2.458   0.485   5.973 -0.0317 -0.8823  2.0947
10114TIP3   OH254536   6.976   5.408   6.316  0.6125  0.8591  0.3386
10114TIP3    H154537   6.911   5.443   6.255  2.1776  1.2062 -1.2028
10114TIP3    H254538   6.970   5.464   6.393 -1.8349  0.0328  0.8429
10115TIP3   OH254539   3.604   6.440   3.995 -0.0767 -0.0910  0.6640
10115TIP3    H154540   3.571   6.489   3.920  0.4913 -0.8493 -0.0946
10115TIP3    H254541   3.531   6.439   4.057  0.2224  2.5908  1.1720
10116TIP3   OH254542   6.700   0.328   6.271  0.1156  0.2667 -0.9211
10116TIP3    H154543   6.740   0.385   6.336  0.7876 -0.0748 -1.0215
10116TIP3    H254544   6.625   0.377   6.237  1.3003  1.5348 -1.7881
10117TIP3   OH254545   6.849   6.402   5.443  0.5814  0.0407  0.3239
10117TIP3    H154546   6.787   6.475   5.446 -0.4715 -0.7866 -0.3089
10117TIP3    H254547   6.885   6.406   5.354 -0.1596 -0.7332 -0.0212
10118TIP3   OH254548   5.317   3.527   3.955  0.5086 -0.6097  0.5289
10118TIP3    H154549   5.320   3.590   4.027  0.7243 -0.1800  0.1500
10118TIP3    H254550   5.404   3.531   3.917  0.5434 -1.1937  0.5466
10119TIP3   OH254551   3.809   4.146   6.207 -0.3681  0.0458 -0.0438
10119TIP3    H154552   3.857   4.089   6.147 -1.2284  0.0689 -0.7731
10119TIP3    H254553   3.723   4.105   6.216 -0.1071 -0.1986  1.5414
10120TIP3   OH254554   1.777   2.213   4.565 -0.5553  0.2144 -0.2911
10120TIP3    H154555   1.774   2.196   4.659 -0.2636 -0.8757 -0.4707
10120TIP3    H254556   1.773   2.309   4.558  3.9900  0.7177  1.0672
10121TIP3   OH254557   3.541   2.251   4.596  0.0079  0.4779  0.0499
10121TIP3    H154558   3.481   2.177   4.585  0.5088 -0.4617  2.9545
10121TIP3    H254559   3.485   2.323   4.626 -0.1485  0.6468 -0.6286
10122TIP3   OH254560   4.321   0.676   6.476 -0.5853  0.1724  0.5350
10122TIP3    H154561   4.260   0.603   6.464  0.0779 -0.5582  1.3709
10122TIP3    H254562   4.407   0.634   6.474 -0.1290  1.1235 -0.2290
10123TIP3   OH254563   0.191   5.072   5.447 -0.0732 -0.8226 -0.0780
10123TIP3    H154564   0.204   5.112   5.532  0.2996 -2.0061  0.4460
10123TIP3    H254565   0.194   4.978   5.464  1.2131 -1.0928 -1.5576
10124TIP3   OH254566   2.088   6.406   4.036  0.7680 -0.0731 -0.0584
10124TIP3    H154567   2.164   6.436   4.086  0.3941  0.1139  0.4145
10124TIP3    H254568   2.075   6.315   4.065 -0.4909  0.5586  1.5296
10125TIP3   OH254569   2.744   6.634   3.943 -0.1699  0.7087  0.5845
10125TIP3    H154570   2.740   6.674   3.857 -0.6661 -0.4794  0.0266
10125TIP3    H254571   2.657   6.596   3.955 -0.0680  0.7579  1.5612
10126TIP3   OH254572   6.041   3.095   5.053  0.1471  0.2014  0.1464
10126TIP3    H154573   6.075   3.096   4.964 -0.0444  1.5967  0.0789
10126TIP3    H254574   6.101   3.151   5.103 -1.9031  2.6476  0.0422
10127TIP3   OH254575   0.268   4.560   5.152 -0.0329 -0.1180 -0.0997
10127TIP3    H154576   0.278   4.644   5.106  0.9854 -0.7446 -1.0735
10127TIP3    H254577   0.230   4.584   5.236 -1.4678  1.1334 -1.0323
10128TIP3   OH254578   5.915   2.843   5.005  0.0335  0.2197 -0.2781
10128TIP3    H154579   5.948   2.930   5.030  0.3332  0.0057  0.0736
10128TIP3    H254580   5.993   2.793   4.984 -0.1546  0.0921 -0.6825
10129TIP3   OH254581   3.145   3.644   4.245 -0.3170  0.3886 -0.0591
10129TIP3    H154582   3.110   3.715   4.298  1.2165  0.0713  1.5002
10129TIP3    H254583   3.098   3.566   4.276  1.5427 -0.0256  1.9784
10130TIP3   OH254584   0.586   5.855   5.371  0.4096  0.2059 -0.3078
10130TIP3    H154585   0.556   5.944   5.353 -0.5193  0.1930  1.0735
10130TIP3    H254586   0.680   5.864   5.388 -0.0394  1.2735  1.9080
10131TIP3   OH254587   3.128   5.049   6.073 -0.1615  0.0330  0.3074
10131TIP3    H154588   3.188   4.998   6.127 -1.8521 -3.0725 -0.5179
10131TIP3    H254589   3.042   5.033   6.112 -1.2641 -1.1918 -2.3804
10132TIP3   OH254590   0.888   2.597   5.451  0.6833 -0.0368 -0.5965
10132TIP3    H154591   0.869   2.503   5.457  2.0114 -0.3664 -1.1171
10132TIP3    H254592   0.814   2.633   5.403 -1.2125 -0.3194  1.9425
10133TIP3   OH254593   2.396   2.627   4.411  0.6901  0.1435 -0.3922
10133TIP3    H154594   2.398   2.636   4.506 -1.6963  0.0058 -0.2850
10133TIP3    H254595   2.312   2.664   4.384  0.3375 -1.7502 -2.2032
10134TIP3   OH254596   4.816   3.429   4.116 -0.0857 -0.6033 -0.2039
10134TIP3    H154597   4.744   3.368   4.103 -2.1980  1.0112  2.7367
10134TIP3    H254598   4.881   3.380   4.167 -1.3248 -0.7368  1.3007
10135TIP3   OH254599   5.609   3.670   5.580  0.3000 -0.2900  0.4504
10135TIP3    H154600   5.618   3.640   5.670  0.0588  1.8013  1.2347
10135TIP3    H254601   5.526   3.632   5.550 -0.0953 -0.2403  1.4479
10136TIP3   OH254602   3.776   4.755   4.543  0.1014  0.2768  0.9044
10136TIP3    H154603   3.840   4.812   4.501  0.5603 -0.7149  0.2236
10136TIP3    H254604   3.721   4.814   4.594  0.7580  1.2858  0.4685
10137TIP3   OH254605   5.563   4.717   6.720  0.4469  0.5302  0.2936
10137TIP3    H154606   5.495   4.685   6.780  0.9902  0.6471  0.9948
10137TIP3    H254607   5.613   4.639   6.697 -0.8248  0.1702 -1.4628
10138TIP3   OH254608   7.231   0.722   4.601 -0.1778  0.1697  0.1123
10138TIP3    H154609   7.310   0.669   4.594 -0.9120 -0.6603 -3.2116
10138TIP3    H254610   7.205   0.714   4.693  2.7280 -0.7454  0.9470
10139TIP3   OH254611   6.388   5.207   5.233  0.1742  0.2877 -0.9694
10139TIP3    H154612   6.321   5.154   5.276  1.1689 -0.7253 -0.6198
10139TIP3    H254613   6.421   5.266   5.301 -0.3423  0.7937 -1.1443
10140TIP3   OH254614   2.024   5.627   4.255  0.5181  0.0380 -0.1884
10140TIP3    H154615   1.959   5.558   4.264 -0.0001  0.1406 -2.6152
10140TIP3    H254616   1.983   5.703   4.297 -0.9773  0.1001 -1.6606
10141TIP3   OH254617   6.991   6.998   4.753  0.0468 -0.1507 -0.7192
10141TIP3    H154618   7.052   6.925   4.745  2.2132  1.6330 -1.5643
10141TIP3    H254619   6.959   7.013   4.664 -0.6283 -0.2586 -0.4985
10142TIP3   OH254620   0.095   4.911   5.932 -0.1893 -0.1733  0.0403
10142TIP3    H154621   0.126   4.823   5.952  1.1881  0.6461  1.7435
10142TIP3    H254622   0.025   4.927   5.994  2.2722  1.3550  2.6691
10143TIP3   OH254623   3.388   0.373   4.380 -0.5926  0.4426 -0.2854
10143TIP3    H154624   3.391   0.453   4.433  0.1732  2.2558 -2.8904
10143TIP3    H254625   3.477   0.362   4.348 -1.1087 -0.3948 -1.4861
10144TIP3   OH254626   3.768   4.184   5.557  0.0340  0.1460 -0.0987
10144TIP3    H154627   3.769   4.130   5.478  1.6446  2.8756 -2.1242
10144TIP3    H254628   3.859   4.189   5.584 -0.2150  1.0289  0.6373
10145TIP3   OH254629   1.489   6.568   4.431  0.3723 -0.1080  0.0831
10145TIP3    H154630   1.413   6.562   4.489  1.2608  0.3887  1.3425
10145TIP3    H254631   1.545   6.496   4.459  0.0795 -0.9115 -1.3158
10146TIP3   OH254632   3.387   2.807   5.567 -0.7707 -0.1577 -0.2702
10146TIP3    H154633   3.364   2.767   5.483 -2.6573  0.0499  0.1024
10146TIP3    H254634   3.334   2.760   5.631 -0.1992  0.4423  0.6591
10147TIP3   OH254635   3.946   3.106   6.141 -0.6333 -0.4857  0.2014
10147TIP3    H154636   3.955   3.065   6.056  2.0866 -0.1316  0.2355
10147TIP3    H254637   4.035   3.130   6.166 -1.2121 -1.2235  3.4776
10148TIP3   OH254638   1.984   2.245   5.545  0.0129 -0.1170 -0.1869
10148TIP3    H154639   1.915   2.203   5.495 -0.2059 -1.6735  1.3415
10148TIP3    H254640   2.010   2.320   5.491  0.4016 -2.1253 -3.0318
10149TIP3   OH254641   0.201   7.149   4.721 -0.5030 -0.3890 -0.0539
10149TIP3    H154642   0.162   7.234   4.704 -0.6951 -0.5624 -0.4894
10149TIP3    H254643   0.189   7.100   4.640 -0.4242 -0.8412  0.2022
10150TIP3   OH254644   2.342   6.791   5.713  0.6497 -0.2219 -0.3578
10150TIP3    H154645   2.376   6.716   5.761  1.4177  0.5417  0.3228
10150TIP3    H254646   2.318   6.854   5.781 -0.2589  0.0403 -0.9095
10151TIP3   OH254647   2.798   6.924   6.505 -0.0938  0.6078 -0.5879
10151TIP3    H154648   2.862   6.928   6.434 -1.0417  1.2503 -1.4276
10151TIP3    H254649   2.722   6.971   6.472 -1.0062 -0.1161  0.4033
10152TIP3   OH254650   7.117   6.755   6.217  0.4299 -0.5579 -0.1375
10152TIP3    H154651   7.147   6.667   6.243 -2.1626 -1.8214 -1.0971
10152TIP3    H254652   7.103   6.800   6.300 -0.4862 -1.9200  0.4914
10153TIP3   OH254653   2.598   0.360   4.304  0.0531  0.4166  0.3703
10153TIP3    H154654   2.683   0.356   4.260  0.4741  1.6042  1.0402
10153TIP3    H254655   2.538   0.398   4.239 -0.1529 -1.0428 -0.3359
10154TIP3   OH254656   4.841   5.608   7.077 -0.1808  0.2879  0.1498
10154TIP3    H154657   4.883   5.690   7.053 -0.9928  0.4471 -0.7873
10154TIP3    H254658   4.909   5.542   7.067  0.5733  0.8656  1.2301
10155TIP3   OH254659   0.452   2.004   4.113  0.5296 -0.8502  0.0671
10155TIP3    H154660   0.367   2.005   4.158  1.2839 -0.6245  1.5824
10155TIP3    H254661   0.451   2.083   4.058  0.9955  1.1129  2.6585
10156TIP3   OH254662   1.099   1.377   3.979 -0.4054  0.5568  0.7394
10156TIP3    H154663   1.054   1.318   3.918  0.0339  0.1459  0.8065
10156TIP3    H254664   1.067   1.464   3.957 -1.7501  0.2181  1.2124
10157TIP3   OH254665   4.479   4.626   6.786 -0.4759 -0.5643  0.1463
10157TIP3    H154666   4.433   4.548   6.756 -0.5937 -0.5067  0.1749
10157TIP3    H254667   4.429   4.699   6.748 -0.8311 -0.4781  0.7552
10158TIP3   OH254668   0.057   6.596   6.191  0.1574  0.1799  0.1983
10158TIP3    H154669  -0.027   6.576   6.151  0.2751 -0.1163  0.0984
10158TIP3    H254670   0.120   6.590   6.120  0.1071  1.6275  0.0041
10159TIP3   OH254671   3.399   1.934   3.936  0.3673  0.4357  0.6126
10159TIP3    H154672   3.375   2.027   3.943 -0.2950  0.3115  0.1466
10159TIP3    H254673   3.462   1.920   4.007 -0.3938  0.9734  1.4260
10160TIP3   OH254674   0.582   3.452   6.343  0.1845 -0.2642  0.1640
10160TIP3    H154675   0.572   3.393   6.418  1.2070  0.7878  1.1672
10160TIP3    H254676   0.495   3.491   6.332 -0.4044 -1.6315 -0.2684
10161TIP3   OH254677   7.424   6.087   5.448  0.0625  0.0609  0.2294
10161TIP3    H154678   7.329   6.098   5.450 -0.1490 -1.4652 -0.3714
10161TIP3    H254679   7.449   6.112   5.359 -0.0061 -1.0257 -0.1140
10162TIP3   OH254680   2.891   4.959   6.188  0.1415 -0.1769 -0.0551
10162TIP3    H154681   2.862   4.925   6.273 -0.7557  0.1027 -0.2410
10162TIP3    H254682   2.816   4.946   6.130 -0.2991  2.2141 -0.1120
10163TIP3   OH254683   3.927   2.098   6.460 -0.1239 -0.6114  0.0916
10163TIP3    H154684   3.883   2.143   6.388 -1.4224 -2.2145 -0.1634
10163TIP3    H254685   3.858   2.046   6.502  0.9881 -1.1256  1.3663
10164TIP3   OH254686   6.109   0.639   5.228  0.6115  0.1126  0.4775
10164TIP3    H154687   6.127   0.712   5.287  0.9500  0.7639 -0.4067
10164TIP3    H254688   6.188   0.586   5.230  0.9459  0.5774  0.0012
10165TIP3   OH254689   2.890   0.330   4.182 -0.1961 -0.4068 -0.5042
10165TIP3    H154690   2.891   0.416   4.141 -0.4433  0.0043  0.3379
10165TIP3    H254691   2.957   0.335   4.251 -0.4693 -0.7609 -0.2065
10166TIP3   OH254692   7.019   6.167   4.378 -0.7873  0.4528  0.4220
10166TIP3    H154693   6.954   6.097   4.391  0.9315 -1.4830 -0.8215
10166TIP3    H254694   6.969   6.240   4.343 -2.3874 -0.7849 -0.0005
10167TIP3   OH254695   7.409   5.861   5.171 -0.0730 -0.0108 -0.4248
10167TIP3    H154696   7.422   5.790   5.234 -0.9857  1.7226  1.8771
10167TIP3    H254697   7.495   5.871   5.129  0.4520 -1.5576  0.1992
10168TIP3   OH254698   4.797   2.869   3.902  0.3251 -0.4371 -0.2603
10168TIP3    H154699   4.885   2.833   3.895  0.2319 -1.0656  1.3342
10168TIP3    H254700   4.810   2.955   3.942  0.3625  0.4124 -2.0186
10169TIP3   OH254701   5.462   7.143   4.924  0.4156 -0.5545 -0.2897
10169TIP3    H154702   5.483   7.187   4.841  0.4843  0.4813  0.2607
10169TIP3    H254703   5.402   7.203   4.968  0.0112 -1.3163  0.2133
10170TIP3   OH254704   5.138   0.604   4.514  0.3213 -0.4337  0.0128
10170TIP3    H154705   5.065   0.585   4.573  0.0711 -0.4675 -0.3037
10170TIP3    H254706   5.115   0.687   4.473  0.6300 -0.2687  0.1721
10171TIP3   OH254707   3.520   4.079   6.215  0.0791  0.3766 -0.1798
10171TIP3    H154708   3.481   4.105   6.298  0.0180  0.6634 -0.2973
10171TIP3    H254709   3.527   3.983   6.221  0.1334  0.3997  0.1791
10172TIP3   OH254710   0.755   4.722   4.264 -0.0320 -0.0959 -0.3242
10172TIP3    H154711   0.732   4.707   4.356 -0.9556  1.7209 -0.2039
10172TIP3    H254712   0.803   4.644   4.238 -0.2379 -0.8989  1.5415
10173TIP3   OH254713   1.676   6.694   5.636  0.6794  0.2267  0.1364
10173TIP3    H154714   1.767   6.721   5.650  0.4736  0.9404  0.1426
10173TIP3    H254715   1.680   6.599   5.628  1.6856  0.3889 -1.9120
10174TIP3   OH254716   7.206   4.548   6.071  0.5766  0.1392  0.5535
10174TIP3    H154717   7.139   4.519   6.134  2.0447 -2.9428  0.8591
10174TIP3    H254718   7.289   4.530   6.115  1.6331  0.5704 -1.2005
10175TIP3   OH254719   0.147   6.978   4.484  0.1860 -0.3194  0.3549
10175TIP3    H154720   0.183   6.896   4.518 -0.7850 -0.7513  0.3767
10175TIP3    H254721   0.058   6.956   4.458 -0.1154  0.7484  0.4321
10176TIP3   OH254722   5.248   4.639   5.612  0.2470  0.3091 -0.6405
10176TIP3    H154723   5.242   4.629   5.517 -1.1672 -2.1818 -0.3735
10176TIP3    H254724   5.329   4.592   5.636  1.0396  1.6162 -0.6349
10177TIP3   OH254725   7.049   7.393   4.068  0.0517 -0.1389  0.0904
10177TIP3    H154726   7.088   7.479   4.085  1.3616 -0.8244  0.6700
10177TIP3    H254727   7.124   7.335   4.056 -0.7214 -1.7779  2.5462
10178TIP3   OH254728   0.693   2.153   4.276  0.3467  0.1020  0.3661
10178TIP3    H154729   0.705   2.071   4.325  3.8417 -0.7013 -1.4817
10178TIP3    H254730   0.773   2.202   4.293 -0.2715  1.7129 -1.1235
10179TIP3   OH254731   1.367   4.445   4.848  0.0460 -0.1577 -0.3832
10179TIP3    H154732   1.437   4.385   4.822  0.7540 -0.6231  2.2868
10179TIP3    H254733   1.335   4.410   4.931 -3.0510  0.3604 -1.2415
10180TIP3   OH254734   7.517   4.365   6.502 -0.1827  0.8369 -0.2539
10180TIP3    H154735   7.544   4.293   6.559  2.0905 -0.1724 -2.4210
10180TIP3    H254736   7.560   4.443   6.539  2.4459 -0.0393 -1.2212
10181TIP3   OH254737   4.429   3.008   4.900 -0.6530 -0.2999  0.0950
10181TIP3    H154738   4.432   2.997   4.804  1.3002  1.0646 -0.0535
10181TIP3    H254739   4.517   2.985   4.929 -1.2469 -0.7523  1.5983
10182TIP3   OH254740   3.636   1.574   5.612  0.0910  0.3488  0.0449
10182TIP3    H154741   3.656   1.547   5.522  1.1155  1.9752 -0.2510
10182TIP3    H254742   3.540   1.585   5.613 -0.0155 -0.4299 -0.6099
10183TIP3   OH254743   5.801   5.771   4.253 -0.0861  0.1754 -0.6085
10183TIP3    H154744   5.775   5.821   4.331 -1.9194  0.6595 -1.4843
10183TIP3    H254745   5.751   5.690   4.259  0.5618 -0.2437 -0.7719
10184TIP3   OH254746   4.168   2.993   4.945  0.5395  0.1888  0.0793
10184TIP3    H154747   4.247   3.039   4.916  0.6190  0.4353  0.6843
10184TIP3    H254748   4.183   2.902   4.919  0.9273  0.2753 -0.0052
10185TIP3   OH254749   4.758   1.504   5.570 -0.6061 -0.0634 -0.4765
10185TIP3    H154750   4.768   1.580   5.513  1.0611 -0.7370 -1.1188
10185TIP3    H254751   4.769   1.539   5.659  1.0365  0.3208 -0.8110
10186TIP3   OH254752   4.637   1.996   4.325  0.0656  0.2396 -0.5260
10186TIP3    H154753   4.647   2.006   4.419 -1.5586  0.5095 -0.3459
10186TIP3    H254754   4.722   2.018   4.289  0.1982  1.9944  0.7544
10187TIP3   OH254755   2.270   2.664   3.592  0.0675 -0.4146 -0.3323
10187TIP3    H154756   2.207   2.592   3.588 -0.7624  0.3551 -3.1705
10187TIP3    H254757   2.355   2.620   3.601 -0.5096 -1.6835 -0.7618
10188TIP3   OH254758   4.407   3.455   5.173 -0.5186 -0.4030 -0.0783
10188TIP3    H154759   4.360   3.496   5.246 -1.0648  0.7561 -1.0313
10188TIP3    H254760   4.494   3.495   5.176 -0.3756 -0.7326  0.2310
10189TIP3   OH254761   5.752   1.353   5.151 -0.3131  0.1878  0.5700
10189TIP3    H154762   5.676   1.308   5.189 -0.8949  0.7410  0.0763
10189TIP3    H254763   5.717   1.435   5.117 -0.1161 -0.8241 -2.3728
10190TIP3   OH254764   3.742   4.855   6.146 -0.2735 -0.2008  0.6786
10190TIP3    H154765   3.820   4.855   6.201 -1.0429 -1.5393  1.8457
10190TIP3    H254766   3.680   4.912   6.192 -0.6038 -0.5832  0.7111
10191TIP3   OH254767   7.328   1.680   5.125  0.0197 -0.2274  0.5058
10191TIP3    H154768   7.391   1.618   5.162 -1.1008 -2.5562 -1.2319
10191TIP3    H254769   7.374   1.722   5.053  0.1556 -0.5855  0.3820
10192TIP3   OH254770   1.719   5.417   6.229 -0.3250  0.5247  0.5616
10192TIP3    H154771   1.804   5.373   6.232 -0.1696  0.6944 -0.7178
10192TIP3    H254772   1.732   5.498   6.278 -0.4861 -0.5742  2.5474
10193TIP3   OH254773   7.419   7.627   4.483  0.0834  0.3437  0.3776
10193TIP3    H154774   7.437   7.668   4.398 -1.1098  1.0153  0.4352
10193TIP3    H254775   7.358   7.556   4.463 -3.2961  2.8542  1.0607
10194TIP3   OH254776   4.743   0.630   4.863 -0.0874 -0.5244 -0.1980
10194TIP3    H154777   4.752   0.535   4.863 -0.4970 -0.5657 -0.5773
10194TIP3    H254778   4.673   0.648   4.800  1.5113  0.1669 -1.8660
10195TIP3   OH254779   3.643   5.962   5.217  0.7990  0.1542  0.1869
10195TIP3    H154780   3.690   5.984   5.137  0.4444 -0.0290 -0.0774
10195TIP3    H254781   3.710   5.959   5.285  1.3760 -1.2609 -0.3935
10196TIP3   OH254782   2.074   5.559   5.243  0.8588  0.0463 -0.2145
10196TIP3    H154783   2.056   5.644   5.282  0.7871 -0.3598  0.6776
10196TIP3    H254784   1.988   5.524   5.220  0.7583 -0.3665  0.7223
10197TIP3   OH254785   0.861   0.052   4.903 -0.0524  0.0875 -0.0281
10197TIP3    H154786   0.768   0.032   4.894 -0.2914  0.3938  1.5890
10197TIP3    H254787   0.886   0.016   4.988  1.0349  1.0320  0.0751
10198TIP3   OH254788   0.786   5.860   6.311 -0.2307 -0.2753 -0.6543
10198TIP3    H154789   0.830   5.840   6.229  1.7546 -0.9496  0.4916
10198TIP3    H254790   0.791   5.778   6.361  0.8039  0.7561  1.0451
10199TIP3   OH254791   3.026   1.682   5.246 -0.0759  0.0355  0.7736
10199TIP3    H154792   2.939   1.708   5.278 -0.0549  1.7163 -0.3912
10199TIP3    H254793   3.024   1.701   5.152  0.7320 -2.2976  0.2068
10200TIP3   OH254794   3.344   2.164   4.308  0.7804  0.7767  0.1225
10200TIP3    H154795   3.373   2.183   4.219 -1.6597 -1.7881 -1.3994
10200TIP3    H254796   3.361   2.070   4.320 -1.8976  0.3201  1.0339
10201TIP3   OH254797   3.606   6.325   5.806 -0.0023 -0.1952  0.6541
10201TIP3    H154798   3.570   6.318   5.718  2.5411  2.2473 -0.7523
10201TIP3    H254799   3.531   6.345   5.862 -1.2302  2.4464 -1.6947
10202TIP3   OH254800   5.523   4.542   5.293 -0.0051 -0.4222  0.1645
10202TIP3    H154801   5.579   4.558   5.217 -0.1629  1.6325  0.4201
10202TIP3    H254802   5.555   4.460   5.330  0.4161 -1.1979 -1.7954
10203TIP3   OH254803   2.016   7.358   6.108  0.2289 -0.6583  0.1581
10203TIP3    H154804   2.059   7.319   6.184  1.0460  0.8254  0.4920
10203TIP3    H254805   1.944   7.409   6.145  0.5366 -0.0500 -0.0787
10204TIP3   OH254806   5.164   6.988   6.057 -0.3358  0.1946  0.1573
10204TIP3    H154807   5.133   6.910   6.012 -0.9720 -0.6858  2.0206
10204TIP3    H254808   5.184   6.958   6.145  2.1660  1.5629  0.1299
10205TIP3   OH254809   2.933   1.947   3.961  0.0793  0.4220  0.3279
10205TIP3    H154810   2.868   2.017   3.975  0.9422  1.0803  1.1452
10205TIP3    H254811   2.976   1.971   3.879  1.3005  1.6434  1.2746
10206TIP3   OH254812   1.934   3.228   4.074 -0.0133 -0.8649 -0.8194
10206TIP3    H154813   1.860   3.174   4.048  0.1252 -0.4765 -2.0917
10206TIP3    H254814   1.939   3.296   4.007  0.2025  0.3633  0.3833
10207TIP3   OH254815   0.709   4.328   4.452  0.1348  0.2270  0.0616
10207TIP3    H154816   0.727   4.252   4.397 -0.3732 -0.5324  0.9283
10207TIP3    H254817   0.766   4.397   4.417  0.1064 -0.3395 -1.1622
10208TIP3   OH254818   3.014   4.713   3.903  0.2827 -0.1236 -0.3077
10208TIP3    H154819   3.082   4.761   3.950  0.4533  0.2302 -0.9024
10208TIP3    H254820   2.991   4.640   3.961  0.6553  0.1654  0.2107
10209TIP3   OH254821   5.026   2.644   3.879  0.0595 -0.1533 -0.0321
10209TIP3    H154822   5.057   2.732   3.856  0.7679 -0.1730  0.8150
10209TIP3    H254823   5.054   2.589   3.805  1.7057 -0.0945  0.5128
10210TIP3   OH254824   3.631   0.170   4.524  0.7081 -0.1241  0.4130
10210TIP3    H154825   3.603   0.245   4.575  1.5183 -0.4917  1.4254
10210TIP3    H254826   3.712   0.198   4.481  0.7041 -0.2399  0.3277
10211TIP3   OH254827   1.532   5.914   4.914  0.2098  0.0750  0.1484
10211TIP3    H154828   1.499   6.004   4.912  0.4435  0.1726  0.6207
10211TIP3    H254829   1.508   5.878   4.829 -3.2284 -0.6197  1.2442
10212TIP3   OH254830   7.191   7.390   5.616 -0.4335  0.2441 -0.4709
10212TIP3    H154831   7.282   7.363   5.604 -0.4150 -1.1236  2.1060
10212TIP3    H254832   7.197   7.476   5.658 -0.2558 -0.3362  0.7413
10213TIP3   OH254833   0.797   7.558   5.410 -0.2320 -0.5197 -0.1993
10213TIP3    H154834   0.755   7.615   5.474 -0.3219  0.1116 -0.8160
10213TIP3    H254835   0.726   7.502   5.378 -0.9288  1.3044 -2.0853
10214TIP3   OH254836   3.693   6.831   4.844  0.0510 -0.0696  0.5388
10214TIP3    H154837   3.757   6.853   4.911 -0.3592 -0.8659  1.2162
10214TIP3    H254838   3.739   6.767   4.788 -0.1048 -0.5594  0.9612
10215TIP3   OH254839   2.587   4.188   3.879  0.0839 -0.3831  0.3596
10215TIP3    H154840   2.551   4.106   3.848 -2.9568  1.2149 -0.7243
10215TIP3    H254841   2.536   4.209   3.957  0.1736  0.8580  0.1145
10216TIP3   OH254842   6.657   2.123   6.048  0.2382  0.3248 -0.3366
10216TIP3    H154843   6.583   2.102   6.104  0.6937 -1.1368 -0.2455
10216TIP3    H254844   6.637   2.082   5.964  0.9878 -0.1722 -0.2780
10217TIP3   OH254845   3.546   6.207   5.320  0.1564 -0.1866 -0.2819
10217TIP3    H154846   3.630   6.243   5.290 -1.1585  2.6570 -0.9274
10217TIP3    H254847   3.539   6.123   5.275  2.3955 -0.2537 -0.6438
10218TIP3   OH254848   2.446   5.636   4.571 -0.1720 -0.1719  0.2624
10218TIP3    H154849   2.382   5.659   4.504 -0.1934 -0.2755  0.2470
10218TIP3    H254850   2.398   5.643   4.654 -0.9774 -2.7601  0.1166
10219TIP3   OH254851   6.911   6.115   4.958  0.0231  0.5802  0.0254
10219TIP3    H154852   6.985   6.056   4.942 -1.2724 -1.0867 -0.0660
10219TIP3    H254853   6.865   6.120   4.875 -1.3932 -0.4859  0.7048
10220TIP3   OH254854   0.287   4.545   4.622 -0.1454 -0.2887 -0.3365
10220TIP3    H154855   0.338   4.626   4.627  1.2869 -1.2302  1.0971
10220TIP3    H254856   0.351   4.476   4.607 -1.3887 -1.1523 -2.0212
10221TIP3   OH254857   3.026   6.080   5.116  0.0709 -0.6126 -0.3675
10221TIP3    H154858   2.936   6.112   5.106  0.7314  0.8558 -2.0688
10221TIP3    H254859   3.064   6.137   5.183 -0.0088 -0.6683 -0.2743
10222TIP3   OH254860   1.990   0.236   6.219  0.1905 -0.1169  0.2365
10222TIP3    H154861   1.894   0.232   6.209 -0.0547 -1.6599  2.4646
10222TIP3    H254862   2.023   0.224   6.130 -1.6945 -2.8518 -0.2550
10223TIP3   OH254863   4.859   2.284   3.793 -0.2921  0.1841  0.0976
10223TIP3    H154864   4.833   2.344   3.863  0.3548  1.5423 -0.7788
10223TIP3    H254865   4.778   2.240   3.767 -1.0200  1.5645 -0.0258
10224TIP3   OH254866   7.056   6.792   5.512 -0.3961 -0.0449  0.0046
10224TIP3    H154867   6.997   6.743   5.570 -0.5059 -0.2228 -0.2577
10224TIP3    H254868   6.999   6.851   5.464 -0.6002 -1.3097 -1.4032
10225TIP3   OH254869   0.564   3.446   4.594 -0.7452 -0.1261 -0.1792
10225TIP3    H154870   0.616   3.459   4.673 -1.0012  0.9691 -0.1799
10225TIP3    H254871   0.476   3.475   4.618 -2.0482 -4.1178  0.5565
10226TIP3   OH254872   1.684   2.890   4.741 -0.0173 -0.6212 -0.1066
10226TIP3    H154873   1.706   2.830   4.669  2.2076 -1.7787  1.3992
10226TIP3    H254874   1.709   2.976   4.708  0.3698 -1.0342 -0.9442
10227TIP3   OH254875   3.223   5.738   4.596 -0.4004 -0.0364 -0.5117
10227TIP3    H154876   3.305   5.757   4.549  0.2105  2.0669  1.2203
10227TIP3    H254877   3.203   5.820   4.641 -1.4551 -1.6164  2.0759
10228TIP3   OH254878   1.479   1.347   5.006  0.1081 -0.5083 -0.1426
10228TIP3    H154879   1.524   1.340   4.921 -0.3116 -0.7645 -0.3473
10228TIP3    H254880   1.523   1.420   5.050  0.5978 -0.6331 -0.4169
10229TIP3   OH254881   6.944   5.563   4.642  0.6818 -0.2949  0.2798
10229TIP3    H154882   6.919   5.487   4.588 -3.8031  0.9317  0.2256
10229TIP3    H254883   6.927   5.535   4.732 -1.3264  0.6359  0.2360
10230TIP3   OH254884   2.684   4.201   4.995  0.2700 -0.0596  0.2561
10230TIP3    H154885   2.680   4.233   5.086  1.2966  0.7168  0.0526
10230TIP3    H254886   2.611   4.245   4.951 -0.7316 -1.0551  0.8658
10231TIP3   OH254887   6.443   3.684   5.646 -0.0325 -0.2707  0.5300
10231TIP3    H154888   6.418   3.768   5.609 -0.9953 -0.3481  0.9823
10231TIP3    H254889   6.428   3.621   5.576 -0.7895 -0.2680  0.6828
10232TIP3   OH254890   1.182   3.156   4.549  0.1035 -0.2052  0.5571
10232TIP3    H154891   1.234   3.145   4.470 -0.9373 -0.3344 -0.1379
10232TIP3    H254892   1.199   3.246   4.577 -2.3398  1.1914 -1.9895
10233TIP3   OH254893   4.112   2.985   5.200 -0.2983 -0.1541 -0.3786
10233TIP3    H154894   4.180   2.919   5.211  0.1630  0.6302  2.4072
10233TIP3    H254895   4.128   3.023   5.114  1.1489 -1.7658 -0.8687
10234TIP3   OH254896   1.842   4.445   6.185 -0.2573  0.2084  0.2891
10234TIP3    H154897   1.814   4.533   6.161 -1.1862 -0.1467  0.0224
10234TIP3    H254898   1.915   4.427   6.125 -2.2725 -0.5021 -2.1430
10235TIP3   OH254899   1.670   4.664   5.758 -0.3632  0.3553 -0.4266
10235TIP3    H154900   1.706   4.698   5.676  0.2839  0.9488  0.0849
10235TIP3    H254901   1.626   4.583   5.733 -0.3042  0.6016 -1.3809
10236TIP3   OH254902   6.836   2.749   4.582 -0.1363 -0.2186  0.7162
10236TIP3    H154903   6.900   2.678   4.578 -1.5905 -1.5860 -3.7312
10236TIP3    H254904   6.761   2.710   4.628  1.0120  0.4430  3.3200
10237TIP3   OH254905   3.141   4.316   6.074  0.9142  0.0552  0.1689
10237TIP3    H154906   3.086   4.299   6.151  0.2325 -0.0788 -0.3356
10237TIP3    H254907   3.188   4.396   6.096  2.1513 -0.9854  1.4907
10238TIP3   OH254908   6.772   6.974   6.102  0.2653 -0.0400  0.0149
10238TIP3    H154909   6.682   6.995   6.076  0.3953  2.3571  1.2155
10238TIP3    H254910   6.769   6.974   6.198  1.8646  1.7770  0.1056
10239TIP3   OH254911   0.617   1.128   5.757  0.1765 -0.1084  0.2106
10239TIP3    H154912   0.535   1.078   5.762  1.9765 -3.6080 -1.3288
10239TIP3    H254913   0.595   1.205   5.705 -2.0102 -1.3204 -0.8035
10240TIP3   OH254914   0.538   3.037   5.046  0.1565  0.0833 -0.0753
10240TIP3    H154915   0.618   3.088   5.059  1.6132 -1.8345 -0.9700
10240TIP3    H254916   0.516   3.051   4.954 -0.2164  0.1448  0.0233
10241TIP3   OH254917   2.187   7.649   5.230 -0.0591 -0.1496  0.2449
10241TIP3    H154918   2.149   7.700   5.158 -0.1890 -1.4524 -0.6499
10241TIP3    H254919   2.123   7.579   5.246  1.0349 -1.2253  0.0389
10242TIP3   OH254920   2.608   3.823   6.025 -0.6377 -0.3471  0.1045
10242TIP3    H154921   2.550   3.755   5.988 -1.6808  0.5355  0.0551
10242TIP3    H254922   2.669   3.843   5.954  1.2393 -2.8604  0.8717
10243TIP3   OH254923   5.101   1.778   5.428 -0.1310 -0.3571  0.2908
10243TIP3    H154924   5.006   1.765   5.428 -0.0108 -1.3485  0.6597
10243TIP3    H254925   5.124   1.788   5.335 -0.5730 -0.2721  0.1899
10244TIP3   OH254926   1.354   1.442   6.635  0.4177 -0.3633  0.1878
10244TIP3    H154927   1.438   1.485   6.617  0.8465 -0.9587  0.6927
10244TIP3    H254928   1.293   1.481   6.573  1.1234 -0.0721 -0.3381
10245TIP3   OH254929   6.188   2.695   5.815  0.3522 -0.3177 -0.2335
10245TIP3    H154930   6.140   2.761   5.766  1.9738 -0.4927 -2.2105
10245TIP3    H254931   6.155   2.612   5.783  1.7115 -0.4363 -1.4248
10246TIP3   OH254932   2.988   4.472   3.585 -0.2783  0.1935 -0.5775
10246TIP3    H154933   2.932   4.413   3.635 -1.0778  0.3335 -1.3022
10246TIP3    H254934   2.988   4.436   3.497  0.8013  0.1776 -0.5839
10247TIP3   OH254935   1.639   5.560   5.659  0.5281  0.2111 -0.5442
10247TIP3    H154936   1.722   5.592   5.624  1.0441 -0.6162 -0.0952
10247TIP3    H254937   1.640   5.466   5.644 -0.4702  0.2279 -0.8067
10248TIP3   OH254938   7.440   7.369   4.237 -0.2214 -0.3490 -0.6327
10248TIP3    H154939   7.416   7.300   4.299 -0.1809 -0.0033 -0.2270
10248TIP3    H254940   7.515   7.413   4.278 -0.2865 -0.0258 -0.8582
10249TIP3   OH254941   6.927   1.186   5.329  0.0229 -0.8714  0.1470
10249TIP3    H154942   6.916   1.225   5.243  0.2625 -0.0357  0.4862
10249TIP3    H254943   6.853   1.219   5.381  1.6755  1.4098  1.2239
10250TIP3   OH254944   1.355   3.604   5.832  0.5491 -0.5009  0.5749
10250TIP3    H154945   1.377   3.514   5.811 -0.1023 -0.9320  1.6765
10250TIP3    H254946   1.368   3.611   5.926  0.5843  0.5604  0.5091
10251TIP3   OH254947   0.911   4.388   5.241 -0.3051 -0.1159  0.8952
10251TIP3    H154948   0.975   4.451   5.275  0.3640  0.1966 -0.8217
10251TIP3    H254949   0.889   4.333   5.316  0.5843  0.9299  1.9653
10252TIP3   OH254950   0.566   7.336   6.780 -0.0223  0.1583  0.0835
10252TIP3    H154951   0.626   7.384   6.722  1.4919 -1.7426 -0.0177
10252TIP3    H254952   0.619   7.318   6.858 -0.7600 -0.7757  0.3719
10253TIP3   OH254953   1.908   2.918   4.522 -0.0844 -0.4024 -0.3952
10253TIP3    H154954   1.918   2.950   4.433 -2.8502 -0.7792 -0.9456
10253TIP3    H254955   1.876   2.993   4.572 -1.6177 -0.9384 -0.5077
10254TIP3   OH254956   0.473   2.341   4.031  0.4752  0.0365  0.1881
10254TIP3    H154957   0.492   2.408   4.097  0.8741 -0.9366  1.0871
10254TIP3    H254958   0.551   2.339   3.977  0.0090  1.0868 -0.5633
10255TIP3   OH254959   0.460   6.597   4.067  0.0996 -0.0880 -0.2782
10255TIP3    H154960   0.510   6.652   4.006 -0.6635  1.1573  0.1735
10255TIP3    H254961   0.526   6.549   4.116  0.7598 -0.4472 -1.4628
10256TIP3   OH254962   5.136   2.545   4.822  0.2913 -0.0711  0.1057
10256TIP3    H154963   5.125   2.457   4.786 -1.5169 -0.1279  0.6732
10256TIP3    H254964   5.101   2.603   4.754 -0.4220  0.0373  0.5560
10257TIP3   OH254965   5.524   7.593   5.216  0.4078 -0.2469 -0.0851
10257TIP3    H154966   5.565   7.644   5.286  1.1953 -1.4820  0.3915
10257TIP3    H254967   5.454   7.544   5.259 -1.2201  1.3533 -0.7782
10258TIP3   OH254968   7.297   2.058   4.432 -0.1833 -0.1417 -0.1448
10258TIP3    H154969   7.240   1.985   4.454  0.6675 -1.3082 -1.6023
10258TIP3    H254970   7.322   2.042   4.341  1.6126  0.8902  0.1175
10259TIP3   OH254971   6.372   4.196   4.308 -0.4428  0.1682  0.5725
10259TIP3    H154972   6.444   4.133   4.316 -0.6651 -0.1782 -0.0847
10259TIP3    H254973   6.367   4.237   4.394  0.5769  0.2417  0.6073
10260TIP3   OH254974   3.901   3.530   3.769 -0.0531  0.0687  0.4597
10260TIP3    H154975   3.931   3.599   3.710 -0.3713  1.1695  1.5319
10260TIP3    H254976   3.879   3.576   3.850  0.2548 -1.3771  1.3996
10261TIP3   OH254977   6.473   3.242   4.126 -0.2739 -0.1065 -1.0579
10261TIP3    H154978   6.498   3.224   4.036  0.4849 -0.9299 -0.6950
10261TIP3    H254979   6.428   3.326   4.122 -1.0154 -0.5382 -2.3300
10262TIP3   OH254980   3.126   5.769   3.670  0.2021  0.0166  0.2186
10262TIP3    H154981   3.100   5.685   3.707 -1.0651  0.4921  0.4555
10262TIP3    H254982   3.117   5.758   3.576  0.1177 -0.1304  0.2439
10263TIP3   OH254983   1.743   6.434   5.618 -0.7908  0.3242  0.6588
10263TIP3    H154984   1.732   6.362   5.680 -0.3247  0.5587  1.0206
10263TIP3    H254985   1.836   6.457   5.623  0.0315 -1.7055 -2.4074
10264TIP3   OH254986   1.982   3.309   4.491  0.0257  0.4339  0.3415
10264TIP3    H154987   2.045   3.243   4.462 -1.2886 -0.1779 -1.2295
10264TIP3    H254988   1.983   3.374   4.421 -0.2843  0.9936  0.8508
10265TIP3   OH254989   5.184   2.939   4.758 -0.2616  0.2508  0.8991
10265TIP3    H154990   5.256   2.882   4.786  0.8260  0.3620 -1.4698
10265TIP3    H254991   5.135   2.887   4.695  0.0865  1.5262 -0.4602
10266TIP3   OH254992   5.413   3.575   5.932 -0.2986 -0.1435 -0.6425
10266TIP3    H154993   5.337   3.531   5.971  0.0645 -0.1989  0.0160
10266TIP3    H254994   5.382   3.664   5.913 -0.3786 -0.0088  0.0997
10267TIP3   OH254995   2.450   2.782   3.843 -0.3524  0.2819 -0.8161
10267TIP3    H154996   2.488   2.852   3.790 -0.3845  0.2383 -0.8962
10267TIP3    H254997   2.432   2.712   3.781  0.7063 -0.2344 -0.5604
10268TIP3   OH254998   3.582   0.781   5.021  0.8966 -0.3736 -0.1223
10268TIP3    H154999   3.657   0.734   5.058  2.2053  1.2302 -0.6098
10268TIP3    H255000   3.528   0.803   5.097  2.1080  0.4032  0.5658
10269TIP3   OH255001   1.562   1.559   6.500 -0.8832  0.3078 -0.5078
10269TIP3    H155002   1.647   1.552   6.456 -1.4776 -1.4032 -1.4992
10269TIP3    H255003   1.500   1.576   6.429 -1.8437 -2.3490 -0.4268
10270TIP3   OH255004   4.687   4.419   5.264 -0.2490 -0.4200 -0.0619
10270TIP3    H155005   4.720   4.365   5.336 -1.3422  0.0370  0.8168
10270TIP3    H255006   4.763   4.470   5.235  0.5086 -1.5283 -0.1043
10271TIP3   OH255007   0.326   7.598   5.184 -0.7218 -0.6946  0.5636
10271TIP3    H155008   0.274   7.539   5.130 -0.3818 -0.6360  0.1657
10271TIP3    H255009   0.322   7.560   5.272  1.2988 -2.5821 -0.0779
10272TIP3   OH255010   6.940   6.659   4.618 -0.0167  0.0512  0.0101
10272TIP3    H155011   6.855   6.678   4.659  0.1796  2.4458 -0.5550
10272TIP3    H255012   6.921   6.651   4.525  0.4247  1.0566 -0.1756
10273TIP3   OH255013   0.072   7.158   5.458  0.0364 -0.5944 -0.0081
10273TIP3    H155014   0.039   7.148   5.369 -0.8438  0.7005  0.1583
10273TIP3    H255015   0.003   7.120   5.513  0.8765 -2.0281  0.1290
10274TIP3   OH255016   2.604   1.157   5.291 -0.0222  0.1081  0.1897
10274TIP3    H155017   2.620   1.070   5.326 -0.6379 -0.0516  0.0959
10274TIP3    H255018   2.646   1.217   5.352  1.2951 -0.2991 -0.2951
10275TIP3   OH255019   2.799   1.371   3.860 -0.0520 -0.0727 -0.1666
10275TIP3    H155020   2.848   1.438   3.814 -0.4973 -0.6180 -1.4984
10275TIP3    H255021   2.782   1.408   3.947  0.2889  1.2402 -0.6405
10276TIP3   OH255022   0.688   2.773   5.660 -1.0618  0.1197 -0.1815
10276TIP3    H155023   0.610   2.752   5.712 -0.2774 -0.4598  0.7760
10276TIP3    H255024   0.680   2.717   5.582 -0.9211 -0.9420  0.5528
10277TIP3   OH255025   2.627   1.495   5.976 -0.0932  0.0176  0.0332
10277TIP3    H155026   2.702   1.553   5.987  0.6917 -1.1229  0.9397
10277TIP3    H255027   2.574   1.508   6.054 -1.2144  1.3017 -0.9074
10278TIP3   OH255028   5.642   7.429   4.157  0.1259  0.1606 -0.3208
10278TIP3    H155029   5.681   7.423   4.070  0.5139  0.8233 -0.1946
10278TIP3    H255030   5.572   7.363   4.157  1.4049 -1.2504 -0.4595
10279TIP3   OH255031   7.262   2.046   4.933 -0.1417 -0.6369 -0.5533
10279TIP3    H155032   7.186   2.003   4.973 -0.7589  1.6349  0.8942
10279TIP3    H255033   7.304   2.091   5.006  0.1568  1.6172 -2.0382
10280TIP3   OH255034   4.854   5.621   4.723 -0.3760  0.5452  0.8321
10280TIP3    H155035   4.895   5.697   4.681 -1.8870  0.6097 -0.6351
10280TIP3    H255036   4.787   5.593   4.661 -0.9540 -0.9911  2.0921
10281TIP3   OH255037   4.091   3.240   5.566 -0.5014  0.7103  0.5552
10281TIP3    H155038   4.143   3.243   5.646 -2.1330 -2.8233  1.9658
10281TIP3    H255039   4.144   3.188   5.505 -0.5791  0.7594  0.4454
10282TIP3   OH255040   1.273   4.566   6.311 -0.1189 -0.0626  0.4944
10282TIP3    H155041   1.199   4.627   6.308 -1.6329 -1.8577 -0.4130
10282TIP3    H255042   1.259   4.515   6.391  0.3865 -0.1403  0.5386
10283TIP3   OH255043   0.230   0.214   6.015 -0.4232  0.4454  0.1332
10283TIP3    H155044   0.135   0.227   6.019 -0.2972  1.6156 -0.2265
10283TIP3    H255045   0.259   0.272   5.945  0.6456  0.6455  0.7167
10284TIP3   OH255046   0.825   3.952   5.164 -0.1721 -0.0396  0.0537
10284TIP3    H155047   0.910   3.965   5.121 -0.0272  0.8151  0.5573
10284TIP3    H255048   0.785   3.879   5.118  1.5554 -1.5961  0.8718
10285TIP3   OH255049   3.637   0.692   5.338  0.1021  0.5827  0.7801
10285TIP3    H155050   3.633   0.598   5.352 -0.8689  0.8045  2.2616
10285TIP3    H255051   3.696   0.704   5.263  1.2695 -1.1015  1.3892
10286TIP3   OH255052   6.523   3.486   6.629 -0.5506 -0.2662 -0.6280
10286TIP3    H155053   6.597   3.426   6.621 -0.7514 -0.5544 -0.3446
10286TIP3    H255054   6.562   3.573   6.626 -0.0581 -0.4172  0.8057
10287TIP3   OH255055   2.959   2.319   4.384  0.0370 -0.1567 -0.1412
10287TIP3    H155056   2.886   2.294   4.440  1.1253  1.4587  2.1382
10287TIP3    H255057   2.994   2.236   4.353 -0.1949 -1.1964  2.1630
10288TIP3   OH255058   6.501   2.855   4.682  0.4343  0.4596  0.0334
10288TIP3    H155059   6.504   2.829   4.774 -0.7291  1.3060  0.3374
10288TIP3    H255060   6.522   2.775   4.634  0.7988 -0.0575  1.0160
10289TIP3   OH255061   7.254   2.329   4.879  0.0299 -0.3031 -0.3668
10289TIP3    H155062   7.204   2.286   4.810 -0.8548  0.4364 -0.2066
10289TIP3    H255063   7.340   2.346   4.840  0.7747 -3.0915 -0.1032
10290TIP3   OH255064   5.294   0.883   5.469  0.2981 -0.0363  0.1932
10290TIP3    H155065   5.263   0.793   5.477  0.0961  0.1303  1.5485
10290TIP3    H255066   5.267   0.910   5.381  0.7169 -1.4189 -0.3868
10291TIP3   OH255067   5.695   7.650   5.013 -0.1476  0.6914  0.6509
10291TIP3    H155068   5.642   7.631   5.090  1.6377  0.0738  1.8063
10291TIP3    H255069   5.660   7.592   4.945 -0.1080 -0.6965  1.7722
10292TIP3   OH255070   5.034   7.623   4.552 -0.6103  0.0157 -0.2237
10292TIP3    H155071   5.085   7.544   4.533 -2.5396 -1.3765  0.0788
10292TIP3    H255072   5.081   7.665   4.625  0.7683 -0.4982 -0.7731
10293TIP3   OH255073   3.384   5.816   5.804 -0.1019 -0.3582  0.7803
10293TIP3    H155074   3.339   5.770   5.734 -0.0554  0.5967  0.1023
10293TIP3    H255075   3.367   5.765   5.883 -3.5782  0.7069  0.8574
10294TIP3   OH255076   5.131   4.721   4.260  0.5334  0.3232 -0.0756
10294TIP3    H155077   5.130   4.782   4.186  0.3538  0.1333 -0.2331
10294TIP3    H255078   5.210   4.670   4.248 -0.1088 -0.5301 -0.8246
10295TIP3   OH255079   1.463   0.881   6.544 -0.2921  0.6298 -0.1134
10295TIP3    H155080   1.511   0.938   6.604 -0.4503  0.1528  0.4811
10295TIP3    H255081   1.399   0.938   6.502  0.8121  1.2897 -0.9651
10296TIP3   OH255082   0.046   0.447   4.222 -0.0715 -0.2725  0.0648
10296TIP3    H155083   0.053   0.462   4.317  1.7843  0.7445 -0.1764
10296TIP3    H255084   0.129   0.406   4.198 -0.3845 -0.2094 -1.1809
10297TIP3   OH255085   5.651   6.280   6.348  0.1363 -0.3582 -0.0315
10297TIP3    H155086   5.640   6.312   6.259 -1.5087  1.3465  0.7233
10297TIP3    H255087   5.742   6.299   6.369  0.5521 -0.8051 -1.3424
10298TIP3   OH255088   7.381   3.586   4.958 -0.0169  0.1064  0.3468
10298TIP3    H155089   7.294   3.556   4.985 -0.2545  1.2656  0.9317
10298TIP3    H255090   7.364   3.666   4.908  0.7767  1.4062  2.0329
10299TIP3   OH255091   0.059   1.324   5.767 -0.8093 -0.0498 -0.2142
10299TIP3    H155092   0.035   1.416   5.777 -1.6603 -0.1737 -0.9989
10299TIP3    H255093  -0.022   1.282   5.737 -0.0430 -0.7886 -1.2838
10300TIP3   OH255094   1.670   2.537   4.946 -0.4692 -0.2417 -0.1881
10300TIP3    H155095   1.673   2.501   4.858  1.8810  0.3643 -0.4061
10300TIP3    H255096   1.616   2.616   4.938 -1.5085 -0.9796 -0.7330
10301TIP3   OH255097   6.175   4.549   5.990  0.4815 -0.0497  0.4142
10301TIP3    H155098   6.266   4.572   6.011  0.6806  0.8851 -1.2677
10301TIP3    H255099   6.135   4.632   5.963 -0.6176 -0.6031  0.2939
10302TIP3   OH255100   2.760   2.295   6.092 -0.1566  0.0808  0.1979
10302TIP3    H155101   2.837   2.324   6.044  0.6955 -0.6794  1.0627
10302TIP3    H255102   2.750   2.203   6.069 -0.1439 -0.1133  0.9341
10303TIP3   OH255103   0.144   4.906   6.516 -0.4797  0.3237 -0.7253
10303TIP3    H155104   0.102   4.975   6.567 -0.4084 -0.6288  0.6568
10303TIP3    H255105   0.229   4.893   6.559  1.0594  1.7836 -3.0847
10304TIP3   OH255106   1.753   2.480   4.657  0.0025  0.1008 -0.4092
10304TIP3    H155107   1.848   2.483   4.668 -0.1789  0.1968  1.3375
10304TIP3    H255108   1.732   2.560   4.607  0.8568 -0.1418 -1.1903
10305TIP3   OH255109   2.754   3.515   6.546 -0.2275 -0.5517  0.4362
10305TIP3    H155110   2.847   3.539   6.550 -0.5502  0.6798  0.7973
10305TIP3    H255111   2.707   3.597   6.559 -1.3975 -0.6594 -2.3375
10306TIP3   OH255112   6.913   2.660   5.212 -0.0118  0.2782  0.1446
10306TIP3    H155113   6.915   2.710   5.293 -0.6432 -1.7564  1.4715
10306TIP3    H255114   6.998   2.615   5.209  0.1318  0.5762 -0.4917
10307TIP3   OH255115   3.248   6.641   4.642  0.3973  0.3162 -0.3302
10307TIP3    H155116   3.323   6.584   4.660  1.4465  1.8298  0.2856
10307TIP3    H255117   3.267   6.678   4.556 -0.0106  0.1737 -0.4841
10308TIP3   OH255118   4.671   3.390   4.849 -0.1339  0.2205 -0.1752
10308TIP3    H155119   4.732   3.442   4.797 -1.5189  0.6649 -1.4378
10308TIP3    H255120   4.591   3.442   4.852 -0.7523 -0.7255  0.6915
10309TIP3   OH255121   4.472   1.479   5.154 -0.5504  0.8057  0.2851
10309TIP3    H155122   4.394   1.425   5.167  1.1555 -1.2998  2.7561
10309TIP3    H255123   4.533   1.423   5.106  0.5504  1.2163  1.1432
10310TIP3   OH255124   0.020   4.860   4.331 -0.2828  0.0924  0.1032
10310TIP3    H155125   0.112   4.862   4.358 -0.2351  2.8961  0.0899
10310TIP3    H255126   0.023   4.870   4.235 -0.6091 -3.2829 -0.3768
10311TIP3   OH255127   0.453   0.519   5.445 -0.4420  0.0659  0.2243
10311TIP3    H155128   0.388   0.449   5.437 -0.3292  0.0802 -1.0125
10311TIP3    H255129   0.448   0.566   5.362  0.7709  0.4101  0.3246
10312TIP3   OH255130   4.743   4.064   4.228  0.4500 -0.2617 -0.1504
10312TIP3    H155131   4.698   3.982   4.248  0.7909 -0.4387 -0.0976
10312TIP3    H255132   4.707   4.127   4.291 -0.4106 -0.1626 -0.7224
10313TIP3   OH255133   0.622   5.906   5.065  0.3441  0.0477 -0.2101
10313TIP3    H155134   0.630   5.997   5.037  0.8670  0.2241  0.4806
10313TIP3    H255135   0.635   5.908   5.159  0.1676 -0.7216 -0.1570
10314TIP3   OH255136   7.549   6.431   4.446  0.6422 -0.2304  0.0215
10314TIP3    H155137   7.622   6.370   4.446  0.6756 -0.3465  2.9161
10314TIP3    H255138   7.477   6.383   4.489 -0.2540  0.7982 -0.2749
10315TIP3   OH255139   5.927   5.964   4.578  0.1756  0.1911  0.4098
10315TIP3    H155140   5.954   5.977   4.669  1.7000  3.2327 -0.3621
10315TIP3    H255141   6.004   5.986   4.526 -0.9015 -0.6664 -1.6565
10316TIP3   OH255142   4.773   2.271   4.257  0.1500 -0.1138  0.3280
10316TIP3    H155143   4.861   2.300   4.282  0.9029 -0.7001 -1.4528
10316TIP3    H255144   4.779   2.254   4.163 -1.4749 -1.6063  0.4331
10317TIP3   OH255145   6.630   2.165   4.415  0.1153 -0.0392  0.1866
10317TIP3    H155146   6.566   2.094   4.417  2.1828 -2.0090  1.8016
10317TIP3    H255147   6.657   2.171   4.323 -3.3426  1.9333 -0.8749
10318TIP3   OH255148   6.692   3.072   5.095  0.2557 -0.4233  0.1367
10318TIP3    H155149   6.769   3.023   5.125 -1.0104 -1.7207  1.4235
10318TIP3    H255150   6.720   3.164   5.094  0.7461 -0.3564  4.4138
10319TIP3   OH255151   3.016   4.938   5.473  0.5837 -0.1838 -0.4048
10319TIP3    H155152   3.109   4.960   5.466  0.4461  0.4479 -0.2795
10319TIP3    H255153   3.009   4.853   5.430  1.3498 -0.5964  0.2517
10320TIP3   OH255154   3.679   4.317   6.477  0.0497  0.5534  0.4546
10320TIP3    H155155   3.625   4.361   6.412  0.5092  0.4859  0.0197
10320TIP3    H255156   3.720   4.388   6.527  0.8041  0.6276 -0.2572
10321TIP3   OH255157   1.335   3.745   4.582  0.2058  0.4095  0.3730
10321TIP3    H155158   1.276   3.690   4.634  0.3292  0.2810  0.3786
10321TIP3    H255159   1.290   3.829   4.575  0.6794  0.7823  1.5939
10322TIP3   OH255160   2.897   0.068   4.831 -0.5309  0.0506  0.7144
10322TIP3    H155161   2.917  -0.024   4.812  0.5314  0.5409 -0.7028
10322TIP3    H255162   2.981   0.105   4.859 -1.1437  0.4107  2.1774
10323TIP3   OH255163   4.121   3.085   4.047 -0.0580 -0.2427  0.0257
10323TIP3    H155164   4.144   2.992   4.048 -0.5893 -0.3765  0.2476
10323TIP3    H255165   4.030   3.087   4.075  0.2940  0.4547  1.1809
10324TIP3   OH255166   7.050   2.139   4.773 -0.4036 -0.4903 -0.0441
10324TIP3    H155167   6.976   2.179   4.819  0.7085  1.5921  0.0635
10324TIP3    H255168   7.096   2.090   4.841 -0.4684  0.0294  0.3851
10325TIP3   OH255169   5.878   6.305   4.043 -0.2764  0.4243 -0.4476
10325TIP3    H155170   5.834   6.245   4.103 -1.7397  2.0335  0.1610
10325TIP3    H255171   5.809   6.364   4.013  1.1080  1.8321 -0.9852
10326TIP3   OH255172   6.915   7.112   6.379  0.1705  0.2885 -0.2267
10326TIP3    H155173   7.005   7.078   6.379  0.8224  1.8521  1.4780
10326TIP3    H255174   6.863   7.040   6.414  1.3152  0.4938  2.0824
10327TIP3   OH255175   2.562   2.000   5.864 -0.0811 -0.2223  0.0139
10327TIP3    H155176   2.474   1.977   5.835 -0.6898 -0.2840  1.7764
10327TIP3    H255177   2.602   2.044   5.789 -1.6493 -0.0895 -0.7766
10328TIP3   OH255178   3.253   1.266   4.272  0.1405 -0.1664  0.2920
10328TIP3    H155179   3.324   1.323   4.242 -0.2929  1.0063  1.3619
10328TIP3    H255180   3.288   1.224   4.351  0.6932 -1.9453 -0.8565
10329TIP3   OH255181   4.343   6.631   4.915 -0.8217  0.3897  0.1698
10329TIP3    H155182   4.386   6.668   4.838  0.1096 -0.1789  0.4044
10329TIP3    H255183   4.393   6.664   4.989  0.1485 -1.4502  0.3717
10330TIP3   OH255184   7.026   0.451   4.818  0.1701  0.4525  0.0313
10330TIP3    H155185   7.023   0.545   4.830 -2.8089  0.4517  0.0353
10330TIP3    H255186   7.013   0.439   4.724 -2.3119  0.0673  0.3668
10331TIP3   OH255187   1.621   5.254   5.597 -0.2851 -0.2588 -0.2929
10331TIP3    H155188   1.608   5.198   5.520  0.4994 -1.8138  0.6369
10331TIP3    H255189   1.685   5.206   5.650  0.6026  1.6776  0.4614
10332TIP3   OH255190   1.346   6.421   6.150  0.3217  0.4612  0.6079
10332TIP3    H155191   1.307   6.351   6.202  0.5078  0.0757  0.2359
10332TIP3    H255192   1.360   6.492   6.212 -1.8442  0.9704  0.5617
10333TIP3   OH255193   2.467   3.616   6.407  0.1782  0.0587  0.3277
10333TIP3    H155194   2.540   3.657   6.455  0.8412 -0.8513  0.1132
10333TIP3    H255195   2.467   3.525   6.438 -0.9565  0.0819  0.4167
10334TIP3   OH255196   0.398   0.656   5.197 -0.3174 -0.1302  0.4603
10334TIP3    H155197   0.454   0.601   5.142  1.5435  1.0466  1.0571
10334TIP3    H255198   0.367   0.725   5.138 -0.3779 -0.2683  0.3295
10335TIP3   OH255199   5.511   7.651   6.102  0.2394 -0.2159  0.1696
10335TIP3    H155200   5.465   7.691   6.176 -1.4406 -2.5035  0.4427
10335TIP3    H255201   5.463   7.681   6.025 -0.1992 -0.6303  0.2781
10336TIP3   OH255202   2.773   0.145   4.021  0.0637  0.3555 -0.7498
10336TIP3    H155203   2.762   0.232   3.981  0.3995  0.7494 -0.0093
10336TIP3    H255204   2.821   0.162   4.102 -0.1223 -0.4940 -0.4520
10337TIP3   OH255205   6.477   4.764   3.857 -0.1585  0.4685 -0.3634
10337TIP3    H155206   6.416   4.700   3.821  0.1435  0.6325 -1.1733
10337TIP3    H255207   6.555   4.714   3.878 -0.2838  0.3980 -0.0609
10338TIP3   OH255208   0.671   3.749   5.067  0.0166 -0.8224  0.0345
10338TIP3    H155209   0.673   3.655   5.053 -0.4721 -0.8629  0.1965
10338TIP3    H255210   0.619   3.783   4.994 -0.8189 -0.8156  0.6134
10339TIP3   OH255211   5.495   2.435   4.337 -0.0985 -0.1901  0.2839
10339TIP3    H155212   5.433   2.444   4.408  1.2852  0.1592  1.5014
10339TIP3    H255213   5.537   2.521   4.329  1.1510 -0.7561  0.4068
10340TIP3   OH255214   4.157   4.584   6.198  0.0787 -0.7799  0.4604
10340TIP3    H155215   4.229   4.566   6.259  0.4090  0.7320  0.5726
10340TIP3    H255216   4.085   4.612   6.254  0.8283  2.0314  0.1752
10341TIP3   OH255217   7.436   4.720   6.317 -0.0793  0.4229  0.2215
10341TIP3    H155218   7.436   4.755   6.406  0.0832  0.6452  0.1358
10341TIP3    H255219   7.356   4.755   6.277 -0.5219 -0.2553  0.5005
10342TIP3   OH255220   7.569   3.482   5.584  0.1994  0.0679 -0.1565
10342TIP3    H155221   7.656   3.500   5.620  0.3598  0.3546 -0.6860
10342TIP3    H255222   7.561   3.541   5.509  0.6560 -1.8980 -1.8397
10343TIP3   OH255223   7.229   2.875   5.642  0.5790 -0.1381 -0.1988
10343TIP3    H155224   7.316   2.902   5.615  0.2682 -0.2699 -1.3943
10343TIP3    H255225   7.242   2.787   5.679  1.1477  0.4240  0.9978
10344TIP3   OH255226   5.178   2.375   6.023  0.3609 -0.3080  0.2703
10344TIP3    H155227   5.245   2.436   5.990  1.7165 -1.8742  0.0010
10344TIP3    H255228   5.144   2.417   6.102  0.7026  1.1430 -0.3186
10345TIP3   OH255229   5.102   4.056   6.559  0.5701 -0.1466  0.4556
10345TIP3    H155230   5.038   4.072   6.629  1.0884 -1.0139  1.1500
10345TIP3    H255231   5.155   4.135   6.556 -0.0004  0.2469  0.4357
10346TIP3   OH255232   5.753   5.064   5.175  0.0054  0.3512  0.2454
10346TIP3    H155233   5.693   5.056   5.101 -0.7354  0.9634  0.7541
10346TIP3    H255234   5.822   5.000   5.158 -0.3388  0.2359 -0.7885
10347TIP3   OH255235   2.309   7.601   4.325  0.3897  0.4995  0.0635
10347TIP3    H155236   2.360   7.673   4.362  0.3512  0.1725  0.7728
10347TIP3    H255237   2.370   7.555   4.267  0.6506  0.6326  0.2319
10348TIP3   OH255238   1.069   7.509   5.436 -0.3343 -0.0470 -0.0003
10348TIP3    H155239   0.985   7.467   5.417  0.0216 -1.2892  1.0108
10348TIP3    H255240   1.127   7.437   5.459  1.2936  0.6987 -1.5531
10349TIP3   OH255241   7.132   6.681   4.830  0.6065 -0.1018 -0.0967
10349TIP3    H155242   7.100   6.709   4.916 -0.2435 -0.5177 -0.2648
10349TIP3    H255243   7.054   6.682   4.774  0.8662 -1.2402 -0.5000
10350TIP3   OH255244   7.418   4.943   5.773 -0.2728 -0.0441  0.1897
10350TIP3    H155245   7.394   4.853   5.750  0.4913 -0.8509  2.2933
10350TIP3    H255246   7.511   4.949   5.748 -0.9454  1.1365 -2.4564
10351TIP3   OH255247   5.061   0.343   5.571  0.3847  0.2018  0.5975
10351TIP3    H155248   4.970   0.326   5.548  0.6834  0.0711 -0.5726
10351TIP3    H255249   5.057   0.386   5.656 -0.7279 -0.3344  0.8300
10352TIP3   OH255250   7.145   4.436   4.909  0.1445  0.1917  0.0460
10352TIP3    H155251   7.116   4.525   4.932  2.5719  1.2782 -0.7990
10352TIP3    H255252   7.168   4.396   4.992 -0.2015  0.6338  0.3612
10353TIP3   OH255253   6.269   3.972   5.236 -0.0088  0.3025 -0.0812
10353TIP3    H155254   6.237   3.990   5.148  1.9232  1.7626 -0.5588
10353TIP3    H255255   6.350   3.923   5.223 -0.5414 -0.9105  0.9686
10354TIP3   OH255256   3.324   3.894   4.682 -0.0280  0.3443 -0.1281
10354TIP3    H155257   3.341   3.984   4.710  0.9223  0.7689 -1.8824
10354TIP3    H255258   3.405   3.847   4.704 -0.7523 -0.2755  1.3604
10355TIP3   OH255259   2.439   6.978   5.095  0.3733  0.2795 -0.4160
10355TIP3    H155260   2.392   6.928   5.161 -0.8347  0.8475 -0.8261
10355TIP3    H255261   2.469   7.057   5.141  1.8666 -0.5498  0.1080
10356TIP3   OH255262   2.546   3.216   4.802 -0.2623 -0.0966  0.3598
10356TIP3    H155263   2.470   3.163   4.780 -2.1754  2.4325  0.4707
10356TIP3    H255264   2.515   3.275   4.870  1.9934  0.6489  0.8181
10357TIP3   OH255265   5.493   7.245   4.684  0.0569 -0.3363  0.3276
10357TIP3    H155266   5.435   7.321   4.694  0.3486 -0.2130  1.1833
10357TIP3    H255267   5.495   7.228   4.589 -0.5008  0.3371  0.1894
10358TIP3   OH255268   4.893   5.903   4.069  0.0877 -0.6117  0.3415
10358TIP3    H155269   4.876   5.973   4.006  0.9752 -0.5845  0.1184
10358TIP3    H255270   4.817   5.845   4.061 -1.0422  0.7077  1.1029
10359TIP3   OH255271   0.611   7.403   5.303 -0.1743 -0.2784  0.2635
10359TIP3    H155272   0.657   7.320   5.316  0.9712  0.0342 -1.5334
10359TIP3    H255273   0.613   7.418   5.209 -2.9489  0.3742  0.2120
10360TIP3   OH255274   4.278   2.628   5.112  0.1199  0.1515  0.1381
10360TIP3    H155275   4.315   2.714   5.134 -0.6880  0.5498 -0.0300
10360TIP3    H255276   4.261   2.633   5.018  3.9920 -1.6930 -0.8980
10361TIP3   OH255277   1.858   4.017   5.060 -0.5659 -0.3691 -0.2384
10361TIP3    H155278   1.950   4.017   5.087 -0.3446 -3.4243 -0.6481
10361TIP3    H255279   1.809   4.004   5.141 -0.3421 -2.4247 -0.3830
10362TIP3   OH255280   1.017   3.134   6.146  0.0502 -0.4036 -0.6062
10362TIP3    H155281   1.105   3.167   6.127 -0.3438  0.5531 -0.7926
10362TIP3    H255282   1.026   3.039   6.136  1.2204 -0.3818  0.0439
10363TIP3   OH255283   1.198   5.531   4.547  0.2222 -0.9513 -0.4296
10363TIP3    H155284   1.163   5.620   4.557  1.7379 -0.4766  1.2447
10363TIP3    H255285   1.125   5.474   4.570 -0.1575 -0.0552  0.6893
10364TIP3   OH255286   2.423   6.948   4.551  0.4891  0.6032  0.4547
10364TIP3    H155287   2.497   6.918   4.498  0.7582  1.0987  0.5397
10364TIP3    H255288   2.374   7.006   4.494 -0.7717 -0.9825 -0.1410
10365TIP3   OH255289   0.996   1.783   4.676 -0.2560  0.0939  0.1778
10365TIP3    H155290   0.915   1.736   4.693  1.0453 -1.8927  1.2646
10365TIP3    H255291   0.969   1.860   4.626 -2.5414 -1.5789 -1.3419
10366TIP3   OH255292   6.465   5.942   5.849 -0.1776 -0.0038  0.1734
10366TIP3    H155293   6.382   5.905   5.881  0.3871 -1.0280  0.5057
10366TIP3    H255294   6.521   5.865   5.834  0.2185  0.5637 -1.4840
10367TIP3   OH255295   2.576   5.216   4.837 -0.0946 -0.3002 -0.0293
10367TIP3    H155296   2.498   5.259   4.802  0.8270  1.1838 -0.3484
10367TIP3    H255297   2.584   5.249   4.927  1.4323  1.4427 -0.7420
10368TIP3   OH255298   1.809   5.678   6.371  0.3795 -0.0105  0.1089
10368TIP3    H155299   1.750   5.741   6.413 -0.5106 -0.6175 -0.2113
10368TIP3    H255300   1.863   5.645   6.443 -0.2178 -0.0408  0.5517
10369TIP3   OH255301   0.246   1.410   6.035  0.3891 -0.1460  0.5402
10369TIP3    H155302   0.153   1.417   6.057 -0.2882 -1.1402 -1.7189
10369TIP3    H255303   0.288   1.379   6.115 -0.9295  1.8676  2.0958
10370TIP3   OH255304   5.892   0.495   4.800 -0.0123 -0.2081 -0.2405
10370TIP3    H155305   5.897   0.550   4.878 -0.0517  0.4748 -0.7091
10370TIP3    H255306   5.800   0.501   4.773 -0.2908 -1.4652  0.3793
10371TIP3   OH255307   0.622   3.970   4.785  0.3732  0.1516 -0.4396
10371TIP3    H155308   0.676   4.017   4.721  0.0523  0.6066 -0.3789
10371TIP3    H255309   0.581   3.900   4.734  0.0260  0.5821 -0.7592
10372TIP3   OH255310   6.976   6.373   4.740 -0.1284 -0.4038  0.4455
10372TIP3    H155311   6.898   6.324   4.715  0.1824 -1.9341  2.2354
10372TIP3    H255312   6.950   6.464   4.738 -0.8953 -0.5867 -2.5021
10373TIP3   OH255313   6.811   3.664   4.074  0.2586  0.2342  0.0174
10373TIP3    H155314   6.752   3.589   4.089 -0.1590  0.1802 -1.6849
10373TIP3    H255315   6.752   3.738   4.060  0.6529  0.6380  0.4789
10374TIP3   OH255316   1.299   0.850   5.211  0.0263  0.3201 -0.0838
10374TIP3    H155317   1.210   0.868   5.242  1.0435  2.0813  2.1359
10374TIP3    H255318   1.338   0.936   5.198  1.9268 -0.3621  0.7332
10375TIP3   OH255319   0.446   3.787   4.643 -0.5983 -0.1267 -0.1194
10375TIP3    H155320   0.362   3.742   4.633 -1.0611  0.5768  0.5269
10375TIP3    H255321   0.426   3.879   4.627  0.3920 -0.1439 -1.7443
10376TIP3   OH255322   3.200   5.231   5.431  0.4785  0.2784 -0.0625
10376TIP3    H155323   3.223   5.312   5.477 -0.5142  0.7674 -0.3819
10376TIP3    H255324   3.119   5.253   5.385  0.3081 -0.8489 -0.3187
10377TIP3   OH255325   0.082   0.468   5.962 -0.5744 -0.3399  0.4974
10377TIP3    H155326   0.008   0.530   5.965 -0.0050  0.3900 -0.0280
10377TIP3    H255327   0.148   0.507   6.020  0.1337  0.0282 -0.5224
10378TIP3   OH255328   3.561   7.458   5.431 -0.0511  0.0088 -0.0582
10378TIP3    H155329   3.558   7.419   5.519  0.0329 -0.8300 -0.4228
10378TIP3    H255330   3.647   7.434   5.397 -0.3199 -0.1697 -0.6044
10379TIP3   OH255331   4.440   7.102   6.004  0.5523 -0.2002  0.5599
10379TIP3    H155332   4.456   7.102   5.910  1.0566 -1.2323  0.6354
10379TIP3    H255333   4.510   7.157   6.040  1.5187 -1.3623  0.5011
10380TIP3   OH255334   5.471   2.920   4.280 -0.5159 -0.2688 -0.2951
10380TIP3    H155335   5.435   2.950   4.363 -0.8262  0.4916 -0.6909
10380TIP3    H255336   5.472   2.999   4.225 -2.0825 -1.1146 -1.6275
10381TIP3   OH255337   2.277   6.716   4.922 -0.9952 -0.5971  0.4686
10381TIP3    H155338   2.291   6.686   5.012 -0.9344 -1.6264  0.1254
10381TIP3    H255339   2.363   6.712   4.882 -0.5427  2.0210  0.9489
10382TIP3   OH255340   6.372   5.231   6.336 -0.1397  0.1306 -0.4814
10382TIP3    H155341   6.435   5.301   6.316 -0.3344  0.2474 -0.6838
10382TIP3    H255342   6.383   5.216   6.430  2.0109 -1.6351 -0.9312
10383TIP3   OH255343   4.171   0.922   4.314  0.0057 -0.1524 -0.2895
10383TIP3    H155344   4.234   0.941   4.245 -1.3881  3.9472 -0.7407
10383TIP3    H255345   4.203   0.971   4.390 -1.8305  0.9403 -0.1401
10384TIP3   OH255346   4.990   3.333   4.989  0.6628  0.4204  0.1399
10384TIP3    H155347   5.029   3.250   5.016 -0.0219  0.1498  0.3176
10384TIP3    H255348   4.896   3.319   4.997  0.4956  0.8667 -0.8367
10385TIP3   OH255349   1.399   4.775   4.697  0.9321  0.0050  0.3950
10385TIP3    H155350   1.493   4.791   4.697  1.2547 -1.3288  3.0496
10385TIP3    H255351   1.383   4.725   4.776 -1.6845 -2.0500 -1.2601
10386TIP3   OH255352   3.029   3.904   6.358  0.1204  0.1264 -0.2258
10386TIP3    H155353   3.091   3.977   6.362  0.1265  0.1168 -0.1501
10386TIP3    H255354   2.963   3.925   6.424  0.6012 -0.3811  0.4362
10387TIP3   OH255355   4.179   1.385   3.835 -0.1741  0.1336  0.5304
10387TIP3    H155356   4.233   1.357   3.909 -0.9777 -3.2131  0.0373
10387TIP3    H255357   4.217   1.340   3.759 -0.5584  1.9075 -0.7862
10388TIP3   OH255358   6.669   3.879   4.927  0.5299  0.7324 -0.3862
10388TIP3    H155359   6.761   3.887   4.902  0.9814 -2.9757 -0.4720
10388TIP3    H255360   6.620   3.897   4.847  1.0558  2.9442 -0.2926
10389TIP3   OH255361   4.183   6.309   5.865  0.2693  0.2901  0.4065
10389TIP3    H155362   4.144   6.374   5.806  1.4283 -0.7009 -1.5921
10389TIP3    H255363   4.137   6.321   5.948 -1.0128  2.2139 -0.4946
10390TIP3   OH255364   2.933   4.250   4.873 -0.6071 -0.3782  0.2249
10390TIP3    H155365   2.850   4.225   4.913 -0.9592  0.4080  0.0083
10390TIP3    H255366   2.999   4.221   4.936 -1.0513 -0.8095  0.5054
10391TIP3   OH255367   3.518   2.183   5.284  0.0629  0.3938  0.6400
10391TIP3    H155368   3.470   2.100   5.288  0.2995  0.2591  0.6825
10391TIP3    H255369   3.571   2.184   5.364 -0.2159  0.7540  0.8232
10392TIP3   OH255370   0.033   4.269   6.021  0.1778 -0.1518 -0.0722
10392TIP3    H155371   0.124   4.244   6.004  0.4028  0.7547 -0.2789
10392TIP3    H255372   0.037   4.320   6.102 -0.4667 -1.9285  1.1287
10393TIP3   OH255373   5.750   6.931   6.647  0.0269  0.1652 -0.6088
10393TIP3    H155374   5.743   7.026   6.661 -0.6458  0.1370 -0.7523
10393TIP3    H255375   5.841   6.911   6.668  0.1822  0.8503 -0.6051
10394TIP3   OH255376   2.889   0.714   6.208  0.0155  0.0974 -0.0398
10394TIP3    H155377   2.979   0.741   6.193 -0.1291  1.4562  1.2253
10394TIP3    H255378   2.895   0.622   6.235  1.0466  0.2514  0.2925
10395TIP3   OH255379   4.261   2.646   6.327  0.2080  0.3311  0.0922
10395TIP3    H155380   4.233   2.715   6.266  0.4667  0.8007  0.5017
10395TIP3    H255381   4.355   2.637   6.312  0.2651  0.4190  0.3913
10396TIP3   OH255382   0.242   0.140   4.381  0.1412  0.3075  0.2635
10396TIP3    H155383   0.246   0.228   4.345 -1.9480 -0.7429 -3.0017
10396TIP3    H255384   0.155   0.135   4.423  0.7462  0.1290  1.5516
10397TIP3   OH255385   4.326   4.421   5.850 -0.0436  0.8779  0.3274
10397TIP3    H155386   4.262   4.491   5.834  0.0807  0.7752 -0.6603
10397TIP3    H255387   4.319   4.403   5.944 -0.5462  1.7588  0.4642
10398TIP3   OH255388   4.543   2.369   4.345  0.0260  0.1217 -0.3355
10398TIP3    H155389   4.620   2.323   4.312 -0.4382 -0.4496 -0.6388
10398TIP3    H255390   4.540   2.350   4.438  0.1793  0.0316 -0.3497
10399TIP3   OH255391   3.083   1.115   5.664  0.4898  0.5820  0.5365
10399TIP3    H155392   3.113   1.110   5.755 -2.0127  2.0450  1.5383
10399TIP3    H255393   3.052   1.205   5.654  1.2978  0.6546 -2.0098
10400TIP3   OH255394   1.980   6.121   5.684  0.5484 -0.0564  0.3034
10400TIP3    H155395   1.895   6.106   5.642  0.7988  1.3495 -0.8060
10400TIP3    H255396   1.962   6.188   5.750  0.6231 -0.4802  0.7611
10401TIP3   OH255397   1.804   5.843   5.244  0.4173  0.0404  0.1004
10401TIP3    H155398   1.889   5.800   5.252  0.6688  0.0463 -1.8912
10401TIP3    H255399   1.818   5.931   5.277  1.1508 -0.0155 -0.0496
10402TIP3   OH255400   5.580   2.206   4.921  0.6946 -0.0660 -0.0334
10402TIP3    H155401   5.656   2.206   4.980 -0.2807 -0.6153  1.2604
10402TIP3    H255402   5.609   2.258   4.846  2.6324 -0.9325  0.0495
10403TIP3   OH255403   1.720   6.311   3.371 -0.8897  0.2686 -0.4540
10403TIP3    H155404   1.744   6.404   3.366 -0.5257  0.1728 -0.4894
10403TIP3    H255405   1.724   6.280   3.281  1.2784 -0.3515 -0.1947
10404TIP3   OH255406   5.785   4.315   5.979 -0.2847 -0.0949 -0.3741
10404TIP3    H155407   5.797   4.241   5.920 -1.1832  1.0525 -2.0623
10404TIP3    H255408   5.866   4.318   6.030 -0.4044 -2.4814  0.0728
10405TIP3   OH255409   6.125   7.171   4.638  0.2690  0.6220 -0.7627
10405TIP3    H155410   6.194   7.116   4.675 -0.6728 -0.3138 -0.3469
10405TIP3    H255411   6.095   7.225   4.710 -0.5674 -0.1678 -0.5020
10406TIP3   OH255412   6.658   1.341   4.465 -0.3343  0.1505  0.2082
10406TIP3    H155413   6.631   1.422   4.420  0.2794  0.6362  0.6858
10406TIP3    H255414   6.617   1.271   4.414 -0.3482  0.7263 -0.6095
10407TIP3   OH255415   2.349   1.918   5.469  0.0890 -0.1270  0.6598
10407TIP3    H155416   2.381   1.886   5.385  0.2356  0.7828  0.3592
10407TIP3    H255417   2.342   2.012   5.458  0.9401  0.1132  1.9418
10408TIP3   OH255418   2.838   4.891   4.503 -0.1673  0.7147 -0.1179
10408TIP3    H155419   2.913   4.928   4.550  0.0880 -0.3475  0.3519
10408TIP3    H255420   2.856   4.908   4.411  0.7419  0.3312 -0.0202
10409TIP3   OH255421   7.207   5.316   5.321 -0.6806 -0.2813 -0.3294
10409TIP3    H155422   7.263   5.316   5.399  0.3620  3.4554 -0.8481
10409TIP3    H255423   7.125   5.278   5.350  0.0981 -0.1992  2.2556
10410TIP3   OH255424   1.803   2.295   5.938  0.0363 -0.0670 -0.6242
10410TIP3    H155425   1.873   2.283   6.003  0.9160 -2.4678 -1.8726
10410TIP3    H255426   1.731   2.240   5.969 -0.3990  0.5234 -0.5713
10411TIP3   OH255427   4.207   1.559   5.716  0.0029  0.1848 -0.2338
10411TIP3    H155428   4.141   1.629   5.709 -0.0072  0.0857 -1.3548
10411TIP3    H255429   4.239   1.547   5.626  1.3835  0.0610  0.2493
10412TIP3   OH255430   1.267   4.980   4.263 -0.4600  0.1238 -0.1293
10412TIP3    H155431   1.183   4.946   4.294 -0.2470 -0.7731 -0.5139
10412TIP3    H255432   1.250   5.073   4.246 -1.5434 -0.1780 -0.7964
10413TIP3   OH255433   6.043   5.993   4.831  0.4000  0.5800  0.0681
10413TIP3    H155434   6.117   6.018   4.886  2.2713 -0.8457 -1.6338
10413TIP3    H255435   5.998   5.924   4.880  1.3437  0.1361  0.3150
10414TIP3   OH255436   0.414   5.294   6.467 -0.1488  0.4480 -0.5289
10414TIP3    H155437   0.340   5.253   6.511  0.7614 -1.3169 -0.5404
10414TIP3    H255438   0.437   5.368   6.523  0.8558 -1.6014  1.9932
10415TIP3   OH255439   1.359   1.401   4.274  0.0659  0.2254  0.2172
10415TIP3    H155440   1.378   1.338   4.344  0.1864  0.3828  0.3263
10415TIP3    H255441   1.441   1.449   4.262 -0.0999  0.5279  0.3026
10416TIP3   OH255442   6.361   1.861   6.057  1.0917  0.5993  0.3327
10416TIP3    H155443   6.410   1.905   6.127  0.7280 -0.3509  1.2102
10416TIP3    H255444   6.386   1.769   6.064 -0.4135  0.1700  0.5006
10417TIP3   OH255445   5.225   1.789   5.174 -0.5629 -0.0426 -0.3289
10417TIP3    H155446   5.295   1.823   5.119 -0.9496  1.0825 -0.1773
10417TIP3    H255447   5.195   1.710   5.130 -0.0761  0.1893 -1.0987
10418TIP3   OH255448   2.557   1.456   6.252 -0.4496  0.1028 -0.1812
10418TIP3    H155449   2.495   1.390   6.222 -0.6845 -0.2335  1.0325
10418TIP3    H255450   2.506   1.517   6.304 -0.0201  0.6231 -0.3512
10419TIP3   OH255451   3.519   3.736   4.358  0.0896  0.1285  0.1410
10419TIP3    H155452   3.487   3.749   4.447  0.7650  2.8180  0.0885
10419TIP3    H255453   3.448   3.767   4.302  0.7275  1.1080 -0.1426
10420TIP3   OH255454   6.746   1.929   4.527  0.3133 -0.7845 -0.4775
10420TIP3    H155455   6.735   2.024   4.526  0.2253 -0.7776  0.3287
10420TIP3    H255456   6.822   1.912   4.471  2.5882  0.0975  2.1369
10421TIP3   OH255457   1.377   2.038   6.106 -0.0803 -0.3124 -0.0062
10421TIP3    H155458   1.332   1.991   6.036 -0.3249  0.1225 -0.1445
10421TIP3    H255459   1.313   2.043   6.177  0.0822 -0.5365  0.1571
10422TIP3   OH255460   0.523   5.399   5.084  0.0108 -0.4817  0.4077
10422TIP3    H155461   0.576   5.442   5.152  0.1945 -0.9683  0.5772
10422TIP3    H255462   0.541   5.306   5.096 -0.4872 -0.6143  0.1268
10423TIP3   OH255463   6.249   3.936   6.017  0.2568 -0.5394 -0.7209
10423TIP3    H155464   6.233   3.901   5.930 -0.3483  1.0730 -1.2940
10423TIP3    H255465   6.163   3.966   6.047  0.9399  1.7501 -0.8849
10424TIP3   OH255466   0.404   2.228   4.890 -0.5619 -0.1045  0.2141
10424TIP3    H155467   0.411   2.310   4.939 -1.3475 -0.2686  0.6156
10424TIP3    H255468   0.449   2.163   4.944 -1.9103 -0.4022  1.0112
10425TIP3   OH255469   4.220   2.713   4.839  0.1537  0.1596 -0.1377
10425TIP3    H155470   4.179   2.651   4.777 -0.5250 -0.7074  1.1291
10425TIP3    H255471   4.268   2.774   4.783 -0.3404 -0.6568 -1.5187
10426TIP3   OH255472   3.976   5.056   3.741 -0.4022 -0.4478 -0.3411
10426TIP3    H155473   3.892   5.042   3.784  0.5760 -1.5677  1.3323
10426TIP3    H255474   4.026   5.109   3.803  0.6020 -1.0071 -0.6395
10427TIP3   OH255475   5.213   6.400   6.142  0.4086 -0.6334 -0.4150
10427TIP3    H155476   5.126   6.440   6.148  0.1581 -1.2028 -0.1817
10427TIP3    H255477   5.223   6.379   6.049 -0.1950 -1.6175 -0.2751
10428TIP3   OH255478   7.558   2.107   4.489  0.5601 -0.2994 -0.8004
10428TIP3    H155479   7.581   2.047   4.560 -1.4680  1.0517  1.1132
10428TIP3    H255480   7.463   2.105   4.485  0.5237  1.4975 -1.8374
10429TIP3   OH255481   4.427   0.297   5.967 -0.1804  0.0834 -0.1774
10429TIP3    H155482   4.421   0.362   6.037 -0.2680 -1.2192  1.0721
10429TIP3    H255483   4.471   0.222   6.008 -0.9732 -1.0169 -1.2914
10430TIP3   OH255484   6.191   6.876   5.384  0.2129 -0.4091  0.5009
10430TIP3    H155485   6.213   6.965   5.411 -0.9074  0.4776 -1.3014
10430TIP3    H255486   6.204   6.875   5.289  0.1449 -2.1630  0.4634
10431TIP3   OH255487   5.558   3.038   5.735  0.2263  0.2902  0.0345
10431TIP3    H155488   5.516   2.984   5.668 -0.0818  0.5029  0.0503
10431TIP3    H255489   5.650   3.040   5.711  0.3597 -0.7765  0.3969
10432TIP3   OH255490   3.330   2.231   4.905  0.1382 -0.7087 -0.6032
10432TIP3    H155491   3.336   2.297   4.836  0.8333 -1.2219 -1.0399
10432TIP3    H255492   3.316   2.149   4.859  2.4968 -1.3579 -0.2720
10433TIP3   OH255493   2.699   3.749   5.133  0.0101  0.1703 -0.2433
10433TIP3    H155494   2.715   3.660   5.102  1.2510  0.7981 -1.5458
10433TIP3    H255495   2.739   3.805   5.066 -0.4610  1.6985  0.7024
10434TIP3   OH255496   6.324   5.972   3.889  0.1037 -0.1021 -0.3060
10434TIP3    H155497   6.240   5.990   3.931 -0.7387  0.0709 -1.9749
10434TIP3    H255498   6.322   6.026   3.809  1.2482 -1.0684 -1.0037
10435TIP3   OH255499   1.359   0.953   5.792  0.8837 -0.6355 -0.7880
10435TIP3    H155500   1.325   1.043   5.794  0.6331 -0.7396  0.0447
10435TIP3    H255501   1.344   0.920   5.880  3.3207 -0.6235 -0.2991
10436TIP3   OH255502   3.990   1.111   3.736  0.0609 -0.5341  0.1726
10436TIP3    H155503   4.039   1.093   3.816 -1.7490 -1.3294  1.1757
10436TIP3    H255504   3.972   1.025   3.700 -0.1627 -0.2316 -0.4401
10437TIP3   OH255505   3.973   1.989   4.493  0.1183 -0.3930  0.3645
10437TIP3    H155506   3.907   2.055   4.516 -1.5713 -2.0202  0.3844
10437TIP3    H255507   4.025   1.978   4.573 -0.4089 -0.0211  0.7639
10438TIP3   OH255508   4.686   4.362   4.059 -0.0745 -0.9420  0.4656
10438TIP3    H155509   4.739   4.305   4.003  2.2784  0.1414  1.4603
10438TIP3    H255510   4.685   4.317   4.144  0.0295 -0.5408  0.6852
10439TIP3   OH255511   3.432   7.010   4.054 -0.2232  0.7540  0.4966
10439TIP3    H155512   3.394   6.944   3.995 -1.3727  2.6733 -1.0102
10439TIP3    H255513   3.525   7.012   4.030 -0.1560 -0.3505  0.6127
   7.68049   7.68049  30.00000
